Title
82322
    1SAPS     N    1   3.574   6.641  10.682  0.4336 -0.2926  0.1740
    1SAPS   HN1    2   3.602   6.542  10.696  1.1477 -0.4775 -2.1644
    1SAPS   HN2    3   3.499   6.640  10.610  0.6971  0.9716 -0.1290
    1SAPS   HN3    4   3.661   6.689  10.652  0.5879 -1.8228 -2.0352
    1SAPS   C12    5   3.518   6.708  10.803  0.4208 -0.9380  0.7446
    1SAPS  H12A    6   3.564   6.668  10.892 -1.5644 -0.6939  1.9519
    1SAPS   C13    7   3.542   6.863  10.810  0.5001 -0.5054  0.8924
    1SAPS  O13A    8   3.607   6.925  10.726  0.0504 -0.1072 -0.3923
    1SAPS  O13B    9   3.501   6.917  10.916 -0.4803 -0.9591  0.1183
    1SAPS   C11   10   3.366   6.684  10.808  0.6962 -0.3593 -0.2204
    1SAPS  H11A   11   3.317   6.713  10.712  1.2083  0.8696 -0.1210
    1SAPS  H11B   12   3.321   6.745  10.889 -0.9839 -1.2064 -0.4619
    1SAPS     P   13   3.199   6.491  10.847  0.4521 -0.5128  0.0789
    1SAPS   O13   14   3.175   6.448  10.985  0.6024 -0.5923  0.2051
    1SAPS   O14   15   3.095   6.578  10.787 -0.4313 -0.2516 -0.5145
    1SAPS   O12   16   3.341   6.543  10.819  0.4560 -0.0692 -0.5222
    1SAPS   O11   17   3.200   6.358  10.763 -0.0122  0.0887 -0.0305
    1SAPS    C1   18   3.273   6.348  10.639 -0.3390 -0.4749 -0.1570
    1SAPS    HA   19   3.356   6.421  10.630 -1.3676  1.0036  1.6310
    1SAPS    HB   20   3.319   6.247  10.629  1.3564  0.1642  0.7068
    1SAPS    C2   21   3.179   6.345  10.524  0.3244  0.3824 -0.2305
    1SAPS    HS   22   3.141   6.448  10.506  0.7867  0.5060 -0.5066
    1SAPS   O21   23   3.066   6.253  10.548  0.5249  0.7646  0.3348
    1SAPS   C21   24   2.960   6.269  10.463 -0.5253  0.1036 -0.7409
    1SAPS   O22   25   2.947   6.361  10.384  0.4596 -0.1347  0.0745
    1SAPS   C22   26   2.855   6.165  10.500 -0.1695  0.7625  0.6982
    1SAPS   H2R   27   2.900   6.064  10.490 -2.1896 -0.0905 -0.5543
    1SAPS   H2S   28   2.836   6.166  10.609  0.2353 -1.1277  0.8197
    1SAPS    C3   29   3.265   6.295  10.397  0.5126 -1.0283 -0.0911
    1SAPS    HX   30   3.286   6.189  10.422 -0.1821 -1.0311  0.5286
    1SAPS    HY   31   3.361   6.351  10.399 -0.7878  1.3835 -0.2850
    1SAPS   O31   32   3.191   6.309  10.271 -0.5953  0.3595  0.2068
    1SAPS   C31   33   3.203   6.428  10.208  1.4244 -0.8304 -0.3384
    1SAPS   O32   34   3.258   6.529  10.244 -0.1259 -0.0890 -0.0818
    1SAPS   C32   35   3.140   6.416  10.067 -0.8591  0.0626  0.5034
    1SAPS   H2X   36   3.031   6.435  10.075 -1.2317 -1.5115 -0.4667
    1SAPS   H2Y   37   3.156   6.309  10.045 -1.1121  0.0481  0.3881
    1SAPS   C23   38   2.720   6.169  10.419  0.5144 -1.0426  0.1221
    1SAPS   H3R   39   2.676   6.271  10.419  1.1677 -0.7544 -0.1634
    1SAPS   H3S   40   2.641   6.099  10.454  0.6469 -1.6302 -0.7167
    1SAPS   C24   41   2.731   6.147  10.261 -0.3532  0.2393 -0.0068
    1SAPS   H4R   42   2.774   6.046  10.242 -1.5884 -0.4711  0.7822
    1SAPS   H4S   43   2.807   6.219  10.224  2.5722 -2.2384  0.8142
    1SAPS   C25   44   2.601   6.165  10.191 -0.4103  0.7720  0.0339
    1SAPS   H5R   45   2.519   6.105  10.233 -1.2367  0.8481 -1.4315
    1SAPS   C26   46   2.580   6.235  10.076  0.1424  0.1455  0.5453
    1SAPS   H6R   47   2.479   6.237  10.031  0.0666  0.4099  0.7266
    1SAPS   C27   48   2.683   6.325  10.003  0.4865  0.0043  0.0311
    1SAPS   H7R   49   2.747   6.252   9.949  1.3774  0.1770  0.8415
    1SAPS   H7S   50   2.747   6.372  10.080 -0.5326  0.0853  0.8513
    1SAPS   C28   51   2.625   6.423   9.901  0.0207 -0.0898 -0.3776
    1SAPS   H8R   52   2.523   6.455   9.927 -0.8233 -3.1411  0.4515
    1SAPS   C29   53   2.666   6.449   9.775  0.4253 -1.0668 -0.5101
    1SAPS   H9R   54   2.612   6.529   9.722  0.0880 -0.4995  0.6619
    1SAPS  C210   55   2.779   6.382   9.701  0.2699  0.1779 -0.2296
    1SAPS  H10R   56   2.764   6.273   9.684  2.9037 -0.6908  2.1190
    1SAPS  H10S   57   2.871   6.381   9.763 -0.0336 -0.9989  0.2394
    1SAPS  C211   58   2.798   6.455   9.567 -0.1650  0.7312  0.8443
    1SAPS  H11R   59   2.803   6.564   9.564  1.0192  0.6936 -2.0943
    1SAPS  C212   60   2.828   6.401   9.448 -0.2484  0.6949  0.1135
    1SAPS  H12R   61   2.820   6.464   9.358  2.3865 -1.7095 -1.9673
    1SAPS  C213   62   2.838   6.256   9.410 -0.5331  0.2256 -1.1501
    1SAPS  H13R   63   2.879   6.194   9.492  2.5386  0.0719 -2.6560
    1SAPS  H13S   64   2.914   6.247   9.329 -2.8863 -0.1704 -3.4746
    1SAPS  C214   65   2.715   6.195   9.353 -0.1182  0.3870 -0.0124
    1SAPS  H14R   66   2.617   6.227   9.391  1.1353  2.2019  1.9468
    1SAPS  C215   67   2.722   6.105   9.253  0.4593  0.3372  0.2880
    1SAPS  H15R   68   2.628   6.072   9.206  1.1259  1.1589 -1.7278
    1SAPS  C216   69   2.834   6.055   9.174 -1.0634 -0.1195  0.0353
    1SAPS  H16R   70   2.799   5.962   9.124 -1.5919  0.1824 -0.1623
    1SAPS  H16S   71   2.920   6.034   9.242 -1.4709  0.0396  0.6130
    1SAPS  C217   72   2.884   6.141   9.059 -1.0041  0.0005 -0.1537
    1SAPS  H17R   73   2.904   6.243   9.100 -0.0675 -0.9647  1.9066
    1SAPS  H17S   74   2.820   6.142   8.968  1.1323  0.8943 -1.7301
    1SAPS  C218   75   3.016   6.074   9.003  0.6523 -0.1166 -0.1288
    1SAPS  H18R   76   2.991   5.975   8.959 -0.7438  0.5486 -0.9088
    1SAPS  H18S   77   3.072   6.053   9.096  0.4370  3.0209  0.8056
    1SAPS  C219   78   3.107   6.161   8.908  0.1055 -0.7124 -0.0232
    1SAPS  H19R   79   3.128   6.264   8.943  1.6362 -0.2667 -2.0558
    1SAPS  H19S   80   3.047   6.180   8.817  0.9808  1.1599 -0.2512
    1SAPS  C220   81   3.233   6.089   8.864 -0.9993  0.9151  0.0323
    1SAPS  H20R   82   3.213   5.998   8.803  4.0952 -1.2512  1.0995
    1SAPS  H20S   83   3.295   6.062   8.952  2.2808  0.3803 -2.2500
    1SAPS  H20T   84   3.289   6.152   8.791 -2.5525  0.6032 -1.5190
    1SAPS   C33   85   3.212   6.494   9.955  0.3815  0.4331 -0.3773
    1SAPS   H3X   86   3.315   6.453   9.954  0.6930  1.0037  2.1052
    1SAPS   H3Y   87   3.209   6.603   9.974  3.0705  0.5923 -0.4768
    1SAPS   C34   88   3.150   6.464   9.815  0.0567 -0.1701 -1.5590
    1SAPS   H4X   89   3.042   6.481   9.833  0.5567  0.3620  1.5157
    1SAPS   H4Y   90   3.149   6.353   9.811  0.2568 -0.2682  0.2047
    1SAPS   C35   91   3.205   6.540   9.699 -0.5197  0.3228  0.1893
    1SAPS   H5X   92   3.315   6.533   9.691 -0.5000  1.3587 -0.7238
    1SAPS   H5Y   93   3.182   6.647   9.717  2.5237  0.9270  1.0541
    1SAPS   C36   94   3.156   6.497   9.561  0.9069  0.4308  1.0365
    1SAPS   H6X   95   3.060   6.546   9.534  1.4551 -0.0337 -2.1958
    1SAPS   H6Y   96   3.135   6.388   9.551 -3.4121  1.0621  1.0762
    1SAPS   C37   97   3.249   6.536   9.448  0.2011 -0.4428  0.5693
    1SAPS   H7X   98   3.351   6.491   9.453  0.7437  0.3169 -2.0055
    1SAPS   H7Y   99   3.274   6.643   9.462  0.5744 -0.7410  2.4582
    1SAPS   C38  100   3.183   6.505   9.319 -0.3398 -0.8912 -0.1064
    1SAPS   H8X  101   3.093   6.566   9.295  1.2143  0.7024 -2.2709
    1SAPS   H8Y  102   3.147   6.400   9.330 -1.7789 -0.2881  1.4182
    1SAPS   C39  103   3.288   6.525   9.203  0.5728 -0.2892  0.0746
    1SAPS   H9X  104   3.377   6.465   9.230 -0.4330 -0.5945  3.1439
    1SAPS   H9Y  105   3.319   6.631   9.198  0.5425 -0.3147 -0.7573
    1SAPS  C310  106   3.232   6.470   9.066  0.2921  0.6222  0.6215
    1SAPS  H10X  107   3.128   6.506   9.056  1.0217  3.1547  1.3979
    1SAPS  H10Y  108   3.233   6.362   9.092  0.0464  0.1758 -1.1064
    1SAPS  C311  109   3.328   6.502   8.955  0.1220  0.2756 -0.4974
    1SAPS  H11X  110   3.297   6.438   8.870 -0.6309  0.7609 -0.5961
    1SAPS  H11Y  111   3.428   6.464   8.986 -0.4824  0.3664  1.7275
    1SAPS  C312  112   3.325   6.645   8.914  0.8159  0.1769  0.2157
    1SAPS  H12X  113   3.340   6.703   9.008  1.7998  1.2074 -0.5599
    1SAPS  H12Y  114   3.223   6.670   8.877  1.0937  3.1315  1.1111
    1SAPS  C313  115   3.427   6.675   8.798  0.1005 -0.6770  0.4449
    1SAPS  H13X  116   3.522   6.618   8.795  1.4277  1.4593 -1.9332
    1SAPS  H13Y  117   3.455   6.782   8.795  1.4426 -1.0264  0.0192
    1SAPS  C314  118   3.358   6.677   8.659 -0.1749  0.8144 -0.2626
    1SAPS  H14X  119   3.286   6.762   8.659 -1.6264 -0.3520 -1.2267
    1SAPS  H14Y  120   3.302   6.582   8.646 -0.4790  0.8466  0.7538
    1SAPS  C315  121   3.473   6.701   8.559  0.3237  0.5485  0.2806
    1SAPS  H15X  122   3.546   6.617   8.562  2.1248  1.9539 -1.3382
    1SAPS  H15Y  123   3.531   6.790   8.589  1.3639  0.3500 -1.0236
    1SAPS  C316  124   3.420   6.708   8.407  0.4368  0.2763 -0.8732
    1SAPS  H16X  125   3.366   6.803   8.392 -1.0725 -0.6060 -1.1820
    1SAPS  H16Y  126   3.348   6.624   8.400  0.1703  0.4085  0.1183
    1SAPS  C317  127   3.530   6.701   8.303  0.7016  0.0013 -0.5456
    1SAPS  H17X  128   3.600   6.632   8.355 -0.2702  1.7708  3.5603
    1SAPS  H17Y  129   3.577   6.802   8.309  0.9849 -0.1786  0.4804
    1SAPS  C318  130   3.470   6.669   8.172 -0.2283 -0.6285  0.2116
    1SAPS  H18X  131   3.413   6.754   8.127  2.1032 -0.0265 -1.8703
    1SAPS  H18Y  132   3.402   6.581   8.171 -0.6076 -0.4229 -2.7699
    1SAPS  H18Z  133   3.558   6.658   8.105  1.7571  1.3473  2.3258
    2SAPS     N  134   0.018   0.159  11.121 -0.1565 -0.7683  0.3466
    2SAPS   HN1  135   0.033   0.207  11.212 -0.6409  0.2462 -0.0968
    2SAPS   HN2  136   0.110   0.159  11.074 -0.9929  0.3981 -1.4178
    2SAPS   HN3  137  -0.032   0.233  11.068  0.0851 -0.6518  0.2805
    2SAPS   C12  138  -0.038   0.026  11.122 -0.2029 -0.5260 -0.3304
    2SAPS  H12A  139   0.029  -0.038  11.178  1.2158  1.7899  0.7718
    2SAPS   C13  140  -0.186   0.025  11.176 -0.1435 -0.3491 -0.0955
    2SAPS  O13A  141  -0.229   0.131  11.230  0.2551 -0.8742  0.3649
    2SAPS  O13B  142  -0.254  -0.079  11.169  0.1958 -0.2063  0.2315
    2SAPS   C11  143  -0.046  -0.034  10.980  0.6662  0.0161  1.1017
    2SAPS  H11A  144  -0.124   0.015  10.918  0.3914 -0.8499  0.7441
    2SAPS  H11B  145  -0.089  -0.136  10.980 -1.3957  0.8361  0.6789
    2SAPS     P  146   0.194  -0.129  10.963  0.0201  0.4878  0.5088
    2SAPS   O13  147   0.278  -0.088  11.073  0.3557 -0.1210  0.0259
    2SAPS   O14  148   0.118  -0.257  10.971 -0.2898 -0.2169 -0.4360
    2SAPS   O12  149   0.084  -0.024  10.929  0.4045  0.1455 -0.1181
    2SAPS   O11  150   0.284  -0.143  10.835 -0.2392 -1.0236 -0.0855
    2SAPS    C1  151   0.309  -0.036  10.753 -0.2294  0.3442  0.2325
    2SAPS    HA  152   0.215  -0.023  10.695 -0.2386  1.6093  0.5183
    2SAPS    HB  153   0.333   0.063  10.795 -0.2722  0.1404  0.7420
    2SAPS    C2  154   0.422  -0.071  10.653  0.1361 -0.2084 -0.0537
    2SAPS    HS  155   0.473   0.026  10.632 -0.5496  0.5618  1.6305
    2SAPS   O21  156   0.371  -0.147  10.542  0.1626  0.0383 -0.2730
    2SAPS   C21  157   0.428  -0.115  10.425 -0.5920  0.2233  0.2594
    2SAPS   O22  158   0.514  -0.030  10.416  0.0534 -0.5537 -0.0688
    2SAPS   C22  159   0.396  -0.211  10.315  0.1949  0.1186  0.7224
    2SAPS   H2R  160   0.374  -0.315  10.349 -0.5138  0.3575  1.0039
    2SAPS   H2S  161   0.298  -0.174  10.277 -0.5000 -0.3189  2.0319
    2SAPS    C3  162   0.532  -0.146  10.729  0.1888  0.2369  0.2295
    2SAPS    HX  163   0.486  -0.237  10.774  1.6504 -0.2709  0.7613
    2SAPS    HY  164   0.562  -0.092  10.821 -0.0627 -1.6566  1.4871
    2SAPS   O31  165   0.648  -0.188  10.650 -0.0631 -0.0388  0.6690
    2SAPS   C31  166   0.734  -0.080  10.638  0.2644  0.2426  0.5298
    2SAPS   O32  167   0.713   0.030  10.687 -0.1367 -0.1114 -0.0646
    2SAPS   C32  168   0.857  -0.132  10.555 -0.3112  0.0465  0.5268
    2SAPS   H2X  169   0.898  -0.225  10.600  0.6460  0.5011  0.6053
    2SAPS   H2Y  170   0.930  -0.050  10.567  1.1775 -0.9787 -1.0077
    2SAPS   C23  171   0.491  -0.213  10.192 -0.0355 -0.1705 -0.2090
    2SAPS   H3R  172   0.587  -0.237  10.242 -0.8271 -4.6755 -0.4676
    2SAPS   H3S  173   0.492  -0.117  10.135 -0.2224  0.8384  1.4449
    2SAPS   C24  174   0.456  -0.326  10.090 -0.1964 -0.1759 -0.7818
    2SAPS   H4R  175   0.486  -0.280   9.993 -1.5993  0.9427 -0.7190
    2SAPS   H4S  176   0.347  -0.318  10.071 -0.5248 -0.5723  0.7844
    2SAPS   C25  177   0.482  -0.472  10.125 -0.0641 -0.6017  0.1229
    2SAPS   H5R  178   0.412  -0.504  10.203  0.3438 -2.7374 -0.3250
    2SAPS   C26  179   0.575  -0.555  10.082  0.0467 -0.0398  0.2250
    2SAPS   H6R  180   0.584  -0.659  10.115 -0.7731  0.4657  2.1844
    2SAPS   C27  181   0.685  -0.518   9.980  0.2392  0.3830  0.6332
    2SAPS   H7R  182   0.768  -0.474  10.040  0.3541 -0.2711  0.9582
    2SAPS   H7S  183   0.654  -0.441   9.907  1.3384  0.2011 -0.0463
    2SAPS   C28  184   0.733  -0.640   9.903  0.5436  0.0473  0.6059
    2SAPS   H8R  185   0.821  -0.698   9.936  0.9427  0.0235 -0.4519
    2SAPS   C29  186   0.675  -0.674   9.787 -0.3512 -0.0166  0.5964
    2SAPS   H9R  187   0.718  -0.764   9.742  1.1713  0.1833  1.5907
    2SAPS  C210  188   0.565  -0.612   9.706  0.5395  0.3266  0.3202
    2SAPS  H10R  189   0.601  -0.611   9.600  1.4519 -0.4253  0.6076
    2SAPS  H10S  190   0.545  -0.507   9.736  0.6579 -0.1932  2.3544
    2SAPS  C211  191   0.434  -0.690   9.721 -0.2307  0.9542  0.1064
    2SAPS  H11R  192   0.390  -0.686   9.822  2.3754  3.1320  1.2923
    2SAPS  C212  193   0.370  -0.739   9.614 -0.0578 -0.2132  0.3799
    2SAPS  H12R  194   0.291  -0.809   9.644 -0.0214 -1.4165 -2.1504
    2SAPS  C213  195   0.413  -0.731   9.467  0.7411 -0.6612 -0.1557
    2SAPS  H13R  196   0.468  -0.636   9.450 -0.2078  0.3700  2.0773
    2SAPS  H13S  197   0.325  -0.742   9.401 -0.9215 -0.2091  1.8613
    2SAPS  C214  198   0.510  -0.837   9.435 -0.4474  0.7560  0.2420
    2SAPS  H14R  199   0.551  -0.892   9.521  0.4457  0.1625 -0.5501
    2SAPS  C215  200   0.565  -0.857   9.312 -0.4207 -0.2028  0.0680
    2SAPS  H15R  201   0.636  -0.939   9.291  0.8125  1.2555 -1.9781
    2SAPS  C216  202   0.532  -0.772   9.188  0.3024 -0.4721 -0.8206
    2SAPS  H16R  203   0.622  -0.744   9.130 -0.7972  1.4742 -1.6611
    2SAPS  H16S  204   0.492  -0.673   9.220  2.9595  0.7189 -0.9522
    2SAPS  C217  205   0.442  -0.844   9.081  0.5554 -0.1851  1.1539
    2SAPS  H17R  206   0.416  -0.791   8.987  2.7294 -2.4554 -0.8731
    2SAPS  H17S  207   0.345  -0.866   9.130 -0.8732  0.5688 -1.1514
    2SAPS  C218  208   0.498  -0.977   9.040 -0.7548 -0.2441 -0.6322
    2SAPS  H18R  209   0.489  -1.054   9.120 -1.7007  1.0640  0.5624
    2SAPS  H18S  210   0.605  -0.964   9.015 -0.2826 -1.0986  0.8213
    2SAPS  C219  211   0.452  -1.039   8.903  0.8532 -0.2658 -0.1784
    2SAPS  H19R  212   0.485  -0.970   8.823 -0.6309  1.3363  0.5216
    2SAPS  H19S  213   0.341  -1.049   8.901  0.7854  0.5521 -1.1306
    2SAPS  C220  214   0.507  -1.179   8.876 -0.7362  0.3176 -0.2592
    2SAPS  H20R  215   0.438  -1.240   8.814  0.8037 -1.9432  0.1370
    2SAPS  H20S  216   0.519  -1.237   8.969  1.8087 -1.3173 -1.5113
    2SAPS  H20T  217   0.611  -1.180   8.837 -0.4403  0.5058  0.5147
    2SAPS   C33  218   0.813  -0.166  10.410  0.0358 -0.0860  0.3026
    2SAPS   H3X  219   0.766  -0.076  10.364  1.2480 -0.2786 -1.3973
    2SAPS   H3Y  220   0.750  -0.258  10.405 -0.1073 -0.0176  0.8462
    2SAPS   C34  221   0.948  -0.202  10.330 -0.0688  0.6503  0.3553
    2SAPS   H4X  222   0.997  -0.273  10.400 -0.4104  2.7018  2.8194
    2SAPS   H4Y  223   1.010  -0.111  10.335  1.2686 -0.0557 -1.8598
    2SAPS   C35  224   0.936  -0.260  10.193  0.3293  0.1101 -0.3921
    2SAPS   H5X  225   0.902  -0.366  10.198 -0.0514  0.2267 -0.4782
    2SAPS   H5Y  226   1.040  -0.268  10.155  0.6819 -0.2584  0.6243
    2SAPS   C36  227   0.864  -0.179  10.084  0.3382 -0.5085 -0.5300
    2SAPS   H6X  228   0.885  -0.073  10.106 -0.7454 -0.4245  0.1967
    2SAPS   H6Y  229   0.757  -0.209  10.092  0.5142 -1.1675 -0.5770
    2SAPS   C37  230   0.913  -0.231   9.942  0.9418  0.0071  0.1479
    2SAPS   H7X  231   0.878  -0.334   9.921  1.0423  0.3749 -1.9637
    2SAPS   H7Y  232   1.024  -0.234   9.933  0.8343 -1.8160 -0.9137
    2SAPS   C38  233   0.849  -0.144   9.841 -0.2832  0.2166 -0.2048
    2SAPS   H8X  234   0.892  -0.042   9.851 -0.0998  0.0472  0.9509
    2SAPS   H8Y  235   0.740  -0.149   9.862 -0.3566  2.7393  0.3086
    2SAPS   C39  236   0.878  -0.199   9.700  0.0984  0.3117  1.0019
    2SAPS   H9X  237   0.854  -0.306   9.678  0.6505  0.3830  0.0330
    2SAPS   H9Y  238   0.988  -0.190   9.693  0.3363 -0.5411  2.9379
    2SAPS  C310  239   0.806  -0.124   9.586 -1.1752  0.2280 -0.3208
    2SAPS  H10X  240   0.829  -0.017   9.606 -0.5292 -0.1741  1.2463
    2SAPS  H10Y  241   0.698  -0.152   9.584 -1.2828  0.4682  0.8863
    2SAPS  C311  242   0.862  -0.166   9.442 -0.1259 -0.7772 -0.1332
    2SAPS  H11X  243   0.804  -0.259   9.423 -0.4975 -0.5273 -0.2484
    2SAPS  H11Y  244   0.968  -0.194   9.458 -0.4486 -1.8693  0.1692
    2SAPS  C312  245   0.837  -0.065   9.335 -0.5634 -0.0945  0.1831
    2SAPS  H12X  246   0.889   0.025   9.375  0.1086 -0.6819  0.6581
    2SAPS  H12Y  247   0.731  -0.033   9.318 -0.7357 -1.1734 -0.8814
    2SAPS  C313  248   0.892  -0.105   9.197  0.2609  0.4305  0.1925
    2SAPS  H13X  249   0.848  -0.197   9.154 -2.9498  1.5522  0.8111
    2SAPS  H13Y  250   1.001  -0.117   9.219  0.4536 -1.2436 -1.4198
    2SAPS  C314  251   0.877   0.009   9.098 -0.6063 -0.0925  0.1379
    2SAPS  H14X  252   0.929   0.091   9.152 -0.4863 -0.7946  1.1120
    2SAPS  H14Y  253   0.770   0.036   9.086 -0.6860 -0.9695 -1.4794
    2SAPS  C315  254   0.949  -0.014   8.966  0.7439 -0.6183  0.3130
    2SAPS  H15X  255   1.060  -0.010   8.970  1.0155  1.5200 -3.5125
    2SAPS  H15Y  256   0.914   0.067   8.898  1.5551  0.2621  0.9255
    2SAPS  C316  257   0.897  -0.135   8.898  0.1923  0.3828 -0.5097
    2SAPS  H16X  258   0.787  -0.133   8.912  0.0609 -0.1514 -1.3265
    2SAPS  H16Y  259   0.941  -0.229   8.939 -0.1356 -0.4150 -1.9203
    2SAPS  C317  260   0.907  -0.149   8.744 -0.4697  0.4171  0.5423
    2SAPS  H17X  261   1.010  -0.111   8.729 -1.4118  3.4094  1.0509
    2SAPS  H17Y  262   0.848  -0.070   8.693 -0.0531 -0.5514 -1.5389
    2SAPS  C318  263   0.891  -0.295   8.699 -0.3573 -0.9136  0.3918
    2SAPS  H18X  264   0.891  -0.313   8.589  1.2398  0.0379  0.2059
    2SAPS  H18Y  265   0.796  -0.330   8.746  0.1316 -0.3121  1.9043
    2SAPS  H18Z  266   0.979  -0.350   8.738 -0.7226 -1.3915  0.5610
    3SAPS     N  267   0.036   3.221  10.985 -0.4582  0.6547  0.2218
    3SAPS   HN1  268  -0.036   3.149  10.971 -0.1189  0.1627  0.9558
    3SAPS   HN2  269   0.011   3.322  10.973  0.2354  0.9003  0.7353
    3SAPS   HN3  270   0.116   3.200  10.922  0.1472  0.5193  1.0098
    3SAPS   C12  271   0.095   3.203  11.122 -0.6436  0.6599  0.3062
    3SAPS  H12A  272   0.186   3.260  11.128 -0.0148 -0.1537 -1.0540
    3SAPS   C13  273   0.005   3.251  11.242  0.3750  0.4872  0.6151
    3SAPS  O13A  274  -0.097   3.313  11.208 -0.1777  0.1919  0.5527
    3SAPS  O13B  275   0.062   3.273  11.346 -0.5604  0.3734  0.0054
    3SAPS   C11  276   0.127   3.047  11.142 -0.0799  0.0327 -0.3576
    3SAPS  H11A  277   0.034   2.988  11.152 -0.2455  0.5464  1.5597
    3SAPS  H11B  278   0.167   3.038  11.245 -0.9955 -1.0678 -0.0755
    3SAPS     P  279   0.257   2.836  11.072 -0.2966  0.2058  0.0474
    3SAPS   O13  280   0.367   2.843  11.172 -0.0233  0.0895 -0.3681
    3SAPS   O14  281   0.147   2.739  11.091 -0.5294  0.2024  0.1040
    3SAPS   O12  282   0.206   2.985  11.048 -0.2574  0.4304  0.0297
    3SAPS   O11  283   0.318   2.803  10.932  0.1052  0.0757 -0.2968
    3SAPS    C1  284   0.267   2.852  10.806  0.3760 -0.1976  0.5025
    3SAPS    HA  285   0.204   2.942  10.825  1.6846  0.6114  1.1238
    3SAPS    HB  286   0.349   2.884  10.738 -0.0505 -0.1342  0.0078
    3SAPS    C2  287   0.197   2.744  10.715  0.0622 -0.4221 -0.4605
    3SAPS    HS  288   0.169   2.672  10.796 -1.1444  1.2879  0.7101
    3SAPS   O21  289   0.297   2.690  10.614 -0.0274  0.3685 -1.0913
    3SAPS   C21  290   0.265   2.572  10.566 -0.4620  0.1825  0.2871
    3SAPS   O22  291   0.163   2.511  10.590  0.5239 -0.0513 -0.3142
    3SAPS   C22  292   0.367   2.528  10.460 -0.3145  0.2451  0.2381
    3SAPS   H2R  293   0.382   2.604  10.381  1.8913 -1.0449 -0.6548
    3SAPS   H2S  294   0.468   2.521  10.504  0.3591  0.9216 -1.1391
    3SAPS    C3  295   0.064   2.789  10.642  0.4231  0.7319 -0.9800
    3SAPS    HX  296   0.005   2.854  10.711  0.1013  0.4989 -1.0326
    3SAPS    HY  297  -0.002   2.700  10.632 -2.3630  2.4265  1.0376
    3SAPS   O31  298   0.086   2.841  10.513  0.4525 -0.2443  0.1091
    3SAPS   C31  299   0.125   2.967  10.512 -0.2122  0.1791 -0.1166
    3SAPS   O32  300   0.141   3.040  10.608 -0.2416 -0.5400  0.4412
    3SAPS   C32  301   0.179   3.010  10.382  0.0567  0.3904 -0.0389
    3SAPS   H2X  302   0.286   2.983  10.386 -0.0765 -0.2006 -0.2615
    3SAPS   H2Y  303   0.178   3.120  10.371  0.3541  0.3004 -1.0508
    3SAPS   C23  304   0.325   2.395  10.393  0.2757  0.3883  0.5322
    3SAPS   H3R  305   0.295   2.316  10.464  0.4217 -0.9882 -0.8868
    3SAPS   H3S  306   0.412   2.349  10.341 -0.2962 -0.7637  0.5646
    3SAPS   C24  307   0.226   2.414  10.279  0.5528  0.1327 -0.5423
    3SAPS   H4R  308   0.274   2.492  10.216  0.8152  0.5730  0.1940
    3SAPS   H4S  309   0.141   2.470  10.324  1.1851 -1.0325  2.3012
    3SAPS   C25  310   0.168   2.295  10.199 -0.0970 -0.4754  0.4984
    3SAPS   H5R  311   0.115   2.218  10.256 -1.6518  0.0127 -0.2265
    3SAPS   C26  312   0.188   2.275  10.066 -0.2784 -0.0643  0.0422
    3SAPS   H6R  313   0.131   2.194  10.018  1.6410 -0.2847 -2.0226
    3SAPS   C27  314   0.259   2.370   9.974  0.2139 -0.3349 -0.0343
    3SAPS   H7R  315   0.343   2.420  10.028 -0.4950 -0.5343  1.3067
    3SAPS   H7S  316   0.182   2.445   9.946  0.1718  0.0662  1.0755
    3SAPS   C28  317   0.325   2.308   9.854 -1.3187 -0.6976 -0.2793
    3SAPS   H8R  318   0.431   2.281   9.861 -1.2700 -0.7059 -1.0060
    3SAPS   C29  319   0.262   2.287   9.734  0.1026  0.0551 -0.2459
    3SAPS   H9R  320   0.332   2.255   9.655  0.8152  0.9318  0.0126
    3SAPS  C210  321   0.122   2.327   9.687  0.2080  0.2749  0.9862
    3SAPS  H10R  322   0.132   2.365   9.583  1.5102  1.9346  1.6828
    3SAPS  H10S  323   0.084   2.413   9.746 -1.0836 -0.1933  0.8633
    3SAPS  C211  324   0.024   2.211   9.696  0.9937 -0.2054 -0.5860
    3SAPS  H11R  325   0.056   2.142   9.775  0.0167  0.1863  0.1666
    3SAPS  C212  326  -0.077   2.191   9.615  0.0328  0.0669  0.0543
    3SAPS  H12R  327  -0.145   2.106   9.632  1.4466 -1.0320  0.4165
    3SAPS  C213  328  -0.115   2.289   9.504  0.4630 -0.4494  0.3872
    3SAPS  H13R  329  -0.042   2.370   9.483 -0.0382 -0.6279 -2.5017
    3SAPS  H13S  330  -0.211   2.337   9.532 -0.2394 -0.5170 -1.7077
    3SAPS  C214  331  -0.123   2.207   9.374  0.4374  0.1907 -0.2254
    3SAPS  H14R  332  -0.030   2.182   9.322  0.4539  0.6382 -0.4167
    3SAPS  C215  333  -0.234   2.172   9.309 -0.0174  0.2520  0.2107
    3SAPS  H15R  334  -0.229   2.102   9.224 -0.5849  0.5273 -0.0580
    3SAPS  C216  335  -0.376   2.193   9.341 -0.2887  0.1361 -0.5732
    3SAPS  H16R  336  -0.433   2.200   9.246 -0.3198  0.1494 -0.5542
    3SAPS  H16S  337  -0.399   2.292   9.387 -1.7360 -0.5431  0.2251
    3SAPS  C217  338  -0.429   2.079   9.433 -0.5257 -0.4111  0.5712
    3SAPS  H17R  339  -0.369   2.054   9.523  0.8483 -1.0119 -0.4722
    3SAPS  H17S  340  -0.438   1.978   9.386  2.2966 -1.3076  1.7330
    3SAPS  C218  341  -0.569   2.110   9.496  0.3059  0.0923  0.1217
    3SAPS  H18R  342  -0.643   2.040   9.452 -1.0385  0.6374  1.4241
    3SAPS  H18S  343  -0.606   2.208   9.461 -3.6245 -1.6563 -1.1204
    3SAPS  C219  344  -0.561   2.100   9.649 -0.2306 -0.1389 -0.2330
    3SAPS  H19R  345  -0.520   2.001   9.681 -1.2655  0.0345  1.7424
    3SAPS  H19S  346  -0.663   2.115   9.689 -0.1798  0.3590 -0.2851
    3SAPS  C220  347  -0.471   2.206   9.718  0.0349  0.4509 -0.5593
    3SAPS  H20R  348  -0.458   2.185   9.826  1.6593  0.0343 -0.8207
    3SAPS  H20S  349  -0.523   2.304   9.706  0.0945  0.6253  0.5535
    3SAPS  H20T  350  -0.367   2.214   9.680  0.0110  1.2516 -0.4689
    3SAPS   C33  351   0.116   2.956  10.249 -0.5632  0.1230 -0.3125
    3SAPS   H3X  352   0.139   3.025  10.166  0.7284 -1.6494 -1.4843
    3SAPS   H3Y  353   0.008   2.934  10.266  0.3001 -2.8996  2.2577
    3SAPS   C34  354   0.207   2.828  10.217 -0.1434  0.8829 -0.2451
    3SAPS   H4X  355   0.211   2.762  10.307 -0.3204 -0.6171 -1.2970
    3SAPS   H4Y  356   0.311   2.866  10.207  0.9669 -1.5606  0.9565
    3SAPS   C35  357   0.173   2.742  10.097 -0.0555 -0.0353  0.3321
    3SAPS   H5X  358   0.076   2.689  10.105  1.2090 -2.5180  0.5578
    3SAPS   H5Y  359   0.251   2.663  10.088 -2.1158 -2.1406 -0.1099
    3SAPS   C36  360   0.183   2.830   9.973  0.2051  0.0996  0.2481
    3SAPS   H6X  361   0.277   2.888   9.981 -0.7525  1.5422  1.4839
    3SAPS   H6Y  362   0.110   2.913   9.981  0.3867  0.6759 -2.9058
    3SAPS   C37  363   0.158   2.754   9.839  0.8705 -0.0127 -0.3933
    3SAPS   H7X  364   0.051   2.724   9.835  1.3298 -1.9639  0.5917
    3SAPS   H7Y  365   0.230   2.669   9.834 -1.7360 -2.3303 -0.5722
    3SAPS   C38  366   0.188   2.833   9.715  0.9306 -0.2292  0.2094
    3SAPS   H8X  367   0.296   2.853   9.732  0.6485 -0.0089  1.8765
    3SAPS   H8Y  368   0.131   2.928   9.704 -0.6168 -1.1174  0.2186
    3SAPS   C39  369   0.165   2.748   9.584  0.4634  0.1374  0.1161
    3SAPS   H9X  370   0.063   2.705   9.585  0.1942  0.7509 -0.2094
    3SAPS   H9Y  371   0.230   2.658   9.589 -0.8829 -0.8664  0.0640
    3SAPS  C310  372   0.184   2.823   9.454  0.4708  0.9184 -0.6487
    3SAPS  H10X  373   0.292   2.849   9.463  0.7752 -0.6524  0.6846
    3SAPS  H10Y  374   0.118   2.912   9.457  1.2014  1.4570  0.5366
    3SAPS  C311  375   0.146   2.739   9.332  0.5411 -0.7439  0.2815
    3SAPS  H11X  376   0.228   2.666   9.315  2.4266  0.7624  2.3215
    3SAPS  H11Y  377   0.155   2.807   9.245 -0.2287 -0.3277  0.5200
    3SAPS  C312  378   0.006   2.669   9.346  0.4757 -0.3597  0.1320
    3SAPS  H12X  379  -0.069   2.742   9.383 -0.0053 -1.1232  0.6929
    3SAPS  H12Y  380  -0.005   2.586   9.418  2.7959 -3.0056 -2.3518
    3SAPS  C313  381  -0.047   2.617   9.208  0.2455 -0.2184 -0.2066
    3SAPS  H13X  382   0.039   2.560   9.168 -0.0218 -0.4074 -0.5117
    3SAPS  H13Y  383  -0.067   2.700   9.138 -0.0307 -1.0236 -1.1006
    3SAPS  C314  384  -0.174   2.527   9.212  0.1699 -0.1391  0.0394
    3SAPS  H14X  385  -0.252   2.563   9.281  0.1060 -0.3549  0.0807
    3SAPS  H14Y  386  -0.134   2.433   9.255  1.5426  1.3103  2.1132
    3SAPS  C315  387  -0.240   2.496   9.071 -0.6763  0.6051 -0.4756
    3SAPS  H15X  388  -0.294   2.580   9.023 -2.4834 -0.2816 -0.0764
    3SAPS  H15Y  389  -0.310   2.412   9.088  0.8518 -0.6157 -0.0141
    3SAPS  C316  390  -0.133   2.442   8.971  0.0585 -0.1168 -0.0219
    3SAPS  H16X  391  -0.067   2.367   9.020 -2.4096 -1.2014  1.8086
    3SAPS  H16Y  392  -0.072   2.516   8.915  0.7393  0.1378  1.0290
    3SAPS  C317  393  -0.200   2.366   8.863  0.2765  0.7503  0.0832
    3SAPS  H17X  394  -0.296   2.416   8.837  0.2313 -0.0183 -1.3247
    3SAPS  H17Y  395  -0.230   2.269   8.909 -1.7938  1.3624  0.1567
    3SAPS  C318  396  -0.119   2.354   8.732  0.2890 -0.4186  0.3751
    3SAPS  H18X  397  -0.035   2.285   8.753 -0.4812 -1.1951  0.9983
    3SAPS  H18Y  398  -0.092   2.452   8.686 -1.2750  0.7656  1.8073
    3SAPS  H18Z  399  -0.188   2.313   8.656  0.6998  0.5110 -0.5311
    4SAPS     N  400   4.084   5.115  10.968  0.6926 -0.4726 -0.5774
    4SAPS   HN1  401   4.099   5.015  10.995  1.6742  0.3784  2.3459
    4SAPS   HN2  402   4.005   5.148  11.027  2.7638 -0.0122  2.1703
    4SAPS   HN3  403   4.061   5.123  10.867  0.4037  2.1219 -0.3692
    4SAPS   C12  404   4.197   5.198  11.015 -0.1552 -0.2275  0.0170
    4SAPS  H12A  405   4.153   5.296  11.017  3.8321  1.7615 -0.0598
    4SAPS   C13  406   4.253   5.175  11.160  0.0379 -0.1508 -0.2306
    4SAPS  O13A  407   4.201   5.106  11.246  0.7762  0.6452  0.4241
    4SAPS  O13B  408   4.354   5.253  11.177  0.4945  0.1671 -0.5786
    4SAPS   C11  409   4.303   5.182  10.893  0.0636  0.4265 -0.0590
    4SAPS  H11A  410   4.391   5.243  10.925 -0.2570  0.9160 -0.0884
    4SAPS  H11B  411   4.251   5.220  10.802  0.9889  2.0684  0.0478
    4SAPS     P  412   4.475   5.021  10.789 -0.1745 -0.4465  0.0589
    4SAPS   O13  413   4.574   5.028  10.897  0.1635 -0.4447 -0.1661
    4SAPS   O14  414   4.481   4.897  10.705 -0.1257  0.3610  0.0585
    4SAPS   O12  415   4.334   5.050  10.860 -0.5944 -0.5330  0.4511
    4SAPS   O11  416   4.487   5.153  10.696  0.5239 -0.1613  0.1542
    4SAPS    C1  417   4.587   5.147  10.590 -0.0695 -0.6027  0.6950
    4SAPS    HA  418   4.679   5.203  10.617 -0.1167  0.0448 -0.4270
    4SAPS    HB  419   4.617   5.044  10.563  0.7047 -0.2212  0.0767
    4SAPS    C2  420   4.520   5.202  10.461 -0.6095 -0.5759  0.1849
    4SAPS    HS  421   4.467   5.297  10.484  2.0097  1.3462 -1.0383
    4SAPS   O21  422   4.442   5.101  10.397 -0.2518 -0.9589  0.4294
    4SAPS   C21  423   4.321   5.094  10.434 -0.5259 -0.3600 -0.2849
    4SAPS   O22  424   4.265   5.169  10.513 -0.5381  0.6668 -0.3413
    4SAPS   C22  425   4.257   4.980  10.358 -0.4603  0.2291 -0.7071
    4SAPS   H2R  426   4.166   5.020  10.309 -1.6348  0.5958  1.6222
    4SAPS   H2S  427   4.327   4.930  10.287  0.4601  0.1212  0.2377
    4SAPS    C3  428   4.635   5.240  10.362 -0.5904  0.4515  0.3177
    4SAPS    HX  429   4.703   5.152  10.369  1.7087  2.0855 -0.2412
    4SAPS    HY  430   4.689   5.329  10.401  0.3196 -0.2847  0.7690
    4SAPS   O31  431   4.591   5.273  10.231 -0.4671 -0.3382 -0.2967
    4SAPS   C31  432   4.617   5.199  10.133 -0.1245  0.3302  1.0144
    4SAPS   O32  433   4.686   5.097  10.132 -0.2886 -0.1510 -0.3945
    4SAPS   C32  434   4.561   5.264  10.003 -0.2114 -0.0073 -0.2746
    4SAPS   H2X  435   4.645   5.310   9.947  0.9701  0.5987  1.8725
    4SAPS   H2Y  436   4.492   5.347  10.029  1.2929  1.4447 -0.7780
    4SAPS   C23  437   4.206   4.867  10.449 -0.0876 -0.1193 -0.0960
    4SAPS   H3R  438   4.132   4.917  10.514  0.5256 -1.0006  1.3271
    4SAPS   H3S  439   4.275   4.822  10.524  0.7902 -0.4930 -1.1039
    4SAPS   C24  440   4.131   4.767  10.369  0.2159 -0.2452  0.4847
    4SAPS   H4R  441   4.055   4.816  10.304 -1.1421  1.7008  3.3440
    4SAPS   H4S  442   4.062   4.701  10.425 -0.8470 -1.5792 -2.2375
    4SAPS   C25  443   4.229   4.669  10.301  0.1384 -0.5176 -0.5322
    4SAPS   H5R  444   4.268   4.587  10.364 -0.3399 -0.6437 -0.3950
    4SAPS   C26  445   4.262   4.674  10.169  0.9101  0.2677 -0.4638
    4SAPS   H6R  446   4.341   4.610  10.126 -0.4890 -0.2869 -2.3625
    4SAPS   C27  447   4.215   4.774  10.066  0.1916  0.0254 -0.3176
    4SAPS   H7R  448   4.164   4.865  10.105  2.0265  1.3975 -0.9809
    4SAPS   H7S  449   4.137   4.724  10.006 -1.5938  1.7828  0.4217
    4SAPS   C28  450   4.337   4.817   9.991 -0.3247  0.2949 -0.2521
    4SAPS   H8R  451   4.422   4.847  10.053 -0.6496 -1.4906  1.1526
    4SAPS   C29  452   4.348   4.832   9.861  0.3577 -0.3916  0.8493
    4SAPS   H9R  453   4.445   4.855   9.814  1.0400 -2.7759  0.9370
    4SAPS  C210  454   4.223   4.805   9.773  0.8497 -0.8889  0.0770
    4SAPS  H10R  455   4.134   4.835   9.831  0.9889  1.3770 -0.8038
    4SAPS  H10S  456   4.217   4.695   9.758 -1.1262 -1.0568  1.6664
    4SAPS  C211  457   4.210   4.876   9.641  0.1747 -0.0925  0.7142
    4SAPS  H11R  458   4.115   4.932   9.630  0.2550 -0.0291  0.3460
    4SAPS  C212  459   4.299   4.855   9.538 -0.2819 -0.7521  0.5024
    4SAPS  H12R  460   4.292   4.916   9.447 -0.3099  0.3929  1.2415
    4SAPS  C213  461   4.424   4.773   9.542 -0.4834 -1.2274 -0.0430
    4SAPS  H13R  462   4.416   4.694   9.464 -0.1165 -0.8379 -0.4779
    4SAPS  H13S  463   4.434   4.712   9.634 -0.4617 -0.9867  0.1157
    4SAPS  C214  464   4.542   4.868   9.514 -0.3763  0.4507 -0.1486
    4SAPS  H14R  465   4.583   4.922   9.601  2.5311 -0.3780 -0.8892
    4SAPS  C215  466   4.590   4.902   9.393  0.2311  0.5258  0.5590
    4SAPS  H15R  467   4.679   4.967   9.391  0.0439  0.7611 -0.7517
    4SAPS  C216  468   4.535   4.843   9.269  0.0195  0.3540  0.3701
    4SAPS  H16R  469   4.452   4.769   9.273  1.7548 -1.6174  1.2192
    4SAPS  H16S  470   4.618   4.782   9.228 -1.5652 -1.9998  0.4680
    4SAPS  C217  471   4.503   4.943   9.164 -0.0735  0.3246 -0.4698
    4SAPS  H17R  472   4.595   4.958   9.103  0.3618 -0.7819 -0.1091
    4SAPS  H17S  473   4.467   5.039   9.208 -1.0409  0.8569 -2.2967
    4SAPS  C218  474   4.388   4.908   9.060 -0.3746 -0.7622 -0.4359
    4SAPS  H18R  475   4.294   4.900   9.119 -0.0712  0.9420  0.3331
    4SAPS  H18S  476   4.421   4.815   9.008  2.0271  0.6980 -1.7062
    4SAPS  C219  477   4.359   5.010   8.950 -0.0510  0.2383  0.3561
    4SAPS  H19R  478   4.336   5.111   8.992  2.2420  0.8646  0.2184
    4SAPS  H19S  479   4.276   4.969   8.890  0.1272  0.1529  0.1691
    4SAPS  C220  480   4.479   5.030   8.857  0.6696 -0.2021  0.2974
    4SAPS  H20R  481   4.530   4.934   8.834 -1.6269 -1.1280 -1.3458
    4SAPS  H20S  482   4.548   5.102   8.905  0.9104  0.0058 -0.3413
    4SAPS  H20T  483   4.439   5.079   8.765  1.5295  1.4700  0.7637
    4SAPS   C33  484   4.481   5.162   9.918 -0.0373 -0.1734  0.1189
    4SAPS   H3X  485   4.405   5.108   9.978  0.9685 -1.7810  0.0230
    4SAPS   H3Y  486   4.553   5.083   9.885  1.1504 -0.1308  2.3972
    4SAPS   C34  487   4.425   5.217   9.788 -0.2839 -0.1296 -0.2697
    4SAPS   H4X  488   4.348   5.294   9.811 -0.2816  0.0343 -0.7886
    4SAPS   H4Y  489   4.368   5.135   9.739  4.1940 -2.8362 -1.5357
    4SAPS   C35  490   4.520   5.286   9.690  0.0350 -0.3869 -0.0534
    4SAPS   H5X  491   4.597   5.215   9.654  0.9960  0.1408  0.8963
    4SAPS   H5Y  492   4.574   5.369   9.740 -0.4883  1.4366 -2.3104
    4SAPS   C36  493   4.446   5.363   9.579 -0.7077 -0.4523  0.6887
    4SAPS   H6X  494   4.525   5.407   9.516 -2.6414  0.7814 -0.9778
    4SAPS   H6Y  495   4.403   5.447   9.637 -0.6705 -0.2566  0.4313
    4SAPS   C37  496   4.345   5.283   9.498  0.2321 -0.0532 -0.1639
    4SAPS   H7X  497   4.272   5.245   9.572  1.9712  0.1285  1.7110
    4SAPS   H7Y  498   4.391   5.193   9.452 -3.2086 -1.0229 -2.0246
    4SAPS   C38  499   4.276   5.362   9.389  0.3549  0.4431  0.1743
    4SAPS   H8X  500   4.364   5.417   9.348  0.8658 -0.7541 -0.3631
    4SAPS   H8Y  501   4.205   5.439   9.426 -0.1150  0.3933 -0.6082
    4SAPS   C39  502   4.218   5.274   9.282  0.7792  0.0758 -0.3858
    4SAPS   H9X  503   4.141   5.205   9.322  0.2388  1.2493  0.6678
    4SAPS   H9Y  504   4.302   5.220   9.233  0.4470  0.8746 -1.8841
    4SAPS  C310  505   4.150   5.371   9.181  0.4099 -0.4876  0.1635
    4SAPS  H10X  506   4.139   5.477   9.213  2.9866  0.3357 -1.3657
    4SAPS  H10Y  507   4.046   5.334   9.166  0.3152 -1.0084  1.8574
    4SAPS  C311  508   4.216   5.361   9.043  0.6279  0.3239  0.5195
    4SAPS  H11X  509   4.192   5.259   9.006 -1.1601  0.1230  2.0958
    4SAPS  H11Y  510   4.326   5.367   9.059  1.1972  0.4404 -2.8143
    4SAPS  C312  511   4.167   5.470   8.952 -0.0321  0.1872  0.2102
    4SAPS  H12X  512   4.179   5.568   9.003  1.4137  0.3125 -0.3159
    4SAPS  H12Y  513   4.059   5.456   8.930 -0.5915  0.6398  2.4164
    4SAPS  C313  514   4.259   5.464   8.821 -0.3253  0.1844 -0.5121
    4SAPS  H13X  515   4.368   5.461   8.840 -0.0276  0.2662 -2.0649
    4SAPS  H13Y  516   4.241   5.553   8.758 -1.3204  0.4862  0.1840
    4SAPS  C314  517   4.230   5.339   8.736 -0.1733 -0.0070  0.2685
    4SAPS  H14X  518   4.124   5.311   8.717  0.1409  0.2615 -2.1448
    4SAPS  H14Y  519   4.260   5.252   8.799 -1.7419 -1.8127 -1.3602
    4SAPS  C315  520   4.316   5.326   8.602 -0.0772 -0.0180 -0.2226
    4SAPS  H15X  521   4.339   5.220   8.577  2.2896  0.5754 -0.8151
    4SAPS  H15Y  522   4.414   5.371   8.627  0.0120 -0.1937 -0.2487
    4SAPS  C316  523   4.243   5.388   8.480 -0.2666  0.1913  0.3623
    4SAPS  H16X  524   4.196   5.480   8.519 -1.0196  0.1689 -0.4466
    4SAPS  H16Y  525   4.161   5.322   8.444 -0.0140 -0.4432  0.9303
    4SAPS  C317  526   4.336   5.429   8.362 -0.2705 -0.4203 -0.2911
    4SAPS  H17X  527   4.344   5.347   8.287  2.5486  0.0864 -0.6637
    4SAPS  H17Y  528   4.431   5.445   8.418 -1.0929  0.0588  0.9947
    4SAPS  C318  529   4.302   5.561   8.291 -0.2570  0.1333 -0.3919
    4SAPS  H18X  530   4.380   5.579   8.214 -0.9789 -1.0352 -1.4387
    4SAPS  H18Y  531   4.308   5.637   8.371  0.6485  0.9151 -1.1879
    4SAPS  H18Z  532   4.202   5.545   8.244 -1.2639  1.7098  1.0610
    5SAPS     N  533   0.909   0.425  11.057 -1.2642 -0.3115 -0.4923
    5SAPS   HN1  534   0.924   0.527  11.069  1.2266 -0.9145  2.6181
    5SAPS   HN2  535   0.903   0.405  10.955  0.0542 -0.2932 -0.5839
    5SAPS   HN3  536   0.824   0.401  11.111 -2.0871 -0.2989 -1.7333
    5SAPS   C12  537   1.036   0.360  11.113  0.0169 -0.4605 -0.3532
    5SAPS  H12A  538   1.058   0.405  11.209 -0.5508  0.4567 -0.6393
    5SAPS   C13  539   1.015   0.206  11.149 -0.4074  0.0372 -0.4420
    5SAPS  O13A  540   0.901   0.170  11.118 -0.0568 -0.0877 -0.1876
    5SAPS  O13B  541   1.099   0.139  11.209 -0.1410 -0.9698 -0.0114
    5SAPS   C11  542   1.160   0.389  11.018 -0.0251 -0.6071 -0.3392
    5SAPS  H11A  543   1.148   0.498  10.998 -2.9242 -0.9675 -0.9744
    5SAPS  H11B  544   1.141   0.330  10.926  1.4405  0.2222 -1.2129
    5SAPS     P  545   1.415   0.321  11.019 -0.2325  0.5440 -0.4336
    5SAPS   O13  546   1.503   0.442  11.026 -0.0506 -0.0101  0.1437
    5SAPS   O14  547   1.466   0.197  11.074  0.1760 -0.1683 -0.3659
    5SAPS   O12  548   1.277   0.353  11.088 -0.2235  0.2339  0.3805
    5SAPS   O11  549   1.370   0.301  10.865 -0.3735  0.4386 -0.5333
    5SAPS    C1  550   1.359   0.178  10.802  0.5987  0.2560 -0.1121
    5SAPS    HA  551   1.449   0.115  10.819  2.2052  1.5811 -2.8413
    5SAPS    HB  552   1.267   0.126  10.833 -0.4050  2.2316  0.3567
    5SAPS    C2  553   1.372   0.194  10.643  0.0366  0.3773  0.0068
    5SAPS    HS  554   1.395   0.095  10.598  0.4170  0.6577 -0.4338
    5SAPS   O21  555   1.471   0.290  10.611  0.3467  0.1462  0.1009
    5SAPS   C21  556   1.598   0.248  10.618  0.2385  0.1215  0.6835
    5SAPS   O22  557   1.637   0.140  10.654  0.3452  0.2528 -0.2252
    5SAPS   C22  558   1.688   0.357  10.559 -0.5695  0.3824 -0.2684
    5SAPS   H2R  559   1.626   0.447  10.543  2.0673  2.4829  0.6298
    5SAPS   H2S  560   1.757   0.385  10.641  0.3580  0.7544 -1.1561
    5SAPS    C3  561   1.241   0.232  10.570 -0.0929  0.1814  0.4958
    5SAPS    HX  562   1.196   0.316  10.627  0.2248  0.7396 -0.0556
    5SAPS    HY  563   1.168   0.151  10.591 -0.1169  0.5032  1.7475
    5SAPS   O31  564   1.266   0.263  10.432  0.3283  0.0623 -0.2170
    5SAPS   C31  565   1.244   0.168  10.346 -0.0419 -0.3712 -0.2083
    5SAPS   O32  566   1.216   0.053  10.383 -0.1334  0.0927  0.4066
    5SAPS   C32  567   1.265   0.213  10.202  0.1591 -0.6544  0.0175
    5SAPS   H2X  568   1.372   0.218  10.172 -0.3538  2.4257 -1.7072
    5SAPS   H2Y  569   1.223   0.316  10.208  0.6995 -0.5024  1.9857
    5SAPS   C23  570   1.749   0.294  10.432 -0.7766 -0.4715  0.5971
    5SAPS   H3R  571   1.805   0.204  10.464  0.6766  0.4419  0.7479
    5SAPS   H3S  572   1.817   0.370  10.388  1.1201 -3.3360 -1.8180
    5SAPS   C24  573   1.657   0.249  10.318  0.6751 -0.2592  0.4590
    5SAPS   H4R  574   1.611   0.156  10.359  2.3879 -0.5220  1.9095
    5SAPS   H4S  575   1.727   0.218  10.238  0.6370  1.1236 -0.1250
    5SAPS   C25  576   1.564   0.356  10.280 -0.2286 -0.1773 -0.4863
    5SAPS   H5R  577   1.483   0.382  10.350 -0.2118  1.9283 -1.1925
    5SAPS   C26  578   1.565   0.416  10.157 -0.2051  0.1221  0.3930
    5SAPS   H6R  579   1.479   0.480  10.131 -0.1120 -0.6000 -1.9894
    5SAPS   C27  580   1.653   0.393  10.039  0.3723  0.6972  0.3292
    5SAPS   H7R  581   1.756   0.382  10.079 -0.0136 -1.5859  0.8335
    5SAPS   H7S  582   1.642   0.480   9.970  0.1649 -0.3419 -1.0002
    5SAPS   C28  583   1.605   0.266   9.970  0.1004  0.2354  1.1521
    5SAPS   H8R  584   1.567   0.191  10.041 -1.2119  1.6822  2.0344
    5SAPS   C29  585   1.604   0.235   9.836  0.5282  0.4098  0.7075
    5SAPS   H9R  586   1.571   0.132   9.813  1.5881  0.3746 -0.8269
    5SAPS  C210  587   1.644   0.326   9.722 -0.1173 -0.3742  0.0679
    5SAPS  H10R  588   1.753   0.342   9.710 -0.0682 -0.2963  0.5922
    5SAPS  H10S  589   1.601   0.425   9.751  1.6707  0.0723  1.4043
    5SAPS  C211  590   1.592   0.291   9.581  0.2215  0.4659 -0.4771
    5SAPS  H11R  591   1.525   0.370   9.544  1.3030  0.4550 -2.6648
    5SAPS  C212  592   1.626   0.177   9.510  0.1085  0.3348  0.2934
    5SAPS  H12R  593   1.580   0.154   9.413 -0.2055  2.6636 -0.1612
    5SAPS  C213  594   1.724   0.070   9.567 -0.2695 -0.8917  0.1646
    5SAPS  H13R  595   1.669   0.007   9.640 -1.6390 -0.5793 -0.5656
    5SAPS  H13S  596   1.793   0.126   9.634 -2.2596  0.2847  1.3598
    5SAPS  C214  597   1.806  -0.019   9.473  0.6016 -0.1082 -0.2164
    5SAPS  H14R  598   1.760  -0.117   9.453  0.2408 -0.2587  1.2348
    5SAPS  C215  599   1.915   0.014   9.409  0.2796  0.2507 -0.1124
    5SAPS  H15R  600   1.970  -0.057   9.345 -1.2226 -2.5384  1.4818
    5SAPS  C216  601   1.977   0.155   9.417 -0.0598 -0.5133 -0.0539
    5SAPS  H16R  602   2.047   0.150   9.503 -0.4947 -2.6837  0.2234
    5SAPS  H16S  603   1.898   0.232   9.433  2.4805  2.8356 -2.2462
    5SAPS  C217  604   2.072   0.201   9.301  0.3894 -0.0118  0.0143
    5SAPS  H17R  605   2.169   0.149   9.315  0.0123 -0.4953  0.8741
    5SAPS  H17S  606   2.096   0.309   9.312  0.0192 -0.0877  1.7545
    5SAPS  C218  607   2.009   0.164   9.161  0.2328 -0.7430  0.6894
    5SAPS  H18R  608   2.002   0.055   9.140  0.1937 -0.6741  0.3433
    5SAPS  H18S  609   1.909   0.213   9.153  1.0497  0.7426 -0.9814
    5SAPS  C219  610   2.087   0.216   9.044  0.8688  0.9923 -0.1983
    5SAPS  H19R  611   2.036   0.176   8.954  1.0727  1.2742 -0.4452
    5SAPS  H19S  612   2.192   0.179   9.043  0.3477 -0.5382 -0.3490
    5SAPS  C220  613   2.094   0.373   9.027  0.5547 -0.1869 -0.4823
    5SAPS  H20R  614   2.152   0.414   9.113  2.4454 -2.5273 -0.5364
    5SAPS  H20S  615   1.994   0.421   9.023  1.0344  0.8683 -0.1592
    5SAPS  H20T  616   2.155   0.404   8.939  0.4287 -0.9759 -0.8545
    5SAPS   C33  617   1.180   0.144  10.096  0.4544 -0.4482 -0.0314
    5SAPS   H3X  618   1.214   0.203  10.009  3.7462 -1.5196  0.3991
    5SAPS   H3Y  619   1.073   0.158  10.122  0.6441 -0.3951  0.7309
    5SAPS   C34  620   1.229  -0.008  10.066  0.4519 -0.2151  0.1049
    5SAPS   H4X  621   1.152  -0.050   9.998 -0.2182 -0.4779  1.0068
    5SAPS   H4Y  622   1.218  -0.077  10.153  0.5804 -2.6012 -1.6789
    5SAPS   C35  623   1.355  -0.028   9.980 -1.1704  0.2739  0.2029
    5SAPS   H5X  624   1.450   0.006  10.026 -0.3866  0.8777 -1.7870
    5SAPS   H5Y  625   1.341   0.032   9.887 -0.7943 -0.1203 -0.1100
    5SAPS   C36  626   1.373  -0.175   9.940  0.2161  0.0389  0.4637
    5SAPS   H6X  627   1.271  -0.217   9.926  0.7616 -1.0007 -0.6292
    5SAPS   H6Y  628   1.432  -0.231  10.015 -1.1951 -0.5949  1.1268
    5SAPS   C37  629   1.445  -0.178   9.807 -0.3524 -0.0114  0.2219
    5SAPS   H7X  630   1.544  -0.129   9.812 -0.7882  0.7630  1.8878
    5SAPS   H7Y  631   1.375  -0.131   9.735 -0.6800  0.0321  0.5633
    5SAPS   C38  632   1.482  -0.312   9.754 -0.1476 -0.8190 -0.1761
    5SAPS   H8X  633   1.397  -0.378   9.728  1.4827 -2.6049 -1.3044
    5SAPS   H8Y  634   1.548  -0.358   9.831  2.1613 -0.4170 -1.8100
    5SAPS   C39  635   1.570  -0.309   9.626 -0.0121 -0.6306  0.1577
    5SAPS   H9X  636   1.632  -0.400   9.638 -0.3274 -0.5654  2.8504
    5SAPS   H9Y  637   1.642  -0.225   9.631  0.2908 -0.8636 -0.2044
    5SAPS  C310  638   1.493  -0.325   9.489  0.3109 -0.8626  0.6521
    5SAPS  H10X  639   1.440  -0.233   9.457  0.6306 -1.4644 -1.8281
    5SAPS  H10Y  640   1.422  -0.410   9.507 -1.7682  0.9275  1.3935
    5SAPS  C311  641   1.598  -0.369   9.381 -0.3774  0.5872 -0.0155
    5SAPS  H11X  642   1.647  -0.465   9.409  0.1496  1.4075  2.0441
    5SAPS  H11Y  643   1.678  -0.292   9.384 -0.2258  0.4167  0.3834
    5SAPS  C312  644   1.545  -0.356   9.235  0.0297  0.4619  0.4842
    5SAPS  H12X  645   1.628  -0.385   9.166 -0.1759  0.2551  0.3236
    5SAPS  H12Y  646   1.516  -0.254   9.202  1.1999  0.3083 -1.1899
    5SAPS  C313  647   1.436  -0.453   9.187 -0.0270  0.1482  0.1730
    5SAPS  H13X  648   1.376  -0.402   9.109 -2.1950 -1.1119  0.9300
    5SAPS  H13Y  649   1.376  -0.460   9.281  3.8824  0.1941  2.9345
    5SAPS  C314  650   1.481  -0.591   9.133  0.7797 -1.0113 -0.9791
    5SAPS  H14X  651   1.391  -0.651   9.161 -1.0340  1.4536 -1.2363
    5SAPS  H14Y  652   1.557  -0.628   9.206  1.1257  0.4630 -0.5561
    5SAPS  C315  653   1.523  -0.604   8.988  0.3086  0.0648 -0.0283
    5SAPS  H15X  654   1.599  -0.526   8.964  0.5109  0.0727  0.6229
    5SAPS  H15Y  655   1.436  -0.589   8.922 -0.3462  1.1112  1.0334
    5SAPS  C316  656   1.591  -0.740   8.958  0.5083 -0.2176 -0.1293
    5SAPS  H16X  657   1.621  -0.745   8.851 -2.5675  0.4143 -1.0983
    5SAPS  H16Y  658   1.526  -0.830   8.965  0.3814 -0.0180  1.9354
    5SAPS  C317  659   1.716  -0.774   9.040 -0.0273 -0.0154  0.3179
    5SAPS  H17X  660   1.680  -0.805   9.141 -0.9547  0.3718  0.1095
    5SAPS  H17Y  661   1.785  -0.687   9.048  0.6606 -0.4918 -0.2930
    5SAPS  C318  662   1.805  -0.893   8.996  0.4668 -0.0722 -0.4559
    5SAPS  H18X  663   1.840  -0.876   8.891  0.3664  0.0461 -0.4713
    5SAPS  H18Y  664   1.747  -0.988   9.002  0.2951  0.0836  0.4608
    5SAPS  H18Z  665   1.899  -0.896   9.054  0.7338  2.4396 -0.6683
    6SAPS     N  666   4.259   1.736  11.036  0.0800  0.3130 -0.1997
    6SAPS   HN1  667   4.269   1.640  11.075 -0.9303  0.7579  1.2582
    6SAPS   HN2  668   4.190   1.791  11.090  0.2961  1.2203 -0.8272
    6SAPS   HN3  669   4.209   1.715  10.947 -0.7474 -1.0285  0.5461
    6SAPS   C12  670   4.385   1.810  11.031  0.2940  0.3406 -0.3657
    6SAPS  H12A  671   4.364   1.914  11.016 -0.2162  0.2951  0.0161
    6SAPS   C13  672   4.479   1.785  11.155 -0.9299  0.0417  0.9364
    6SAPS  O13A  673   4.430   1.731  11.259 -0.1964  0.4513  0.4981
    6SAPS  O13B  674   4.579   1.864  11.157 -0.1474  0.1681  0.9644
    6SAPS   C11  675   4.469   1.752  10.913 -0.0009 -0.0693  0.0194
    6SAPS  H11A  676   4.504   1.647  10.925  1.4701  0.4227  0.1524
    6SAPS  H11B  677   4.559   1.817  10.909 -0.6688  0.8706 -0.0850
    6SAPS     P  678   4.410   1.866  10.688 -0.1980  0.2333 -0.1980
    6SAPS   O13  679   4.348   1.824  10.562  0.1659 -0.1703 -0.4512
    6SAPS   O14  680   4.365   1.996  10.744 -0.1821 -0.6209 -0.2413
    6SAPS   O12  681   4.394   1.749  10.793 -0.2156  0.4718  0.5783
    6SAPS   O11  682   4.565   1.866  10.667  0.4070  0.8892  0.3541
    6SAPS    C1  683   4.620   1.744  10.605  0.3591 -1.2261  0.2538
    6SAPS    HA  684   4.628   1.661  10.679 -0.2981 -1.5537 -0.0329
    6SAPS    HB  685   4.555   1.707  10.523 -0.8209  0.2221  0.5045
    6SAPS    C2  686   4.762   1.756  10.537  0.4699 -0.4151 -0.2179
    6SAPS    HS  687   4.822   1.788  10.625  2.5561 -2.8531 -0.6331
    6SAPS   O21  688   4.755   1.857  10.438  0.5665  0.2840  0.5504
    6SAPS   C21  689   4.863   1.923  10.418  0.0399 -0.0149 -0.2870
    6SAPS   O22  690   4.952   1.939  10.501  0.3918 -0.1878  0.2176
    6SAPS   C22  691   4.860   1.989  10.276 -0.3257  0.6724 -0.4533
    6SAPS   H2R  692   4.759   1.982  10.229  0.0639 -0.4940 -1.1749
    6SAPS   H2S  693   4.896   2.093  10.286 -0.5763  0.7495 -0.3391
    6SAPS    C3  694   4.809   1.623  10.492  0.4791  0.8308 -0.5092
    6SAPS    HX  695   4.752   1.609  10.397 -0.8338  2.3202  0.0070
    6SAPS    HY  696   4.795   1.550  10.575 -0.1196  2.4385  0.8520
    6SAPS   O31  697   4.947   1.641  10.460 -0.0636 -0.3060 -0.4990
    6SAPS   C31  698   5.011   1.531  10.426 -0.0560  0.1564  0.1672
    6SAPS   O32  699   4.973   1.418  10.435  0.1802 -0.0189 -0.0818
    6SAPS   C32  700   5.162   1.568  10.386  0.2000 -0.0051  0.1838
    6SAPS   H2X  701   5.229   1.486  10.419 -0.5707  0.4397  3.1918
    6SAPS   H2Y  702   5.179   1.671  10.422 -2.4320  1.6255 -2.6907
    6SAPS   C23  703   4.961   1.936  10.175 -0.1397 -0.2352  0.2920
    6SAPS   H3R  704   4.943   1.828  10.157 -2.0365 -0.0094  0.5758
    6SAPS   H3S  705   5.060   1.946  10.223 -0.3280  1.9856  0.3445
    6SAPS   C24  706   4.958   2.011  10.045 -0.0267 -0.5375  0.3150
    6SAPS   H4R  707   4.991   2.116  10.054  1.8271 -0.7067 -2.8423
    6SAPS   H4S  708   4.850   2.018  10.018 -0.5393 -0.7864  2.1762
    6SAPS   C25  709   5.042   1.952   9.934  0.1990 -0.0256  0.2341
    6SAPS   H5R  710   5.143   1.921   9.962  0.0479 -3.3910 -2.3888
    6SAPS   C26  711   5.008   1.915   9.811  0.2620 -0.7530 -0.8972
    6SAPS   H6R  712   5.091   1.883   9.747 -0.0590  1.1190 -2.3596
    6SAPS   C27  713   4.873   1.931   9.742 -0.6400  0.3633  0.0626
    6SAPS   H7R  714   4.791   1.897   9.808 -2.0207 -1.5212 -2.4795
    6SAPS   H7S  715   4.860   1.869   9.651  0.0276  0.4552 -0.1034
    6SAPS   C28  716   4.837   2.075   9.707 -0.5599 -0.3104 -0.3792
    6SAPS   H8R  717   4.783   2.137   9.780  0.4877  0.6365 -0.3833
    6SAPS   C29  718   4.882   2.135   9.596 -0.2002  0.4304 -1.0412
    6SAPS   H9R  719   4.849   2.239   9.579  0.2944  0.5203 -1.4697
    6SAPS  C210  720   4.970   2.097   9.480 -0.6413 -0.5558  0.0652
    6SAPS  H10R  721   5.019   2.002   9.512  1.6534  0.1893 -0.9982
    6SAPS  H10S  722   5.053   2.170   9.475  1.0032 -2.4004 -2.1013
    6SAPS  C211  723   4.894   2.080   9.354 -0.5644  0.3715  0.1391
    6SAPS  H11R  724   4.817   2.001   9.357 -0.4486  0.2634  0.2660
    6SAPS  C212  725   4.926   2.143   9.241  0.1363  0.5987 -0.0429
    6SAPS  H12R  726   4.879   2.115   9.145  0.9373  0.2463 -0.3378
    6SAPS  C213  727   5.031   2.254   9.214 -0.5002  0.4685  0.1971
    6SAPS  H13R  728   5.108   2.263   9.294 -0.5221  3.9728 -0.0433
    6SAPS  H13S  729   4.981   2.353   9.215 -2.1878 -0.3204  2.6269
    6SAPS  C214  730   5.099   2.242   9.080  0.7927  0.7460  0.3650
    6SAPS  H14R  731   5.202   2.202   9.085 -0.2707 -2.3117  0.1146
    6SAPS  C215  732   5.039   2.252   8.960  0.0125 -0.4331 -0.5029
    6SAPS  H15R  733   5.096   2.241   8.867  1.2767 -1.0315  0.3171
    6SAPS  C216  734   4.895   2.301   8.931  0.0760 -0.3090 -0.3959
    6SAPS  H16R  735   4.896   2.375   8.849  0.1731 -0.2256 -0.3207
    6SAPS  H16S  736   4.855   2.363   9.015 -0.6857 -1.0308 -0.2112
    6SAPS  C217  737   4.799   2.192   8.895 -0.0009  0.0535  0.3019
    6SAPS  H17R  738   4.696   2.227   8.915 -0.9336 -1.1066 -2.1030
    6SAPS  H17S  739   4.799   2.096   8.951 -1.7275 -2.0780 -3.0356
    6SAPS  C218  740   4.808   2.154   8.745  0.0331 -0.2985  0.2574
    6SAPS  H18R  741   4.744   2.063   8.739 -1.1163  0.4577  0.5553
    6SAPS  H18S  742   4.911   2.124   8.720 -0.0554  0.4592 -1.1163
    6SAPS  C219  743   4.768   2.265   8.654  0.0746  0.1590 -0.7752
    6SAPS  H19R  744   4.861   2.322   8.633  0.0484  0.0014 -1.3295
    6SAPS  H19S  745   4.702   2.330   8.715  1.5038  0.0740  0.9676
    6SAPS  C220  746   4.699   2.210   8.541 -0.5433 -0.0485  0.3194
    6SAPS  H20R  747   4.773   2.143   8.492  1.3298  1.7834  0.5065
    6SAPS  H20S  748   4.674   2.290   8.468 -0.3087  0.4187  0.7483
    6SAPS  H20T  749   4.601   2.160   8.559 -0.5581 -0.4143 -0.6891
    6SAPS   C33  750   5.169   1.571  10.233  0.0868 -0.3927  0.5049
    6SAPS   H3X  751   5.258   1.633  10.210  0.2096 -0.8109 -0.1678
    6SAPS   H3Y  752   5.096   1.638  10.181  0.6227  0.1047  0.3864
    6SAPS   C34  753   5.186   1.435  10.165  0.1692 -0.8484 -0.3800
    6SAPS   H4X  754   5.087   1.385  10.171 -2.4142  3.7839  1.3962
    6SAPS   H4Y  755   5.265   1.378  10.217  2.6281  2.1179 -0.5729
    6SAPS   C35  756   5.236   1.425  10.019  0.1140  0.4088  0.3357
    6SAPS   H5X  757   5.242   1.325   9.972 -0.4896  1.3856 -1.9580
    6SAPS   H5Y  758   5.337   1.469  10.015  0.8668 -1.2599  0.1507
    6SAPS   C36  759   5.142   1.503   9.926 -0.0504  0.7867 -0.3818
    6SAPS   H6X  760   5.149   1.611   9.951  1.8490  0.1364  2.2813
    6SAPS   H6Y  761   5.036   1.480   9.953  0.8916 -0.7320  2.4132
    6SAPS   C37  762   5.182   1.482   9.781 -0.2330 -0.4754 -0.2433
    6SAPS   H7X  763   5.145   1.387   9.736 -2.8282  0.4841 -0.3202
    6SAPS   H7Y  764   5.293   1.478   9.778 -0.1349 -1.8459  2.4643
    6SAPS   C38  765   5.127   1.602   9.697  0.6520  0.7327  0.1873
    6SAPS   H8X  766   5.165   1.698   9.738 -0.6981  0.2270  2.7982
    6SAPS   H8Y  767   5.017   1.587   9.707  0.8028 -0.1595  0.5903
    6SAPS   C39  768   5.168   1.580   9.554  0.3229  0.0830 -0.1412
    6SAPS   H9X  769   5.129   1.484   9.512 -1.6937  1.2875 -1.1326
    6SAPS   H9Y  770   5.278   1.566   9.549  0.2241 -1.1750  0.5721
    6SAPS  C310  771   5.121   1.701   9.478 -0.5474 -0.2275 -0.0486
    6SAPS  H10X  772   5.167   1.794   9.516 -1.4849 -0.0586  0.7028
    6SAPS  H10Y  773   5.011   1.714   9.479 -0.4160  0.9997  0.7582
    6SAPS  C311  774   5.158   1.689   9.329  0.4483  0.0061  0.0965
    6SAPS  H11X  775   5.153   1.589   9.280  1.5208  0.0607 -0.1409
    6SAPS  H11Y  776   5.261   1.729   9.326 -0.0006  1.1949 -0.2243
    6SAPS  C312  777   5.075   1.791   9.248 -0.1830  0.1230 -0.0909
    6SAPS  H12X  778   5.088   1.897   9.280 -2.5274  0.9161 -1.5098
    6SAPS  H12Y  779   4.969   1.762   9.265  0.0282 -0.7643 -0.2333
    6SAPS  C313  780   5.089   1.773   9.096  1.1240  0.2895 -0.4603
    6SAPS  H13X  781   5.166   1.698   9.066 -0.6604 -1.3803 -1.0701
    6SAPS  H13Y  782   5.101   1.869   9.042  0.0831 -1.3403 -3.8837
    6SAPS  C314  783   4.954   1.728   9.044  0.0614 -0.5468  0.3446
    6SAPS  H14X  784   4.884   1.814   9.052  0.7571 -0.0411  1.2369
    6SAPS  H14Y  785   4.923   1.639   9.104  1.3992 -1.1595  0.1743
    6SAPS  C315  786   4.962   1.678   8.899 -0.2037  0.3758 -0.1832
    6SAPS  H15X  787   4.868   1.619   8.892 -0.8107  1.3626 -0.4458
    6SAPS  H15Y  788   5.046   1.606   8.886 -0.4569 -0.9238  3.8911
    6SAPS  C316  789   4.955   1.802   8.804  0.1649  1.0958 -0.4364
    6SAPS  H16X  790   5.028   1.875   8.845 -1.3920  1.4370  1.9333
    6SAPS  H16Y  791   4.854   1.844   8.822 -1.4458 -2.0714 -1.3133
    6SAPS  C317  792   4.966   1.758   8.662  0.3027 -0.3433  0.3418
    6SAPS  H17X  793   4.901   1.668   8.652  0.0255 -0.0403 -0.6649
    6SAPS  H17Y  794   5.072   1.727   8.650  0.0084 -0.6967 -1.6316
    6SAPS  C318  795   4.933   1.863   8.560 -0.1780  0.0102 -0.4070
    6SAPS  H18X  796   4.841   1.912   8.600  0.1589  0.2421  0.0920
    6SAPS  H18Y  797   4.923   1.815   8.460 -0.4976 -1.2106  0.1850
    6SAPS  H18Z  798   5.011   1.941   8.550  0.8818 -0.9143  0.2834
    7SAPS     N  799   3.101   2.470  10.795 -0.3387  0.4698 -0.1698
    7SAPS   HN1  800   3.093   2.561  10.746 -0.7686  0.9000  0.6714
    7SAPS   HN2  801   3.151   2.489  10.884  1.1548  0.9494 -1.0849
    7SAPS   HN3  802   3.165   2.417  10.732  1.0264  1.5068  0.2962
    7SAPS   C12  803   2.967   2.411  10.808  0.3765 -0.1420  0.2581
    7SAPS  H12A  804   2.927   2.404  10.708 -1.3908  0.3541  0.8990
    7SAPS   C13  805   2.974   2.268  10.864  0.1190  0.7612  0.0911
    7SAPS  O13A  806   3.084   2.219  10.900 -0.4738  0.0882  0.3440
    7SAPS  O13B  807   2.867   2.203  10.889 -0.6983 -0.4086  0.0176
    7SAPS   C11  808   2.892   2.514  10.901  0.4183  0.2565 -0.1074
    7SAPS  H11A  809   2.951   2.519  10.995  0.5980  0.6156 -0.2387
    7SAPS  H11B  810   2.792   2.473  10.925  0.0652  0.9908 -0.3209
    7SAPS     P  811   2.793   2.687  10.734  0.2502 -0.1796  0.3422
    7SAPS   O13  812   2.824   2.601  10.618 -0.1308  0.0400  0.1552
    7SAPS   O14  813   2.646   2.695  10.774  0.2147 -0.4785 -0.1940
    7SAPS   O12  814   2.884   2.652  10.854 -0.4313  0.2551 -0.4878
    7SAPS   O11  815   2.849   2.831  10.698 -0.4218 -0.6467 -0.5836
    7SAPS    C1  816   2.828   2.939  10.789 -0.2115 -0.1056  0.3749
    7SAPS    HA  817   2.837   2.907  10.895  2.4581  0.1596  0.3122
    7SAPS    HB  818   2.915   3.006  10.777  0.6335 -1.0767  0.8914
    7SAPS    C2  819   2.704   3.020  10.752 -0.1581  0.5608  0.0625
    7SAPS    HS  820   2.618   2.958  10.786 -1.2437  3.2115  2.5933
    7SAPS   O21  821   2.710   3.043  10.610  0.2250  0.2755 -0.2193
    7SAPS   C21  822   2.601   3.024  10.550  0.4065  0.3110  0.6566
    7SAPS   O22  823   2.492   2.991  10.589  0.5937 -0.7697  0.5965
    7SAPS   C22  824   2.636   3.032  10.403  0.6165 -0.0497  0.8669
    7SAPS   H2R  825   2.683   3.128  10.375 -0.4204  0.1402 -0.3182
    7SAPS   H2S  826   2.709   2.956  10.370  0.3031  0.3034 -0.7243
    7SAPS    C3  827   2.688   3.158  10.833 -0.1022 -0.3740 -0.4894
    7SAPS    HX  828   2.780   3.219  10.823 -0.5209  0.2578 -0.5708
    7SAPS    HY  829   2.669   3.135  10.940 -0.9305  0.6555 -0.3958
    7SAPS   O31  830   2.568   3.225  10.796  0.4002 -1.0110 -0.0274
    7SAPS   C31  831   2.574   3.318  10.701 -0.6288 -0.3281 -0.5685
    7SAPS   O32  832   2.672   3.349  10.635 -0.2510 -0.1841 -1.2203
    7SAPS   C32  833   2.434   3.378  10.684  0.0264  0.1211 -0.4282
    7SAPS   H2X  834   2.438   3.489  10.671  0.5472  0.1726  0.1149
    7SAPS   H2Y  835   2.366   3.360  10.770 -0.1105 -1.5135 -0.8521
    7SAPS   C23  836   2.507   2.986  10.318 -0.8837  0.3548 -0.8062
    7SAPS   H3R  837   2.438   3.071  10.338  0.2012  1.5691 -2.0664
    7SAPS   H3S  838   2.454   2.904  10.372 -1.6408  0.6360 -1.1084
    7SAPS   C24  839   2.526   2.955  10.167 -0.2788 -1.1151  0.2992
    7SAPS   H4R  840   2.563   3.041  10.108  1.8143 -0.1476  2.8068
    7SAPS   H4S  841   2.430   2.932  10.116  1.9422 -1.4685 -4.1859
    7SAPS   C25  842   2.610   2.831  10.145 -0.3680 -0.2530  0.1845
    7SAPS   H5R  843   2.604   2.757  10.226 -2.6615  2.3076  2.5915
    7SAPS   C26  844   2.713   2.824  10.055 -0.6566  0.3932 -0.0863
    7SAPS   H6R  845   2.774   2.732  10.057 -2.2790 -0.7019  0.6452
    7SAPS   C27  846   2.766   2.923   9.953 -0.1138 -0.2486  0.0195
    7SAPS   H7R  847   2.685   2.995   9.931  0.3430  0.5072  0.7351
    7SAPS   H7S  848   2.774   2.879   9.852  1.0107  1.2177 -0.5718
    7SAPS   C28  849   2.889   3.002   9.991  0.8695 -0.3034 -0.4549
    7SAPS   H8R  850   2.891   3.046  10.092 -0.6414  3.9803 -2.1042
    7SAPS   C29  851   2.965   3.072   9.902  0.2334  0.3037 -0.7029
    7SAPS   H9R  852   3.043   3.139   9.940  0.6263 -0.5976  0.1174
    7SAPS  C210  853   2.957   3.077   9.747 -0.0146  0.9091 -0.5209
    7SAPS  H10R  854   2.957   2.973   9.709  0.9414  0.1578  1.3675
    7SAPS  H10S  855   3.058   3.107   9.712  0.4813 -0.5133 -0.3530
    7SAPS  C211  856   2.842   3.159   9.700  0.3601  0.0351  0.5438
    7SAPS  H11R  857   2.746   3.154   9.753  0.2064  1.0121  0.3749
    7SAPS  C212  858   2.841   3.223   9.583 -0.2303  0.2572  0.3162
    7SAPS  H12R  859   2.754   3.284   9.553  1.3592  2.9172  0.7482
    7SAPS  C213  860   2.949   3.241   9.481 -0.1248  0.3808 -0.0747
    7SAPS  H13R  861   3.043   3.206   9.528 -0.8056 -0.4298  0.7014
    7SAPS  H13S  862   2.970   3.350   9.470 -0.7527  0.6395  1.1225
    7SAPS  C214  863   2.935   3.175   9.347 -0.6417 -0.4138 -0.3552
    7SAPS  H14R  864   2.959   3.068   9.355  2.7907  0.3436  1.7618
    7SAPS  C215  865   2.914   3.231   9.226 -0.7102  0.3228 -0.1127
    7SAPS  H15R  866   2.902   3.171   9.135 -0.5227  1.8263 -1.1701
    7SAPS  C216  867   2.891   3.378   9.201  0.1177  0.2138  0.6035
    7SAPS  H16R  868   2.901   3.431   9.298  1.9331 -2.6075  2.0790
    7SAPS  H16S  869   2.788   3.399   9.165  0.0229  1.8506  1.7383
    7SAPS  C217  870   2.996   3.434   9.106 -0.0953 -0.7399  0.5749
    7SAPS  H17R  871   3.098   3.423   9.149  1.0000 -1.3041 -2.0203
    7SAPS  H17S  872   2.985   3.543   9.090  0.4540 -0.8307 -0.5174
    7SAPS  C218  873   2.991   3.370   8.969 -0.2355 -0.2669  0.2401
    7SAPS  H18R  874   3.013   3.261   8.975 -2.6654 -0.7812  0.9899
    7SAPS  H18S  875   3.060   3.425   8.901 -0.7429  0.0491 -0.0253
    7SAPS  C219  876   2.853   3.395   8.894 -0.1310  0.4230 -0.4820
    7SAPS  H19R  877   2.803   3.480   8.943 -1.4327  0.5490 -1.9412
    7SAPS  H19S  878   2.792   3.304   8.913 -0.2694  0.2143 -1.8045
    7SAPS  C220  879   2.864   3.417   8.739 -0.3042 -0.1923 -0.5443
    7SAPS  H20R  880   2.766   3.417   8.687 -0.2577  0.8932 -0.6721
    7SAPS  H20S  881   2.927   3.335   8.698 -2.7859 -2.3081 -0.3353
    7SAPS  H20T  882   2.907   3.518   8.717 -2.3532  0.4069 -2.0743
    7SAPS   C33  883   2.377   3.314  10.560 -0.3046  0.2948  0.0006
    7SAPS   H3X  884   2.275   3.357  10.552 -0.7795 -0.3229  2.0786
    7SAPS   H3Y  885   2.375   3.203  10.566  0.9705  0.2255 -0.5054
    7SAPS   C34  886   2.444   3.360  10.426  0.3684  0.2760  0.5297
    7SAPS   H4X  887   2.543   3.309  10.418  1.1672  1.7910  0.3387
    7SAPS   H4Y  888   2.460   3.470  10.434 -1.6184  0.7445 -1.0205
    7SAPS   C35  889   2.357   3.354  10.294  0.2907  0.1385 -0.1068
    7SAPS   H5X  890   2.271   3.424  10.299  0.0179 -0.3007  2.9859
    7SAPS   H5Y  891   2.312   3.253  10.281 -0.0997  0.3928 -0.8102
    7SAPS   C36  892   2.428   3.392  10.168 -0.2196 -0.5340 -0.3580
    7SAPS   H6X  893   2.500   3.308  10.159  0.0111 -0.2608 -1.2313
    7SAPS   H6Y  894   2.476   3.490  10.186 -3.3104  1.0014  0.2212
    7SAPS   C37  895   2.338   3.381  10.043 -0.7404  0.1000  0.0468
    7SAPS   H7X  896   2.258   3.455  10.063  2.4303  4.0198 -0.6334
    7SAPS   H7Y  897   2.310   3.273  10.048  1.9646 -0.7035 -0.5372
    7SAPS   C38  898   2.407   3.418   9.918 -0.1756 -0.9713 -0.0264
    7SAPS   H8X  899   2.502   3.363   9.898 -0.1458 -1.0309  0.2683
    7SAPS   H8Y  900   2.448   3.521   9.926 -0.0813 -0.7442 -2.6427
    7SAPS   C39  901   2.312   3.408   9.800 -0.5663  0.2049  0.4997
    7SAPS   H9X  902   2.243   3.495   9.804 -1.2678 -0.2135 -1.5543
    7SAPS   H9Y  903   2.263   3.308   9.800  0.1007 -0.1301 -0.0163
    7SAPS  C310  904   2.371   3.423   9.661  0.4667  0.4502 -0.8097
    7SAPS  H10X  905   2.406   3.321   9.635 -0.8760 -0.7327  1.6424
    7SAPS  H10Y  906   2.453   3.497   9.657  1.6891 -0.9122 -2.1974
    7SAPS  C311  907   2.257   3.456   9.568  0.2353 -0.2146  0.6813
    7SAPS  H11X  908   2.253   3.566   9.552 -0.1371  0.0216  2.2565
    7SAPS  H11Y  909   2.162   3.423   9.615 -0.0890  1.8656  1.6057
    7SAPS  C312  910   2.251   3.371   9.438  0.3139  0.2500 -0.0922
    7SAPS  H12X  911   2.231   3.268   9.475  0.8108 -0.0237 -0.5698
    7SAPS  H12Y  912   2.351   3.380   9.391 -0.2945 -1.1055 -1.7509
    7SAPS  C313  913   2.151   3.425   9.339  0.4332 -0.3837  0.1851
    7SAPS  H13X  914   2.175   3.529   9.309  0.5860 -0.4830 -0.0399
    7SAPS  H13Y  915   2.045   3.414   9.370  0.3871  1.2019  0.6910
    7SAPS  C314  916   2.153   3.340   9.213 -0.1593 -0.0585 -0.3570
    7SAPS  H14X  917   2.099   3.247   9.242  0.2089 -0.4876 -1.0239
    7SAPS  H14Y  918   2.258   3.309   9.192  0.0229 -0.1352  0.6085
    7SAPS  C315  919   2.082   3.385   9.082 -0.0412  1.0470 -0.1410
    7SAPS  H15X  920   2.139   3.475   9.050  3.1001 -0.4239  0.8403
    7SAPS  H15Y  921   1.976   3.412   9.099 -0.6273 -0.0798 -1.8384
    7SAPS  C316  922   2.079   3.276   8.972 -0.1192 -0.3465  0.2053
    7SAPS  H16X  923   2.046   3.192   9.036 -3.3236 -0.6255 -1.6014
    7SAPS  H16Y  924   2.177   3.243   8.932  0.6463  0.4548  1.3440
    7SAPS  C317  925   1.986   3.295   8.845 -0.5179  0.2805 -0.7493
    7SAPS  H17X  926   1.978   3.210   8.773 -2.4104 -0.0334 -0.1994
    7SAPS  H17Y  927   2.034   3.376   8.786  1.1600  1.3125  1.8526
    7SAPS  C318  928   1.850   3.333   8.883  0.1963 -0.2414  0.2350
    7SAPS  H18X  929   1.810   3.262   8.958 -0.3895 -0.7939 -0.5758
    7SAPS  H18Y  930   1.777   3.325   8.799 -0.6665  2.5274  0.6146
    7SAPS  H18Z  931   1.845   3.431   8.935  1.9034 -0.1696  0.3302
    8SAPS     N  932   0.231   4.173  11.100  0.7189 -0.1002 -0.1444
    8SAPS   HN1  933   0.233   4.218  11.006 -1.6747 -2.0219 -1.2538
    8SAPS   HN2  934   0.253   4.074  11.076 -0.1736  0.1465 -2.3118
    8SAPS   HN3  935   0.143   4.165  11.155  0.8565 -2.6624 -0.1557
    8SAPS   C12  936   0.331   4.216  11.206  0.1133  0.1943 -0.0237
    8SAPS  H12A  937   0.322   4.323  11.216  1.5387  0.5965 -2.3692
    8SAPS   C13  938   0.321   4.134  11.343 -0.6285 -0.8579 -0.1152
    8SAPS  O13A  939   0.224   4.051  11.360 -0.2359 -0.4796 -0.1760
    8SAPS  O13B  940   0.395   4.172  11.431 -0.2750  0.0427 -0.8736
    8SAPS   C11  941   0.466   4.194  11.140  0.1823 -0.4863  0.1124
    8SAPS  H11A  942   0.476   4.092  11.099 -0.3188 -1.0128  1.2564
    8SAPS  H11B  943   0.546   4.191  11.217 -0.6334 -2.7841  0.9382
    8SAPS     P  944   0.547   4.431  11.048 -0.0810 -0.7820  0.0390
    8SAPS   O13  945   0.491   4.491  11.175 -0.0691 -0.2301 -0.1478
    8SAPS   O14  946   0.693   4.421  11.041  0.3158  0.2796 -0.2602
    8SAPS   O12  947   0.481   4.290  11.030 -0.0091 -0.4267  0.3802
    8SAPS   O11  948   0.492   4.509  10.926  0.0413 -0.0681 -0.2079
    8SAPS    C1  949   0.472   4.462  10.797 -0.1665 -0.3699  0.1965
    8SAPS    HA  950   0.548   4.509  10.731  2.1923 -1.7291  1.8007
    8SAPS    HB  951   0.499   4.355  10.785  1.2012  0.0280 -0.5344
    8SAPS    C2  952   0.328   4.478  10.745  0.2336  0.8741 -0.1415
    8SAPS    HS  953   0.272   4.469  10.840  1.1882  3.2887  0.7059
    8SAPS   O21  954   0.297   4.385  10.637 -0.4293 -0.1502 -0.4416
    8SAPS   C21  955   0.257   4.267  10.685 -0.5893 -0.5340 -0.2205
    8SAPS   O22  956   0.257   4.229  10.804  0.6385  0.0356 -0.0747
    8SAPS   C22  957   0.206   4.180  10.560  0.5222  0.0968 -0.2160
    8SAPS   H2R  958   0.304   4.142  10.523  2.6387  4.0454  0.8267
    8SAPS   H2S  959   0.140   4.106  10.611 -0.6020  0.1875 -1.4754
    8SAPS    C3  960   0.307   4.624  10.697  0.0136  0.0053  0.6586
    8SAPS    HX  961   0.343   4.689  10.779  0.2234 -0.9774  1.3495
    8SAPS    HY  962   0.197   4.640  10.692 -0.0765 -0.6679  0.3572
    8SAPS   O31  963   0.396   4.653  10.585 -0.0364 -0.1128  0.0411
    8SAPS   C31  964   0.339   4.658  10.471 -0.9334  0.0783  0.0659
    8SAPS   O32  965   0.231   4.695  10.443  0.3290 -0.6796 -0.6558
    8SAPS   C32  966   0.442   4.635  10.353 -0.3210  0.0746 -0.1715
    8SAPS   H2X  967   0.540   4.606  10.396  0.3655  2.4275  0.0167
    8SAPS   H2Y  968   0.439   4.736  10.307 -0.2023 -0.3100 -1.0401
    8SAPS   C23  969   0.122   4.248  10.457  0.3942 -0.1957 -0.0647
    8SAPS   H3R  970   0.177   4.312  10.385 -1.0179  0.8861 -0.2296
    8SAPS   H3S  971   0.051   4.317  10.507  0.0980  0.9177 -1.9127
    8SAPS   C24  972   0.044   4.141  10.378  0.2945 -0.5778 -0.2081
    8SAPS   H4R  973  -0.019   4.071  10.437 -0.4613  0.0722 -0.2293
    8SAPS   H4S  974   0.116   4.076  10.325  0.7645  0.5038 -0.9217
    8SAPS   C25  975  -0.050   4.217  10.279  0.5251 -0.4329  0.3810
    8SAPS   H5R  976  -0.146   4.251  10.319  0.2007  2.1155 -2.2503
    8SAPS   C26  977  -0.032   4.255  10.146 -0.7048  0.6443 -0.6233
    8SAPS   H6R  978  -0.117   4.307  10.098 -0.0025  0.6703 -1.8973
    8SAPS   C27  979   0.098   4.217  10.072  0.7457  0.1673 -0.6872
    8SAPS   H7R  980   0.167   4.173  10.146 -0.9254 -0.6032  0.4728
    8SAPS   H7S  981   0.146   4.310  10.032 -1.1192  2.0030  1.1166
    8SAPS   C28  982   0.068   4.102   9.969 -0.1202  0.0449  0.5592
    8SAPS   H8R  983  -0.037   4.070   9.961 -0.5157  1.5907 -1.1278
    8SAPS   C29  984   0.158   4.060   9.876 -0.1846  0.1809  0.1883
    8SAPS   H9R  985   0.132   3.970   9.819  0.3534  1.5905 -2.4113
    8SAPS  C210  986   0.295   4.117   9.862 -0.1236 -0.0650  0.4197
    8SAPS  H10R  987   0.359   4.062   9.934 -0.3396  0.1981  0.8197
    8SAPS  H10S  988   0.286   4.223   9.894 -1.6965 -0.2275  0.5804
    8SAPS  C211  989   0.349   4.105   9.720  0.4075 -0.1099  0.1664
    8SAPS  H11R  990   0.430   4.034   9.702  0.3061  0.0999 -1.2477
    8SAPS  C212  991   0.300   4.165   9.610 -0.2048 -0.6284 -0.2384
    8SAPS  H12R  992   0.340   4.152   9.508  0.1011  1.3372 -0.4156
    8SAPS  C213  993   0.190   4.267   9.599  0.2271  0.8643 -0.1632
    8SAPS  H13R  994   0.245   4.364   9.596 -1.0635  1.6198 -0.2415
    8SAPS  H13S  995   0.126   4.278   9.689  1.2612 -3.4505  1.3093
    8SAPS  C214  996   0.119   4.263   9.468  0.9258  0.1401  0.1539
    8SAPS  H14R  997   0.027   4.203   9.472  0.5948  0.6019 -0.5040
    8SAPS  C215  998   0.152   4.323   9.354  0.2862  0.0214 -0.2811
    8SAPS  H15R  999   0.082   4.312   9.270 -0.9311 -0.8044  0.8019
    8SAPS  C216 1000   0.284   4.391   9.329 -0.8299  0.3038  0.4685
    8SAPS  H16R 1001   0.360   4.355   9.402 -0.0282 -2.1348 -1.4363
    8SAPS  H16S 1002   0.278   4.502   9.334 -0.7150  0.4307 -1.4434
    8SAPS  C217 1003   0.349   4.346   9.191  0.3811 -0.6826  0.4575
    8SAPS  H17R 1004   0.351   4.235   9.198  0.0558 -0.6276  1.7313
    8SAPS  H17S 1005   0.452   4.387   9.184  0.0388  0.0475 -0.6256
    8SAPS  C218 1006   0.282   4.380   9.055  0.2903  0.0925  0.0359
    8SAPS  H18R 1007   0.290   4.491   9.049 -1.0334  0.1338 -1.2786
    8SAPS  H18S 1008   0.179   4.340   9.052  0.5230 -0.5488  0.3224
    8SAPS  C219 1009   0.354   4.317   8.937 -0.3466  0.3809  0.3934
    8SAPS  H19R 1010   0.349   4.206   8.945  0.7875  0.4380  2.4062
    8SAPS  H19S 1011   0.459   4.350   8.948 -0.2077  0.1554 -0.2410
    8SAPS  C220 1012   0.308   4.372   8.807 -0.6823  0.1350 -0.0780
    8SAPS  H20R 1013   0.198   4.359   8.797 -0.6392  0.1197 -0.5565
    8SAPS  H20S 1014   0.353   4.321   8.720 -1.1888 -0.6163  0.0893
    8SAPS  H20T 1015   0.334   4.480   8.803  0.4914 -0.0232  1.8404
    8SAPS   C33 1016   0.382   4.537  10.256 -0.1683 -0.6709 -0.0248
    8SAPS   H3X 1017   0.287   4.588  10.228  1.3715  1.9319 -0.8220
    8SAPS   H3Y 1018   0.353   4.438  10.297 -1.6933  0.3820  1.5866
    8SAPS   C34 1019   0.472   4.540  10.129  0.0048  0.5916 -1.0000
    8SAPS   H4X 1020   0.577   4.519  10.156 -0.2574  1.5793  1.0200
    8SAPS   H4Y 1021   0.462   4.649  10.106  0.0622  0.7948 -0.1150
    8SAPS   C35 1022   0.418   4.456  10.014 -0.1254 -0.2572 -0.0160
    8SAPS   H5X 1023   0.307   4.458  10.015 -0.2046 -1.4128  2.5807
    8SAPS   H5Y 1024   0.432   4.349  10.041  0.0369  0.2968  2.3036
    8SAPS   C36 1025   0.478   4.487   9.877  0.3964  0.5372  0.0983
    8SAPS   H6X 1026   0.469   4.395   9.815  2.1928 -0.5620  1.3702
    8SAPS   H6Y 1027   0.588   4.495   9.890  0.9864 -2.9953 -1.6213
    8SAPS   C37 1028   0.435   4.612   9.807  0.2907  0.6289  0.8389
    8SAPS   H7X 1029   0.451   4.692   9.882 -1.2837  0.8529  0.9507
    8SAPS   H7Y 1030   0.326   4.592   9.803 -0.5031  4.2300  0.6509
    8SAPS   C38 1031   0.496   4.636   9.672 -0.0953 -0.1521  0.1244
    8SAPS   H8X 1032   0.475   4.548   9.607 -1.0935  1.7715 -2.3336
    8SAPS   H8Y 1033   0.606   4.637   9.684 -0.2511 -0.3046  1.7345
    8SAPS   C39 1034   0.447   4.760   9.593  0.2256 -0.2302  0.1470
    8SAPS   H9X 1035   0.479   4.856   9.640 -3.3806  0.3552  1.6761
    8SAPS   H9Y 1036   0.337   4.750   9.602  0.3851 -1.0113  1.5033
    8SAPS  C310 1037   0.504   4.761   9.452 -0.2021  0.0907  0.0245
    8SAPS  H10X 1038   0.526   4.659   9.413 -2.3539 -0.5755  0.4413
    8SAPS  H10Y 1039   0.600   4.818   9.451 -0.1481 -0.0069 -0.7844
    8SAPS  C311 1040   0.420   4.824   9.347  0.2007  0.7847  0.3927
    8SAPS  H11X 1041   0.386   4.928   9.367  0.0832  0.7374  0.4460
    8SAPS  H11Y 1042   0.327   4.764   9.333 -0.4696  1.8951 -0.0728
    8SAPS  C312 1043   0.499   4.842   9.213  0.8205 -0.3378 -0.0311
    8SAPS  H12X 1044   0.488   4.744   9.162  1.5230 -1.7006  2.3056
    8SAPS  H12Y 1045   0.606   4.865   9.228  1.1231 -1.1301 -0.9055
    8SAPS  C313 1046   0.430   4.949   9.119 -0.0422  0.3904 -0.1864
    8SAPS  H13X 1047   0.438   5.046   9.172  0.4034  0.1807  0.1340
    8SAPS  H13Y 1048   0.327   4.907   9.109 -0.9405  1.5956  2.9267
    8SAPS  C314 1049   0.505   4.960   8.984 -0.2117  0.6867 -0.6164
    8SAPS  H14X 1050   0.511   4.862   8.933 -0.1660  0.2407  0.2300
    8SAPS  H14Y 1051   0.610   4.996   8.979  0.3188 -0.9345 -3.9710
    8SAPS  C315 1052   0.439   5.051   8.880  0.2508  0.4563 -0.1037
    8SAPS  H15X 1053   0.456   5.159   8.901 -2.0651  0.3025  3.6181
    8SAPS  H15Y 1054   0.329   5.033   8.890  0.2686  0.0799 -0.5423
    8SAPS  C316 1055   0.458   5.016   8.736 -0.7743  0.0003 -0.0917
    8SAPS  H16X 1056   0.388   5.073   8.671 -0.5366 -0.6861 -0.9775
    8SAPS  H16Y 1057   0.428   4.910   8.721  0.9294 -0.3106 -1.7106
    8SAPS  C317 1058   0.597   5.058   8.683  0.0826 -0.1171 -0.0438
    8SAPS  H17X 1059   0.678   4.995   8.725 -0.5111  0.2687  1.8177
    8SAPS  H17Y 1060   0.608   5.162   8.722 -2.7600  0.6762 -1.0833
    8SAPS  C318 1061   0.597   5.058   8.533 -0.3596 -0.6499  0.2629
    8SAPS  H18X 1062   0.568   4.960   8.489 -0.6741 -0.4826  0.0916
    8SAPS  H18Y 1063   0.697   5.083   8.491  0.0747 -0.7183  1.2318
    8SAPS  H18Z 1064   0.524   5.130   8.490 -0.5651 -1.3723 -0.6524
    9SAPS     N 1065   1.890   6.240   6.221  0.1848 -0.4727 -0.4176
    9SAPS   HN1 1066   1.982   6.228   6.267 -1.2892 -1.5783  2.4777
    9SAPS   HN2 1067   1.906   6.320   6.156  2.7489  1.1418  2.0122
    9SAPS   HN3 1068   1.819   6.268   6.292 -2.1657  1.1365 -3.1455
    9SAPS   C12 1069   1.841   6.122   6.154 -0.1730  0.2797  0.0323
    9SAPS  H12A 1070   1.737   6.105   6.181 -0.4799 -0.6793 -1.5571
    9SAPS   C13 1071   1.842   6.130   6.000 -0.0379 -0.6530  0.1501
    9SAPS  O13A 1072   1.911   6.226   5.951  0.5913 -0.1845  0.2811
    9SAPS  O13B 1073   1.836   6.018   5.934  0.3372  0.0776 -0.3943
    9SAPS   C11 1074   1.940   6.004   6.193 -0.3629  0.4899  0.0784
    9SAPS  H11A 1075   2.046   6.022   6.164 -0.6599  1.7360 -0.2845
    9SAPS  H11B 1076   1.923   5.915   6.128  0.6106 -1.0113  1.8013
    9SAPS     P 1077   1.811   5.883   6.397 -0.3096 -0.3766  0.4882
    9SAPS   O13 1078   1.689   5.884   6.320 -0.0834  0.1075  0.3919
    9SAPS   O14 1079   1.854   5.739   6.438  0.1575 -0.2981  0.3729
    9SAPS   O12 1080   1.935   5.962   6.332 -0.0171  0.2536 -0.5849
    9SAPS   O11 1081   1.790   5.961   6.530 -0.1161 -0.0228 -0.0488
    9SAPS    C1 1082   1.894   6.025   6.599 -0.0147 -0.2263  0.3081
    9SAPS    HA 1083   1.995   5.994   6.563 -0.1759 -0.0190 -0.3296
    9SAPS    HB 1084   1.879   6.135   6.602 -0.6456 -0.2205 -1.6131
    9SAPS    C2 1085   1.889   5.976   6.753  0.0066  0.4679  0.4152
    9SAPS    HS 1086   1.911   5.867   6.750 -0.8193  0.2990  0.3807
    9SAPS   O21 1087   1.768   6.012   6.819  0.8796 -0.0186  1.0052
    9SAPS   C21 1088   1.724   5.928   6.906 -0.5343 -0.0151  0.2315
    9SAPS   O22 1089   1.776   5.818   6.936  0.7454 -0.1649 -0.1734
    9SAPS   C22 1090   1.610   5.997   6.985  0.3238  0.7649 -0.4716
    9SAPS   H2R 1091   1.585   6.094   6.937 -0.7298  1.1727  0.8528
    9SAPS   H2S 1092   1.523   5.929   6.979  0.3402  0.4049  2.2117
    9SAPS    C3 1093   2.008   6.045   6.827  0.3436  0.1297  0.5854
    9SAPS    HX 1094   1.963   6.147   6.819  0.4615  0.2010  0.8155
    9SAPS    HY 1095   2.103   6.044   6.770 -0.9404  0.6015 -1.6555
    9SAPS   O31 1096   2.008   6.006   6.966 -0.4378  0.1585  0.7093
    9SAPS   C31 1097   2.088   5.907   7.003  0.4047 -0.0168  0.3651
    9SAPS   O32 1098   2.154   5.831   6.932 -0.0622  0.0037  0.3497
    9SAPS   C32 1099   2.068   5.868   7.152  0.3274  0.2140 -0.8783
    9SAPS   H2X 1100   1.994   5.786   7.163 -0.9361  1.5671  1.5622
    9SAPS   H2Y 1101   2.026   5.960   7.199  0.1811  0.2111 -1.0051
    9SAPS   C23 1102   1.643   6.014   7.132 -0.0331 -0.0529  0.1171
    9SAPS   H3R 1103   1.663   5.910   7.165  0.0723 -0.2850 -0.6717
    9SAPS   H3S 1104   1.547   6.040   7.183 -0.5099  1.7942 -1.5887
    9SAPS   C24 1105   1.742   6.126   7.162 -0.6654  0.4819 -0.2322
    9SAPS   H4R 1106   1.697   6.227   7.159 -3.6086 -0.7752 -1.4533
    9SAPS   H4S 1107   1.831   6.108   7.097  0.7891  1.4234  1.4066
    9SAPS   C25 1108   1.781   6.089   7.309  0.1258 -0.3990  0.5233
    9SAPS   H5R 1109   1.859   6.012   7.321  1.6711  1.2875  1.8497
    9SAPS   C26 1110   1.734   6.149   7.420  0.3232  0.0932  0.2567
    9SAPS   H6R 1111   1.768   6.090   7.507  0.7841 -0.3452 -0.2157
    9SAPS   C27 1112   1.635   6.255   7.437 -0.2558  0.0787  0.2631
    9SAPS   H7R 1113   1.583   6.264   7.339  1.8000  0.9975 -0.8006
    9SAPS   H7S 1114   1.694   6.346   7.460  0.1264 -0.1087  0.0300
    9SAPS   C28 1115   1.530   6.237   7.551  0.0820  0.0793 -0.2894
    9SAPS   H8R 1116   1.425   6.255   7.524 -0.2773 -0.2051  0.8924
    9SAPS   C29 1117   1.561   6.228   7.684  0.0779 -0.7318 -0.0282
    9SAPS   H9R 1118   1.475   6.203   7.749 -1.0959  0.3917 -1.1013
    9SAPS  C210 1119   1.702   6.222   7.749  0.2295  0.4892 -0.2192
    9SAPS  H10R 1120   1.779   6.257   7.677  0.2507 -0.2183 -0.5495
    9SAPS  H10S 1121   1.719   6.113   7.760  0.4423  0.5381 -0.0652
    9SAPS  C211 1122   1.702   6.312   7.874 -0.3451  0.3044  0.3766
    9SAPS  H11R 1123   1.687   6.419   7.849 -0.4803 -0.0400 -1.1620
    9SAPS  C212 1124   1.706   6.271   8.001  0.1808  0.0070 -0.7195
    9SAPS  H12R 1125   1.698   6.349   8.078  0.8657  1.1645 -1.8082
    9SAPS  C213 1126   1.701   6.129   8.048  0.1027  0.6608  0.6423
    9SAPS  H13R 1127   1.800   6.109   8.096  0.3904  2.3031  0.8014
    9SAPS  H13S 1128   1.703   6.059   7.962 -1.5600 -2.2230  2.7747
    9SAPS  C214 1129   1.583   6.095   8.143  0.1580 -0.0987 -0.0842
    9SAPS  H14R 1130   1.496   6.063   8.083  1.8006  1.2504 -3.4980
    9SAPS  C215 1131   1.582   6.085   8.271  0.1810  0.6642  0.1154
    9SAPS  H15R 1132   1.485   6.063   8.317  1.5969  0.8124  3.4743
    9SAPS  C216 1133   1.690   6.100   8.376  0.1662  0.2693  0.2142
    9SAPS  H16R 1134   1.791   6.116   8.331 -0.2344 -2.3954 -1.9103
    9SAPS  H16S 1135   1.699   6.009   8.439 -1.4949  0.1849  0.3711
    9SAPS  C217 1136   1.643   6.212   8.474 -0.5620 -0.2376 -0.0090
    9SAPS  H17R 1137   1.547   6.190   8.524 -0.0189 -0.1055  1.1179
    9SAPS  H17S 1138   1.621   6.304   8.416 -2.8548 -1.9816 -2.1340
    9SAPS  C218 1139   1.762   6.234   8.573 -0.4001 -0.1965 -1.0353
    9SAPS  H18R 1140   1.858   6.259   8.523  0.8027 -1.2589  0.6656
    9SAPS  H18S 1141   1.772   6.129   8.608 -0.8245 -0.1486 -0.7635
    9SAPS  C219 1142   1.717   6.343   8.673 -0.3304 -0.1788  0.5030
    9SAPS  H19R 1143   1.637   6.298   8.735 -1.0919  0.2748 -0.1380
    9SAPS  H19S 1144   1.669   6.424   8.614  2.6064  0.0291 -1.8814
    9SAPS  C220 1145   1.831   6.394   8.766 -0.0991  0.3460 -0.3169
    9SAPS  H20R 1146   1.882   6.306   8.811 -0.9158 -0.3115 -0.6483
    9SAPS  H20S 1147   1.781   6.449   8.848  0.0878 -1.5824  1.1769
    9SAPS  H20T 1148   1.897   6.450   8.696 -2.3061  3.1690 -0.3112
    9SAPS   C33 1149   2.200   5.840   7.231  0.2026  0.1557 -0.0473
    9SAPS   H3X 1150   2.267   5.927   7.247 -0.7121  0.8069  0.3493
    9SAPS   H3Y 1151   2.262   5.765   7.178  0.6449  0.5266 -0.0630
    9SAPS   C34 1152   2.179   5.787   7.368 -0.1351  0.1392 -0.4429
    9SAPS   H4X 1153   2.265   5.726   7.404 -0.9368 -1.3563 -0.9519
    9SAPS   H4Y 1154   2.104   5.708   7.345 -0.2254  0.3110 -0.7452
    9SAPS   C35 1155   2.124   5.887   7.459  0.7514  0.5077  0.3105
    9SAPS   H5X 1156   2.035   5.930   7.407  0.2855  1.4320  1.8266
    9SAPS   H5Y 1157   2.186   5.977   7.479  0.2447  0.6324  1.3959
    9SAPS   C36 1158   2.082   5.831   7.595  0.4825 -0.1207  0.2705
    9SAPS   H6X 1159   2.166   5.811   7.665 -1.2815 -1.5974  2.0915
    9SAPS   H6Y 1160   2.015   5.744   7.585  1.1095 -0.5353 -0.3970
    9SAPS   C37 1161   1.988   5.927   7.666  0.6375  0.5454  0.3888
    9SAPS   H7X 1162   1.897   5.923   7.603  2.5135  0.8601 -2.5159
    9SAPS   H7Y 1163   2.036   6.028   7.662 -0.4823  1.1025  0.5422
    9SAPS   C38 1164   1.951   5.901   7.814  0.4431 -0.9774  0.2817
    9SAPS   H8X 1165   1.909   5.799   7.826  0.1964 -0.7718  1.2115
    9SAPS   H8Y 1166   1.862   5.965   7.834  1.9240  0.3836  3.1162
    9SAPS   C39 1167   2.068   5.924   7.917  0.9654  0.6924 -0.1952
    9SAPS   H9X 1168   2.088   6.033   7.924 -1.4194  1.1543  0.2628
    9SAPS   H9Y 1169   2.155   5.863   7.884 -0.6025 -1.0346 -1.3874
    9SAPS  C310 1170   2.041   5.861   8.056 -0.1445 -0.1903  0.6169
    9SAPS  H10X 1171   2.034   5.750   8.053 -0.9001 -0.1262 -0.8744
    9SAPS  H10Y 1172   1.946   5.903   8.097 -0.2196  0.5822 -0.3123
    9SAPS  C311 1173   2.166   5.884   8.152  0.3495  0.3657 -0.0561
    9SAPS  H11X 1174   2.209   5.985   8.136 -0.7857  0.7925 -0.4768
    9SAPS  H11Y 1175   2.244   5.815   8.113 -1.3877 -1.0620 -1.1786
    9SAPS  C312 1176   2.133   5.870   8.301  0.1738 -0.2217 -0.2537
    9SAPS  H12X 1177   2.103   5.766   8.325  0.9229 -0.9582 -2.3221
    9SAPS  H12Y 1178   2.040   5.924   8.331  0.7236  0.5431  0.1196
    9SAPS  C313 1179   2.247   5.903   8.394  0.4325  0.3848  0.3358
    9SAPS  H13X 1180   2.298   5.996   8.361  1.9639 -1.2702 -2.3255
    9SAPS  H13Y 1181   2.331   5.830   8.396  0.5073  0.4600  0.0391
    9SAPS  C314 1182   2.202   5.923   8.540 -0.4396 -0.4479  0.5790
    9SAPS  H14X 1183   2.119   5.997   8.535  1.7105  2.0187 -1.0871
    9SAPS  H14Y 1184   2.290   5.964   8.594  0.7511  3.6122 -3.7673
    9SAPS  C315 1185   2.169   5.793   8.614 -0.0043 -0.1529 -0.3163
    9SAPS  H15X 1186   2.254   5.722   8.608 -0.0543 -0.1044 -2.6588
    9SAPS  H15Y 1187   2.092   5.748   8.547 -1.6739 -1.7264  2.4369
    9SAPS  C316 1188   2.117   5.810   8.758  0.2261  0.5520  0.3152
    9SAPS  H16X 1189   2.020   5.864   8.743  0.9009  1.9101  0.6998
    9SAPS  H16Y 1190   2.188   5.868   8.820  0.3665  0.2835  0.4051
    9SAPS  C317 1191   2.092   5.681   8.835  0.4787 -0.0250  0.3382
    9SAPS  H17X 1192   2.051   5.698   8.937  1.6795  0.6431  0.7318
    9SAPS  H17Y 1193   2.188   5.624   8.838  0.2374 -0.8692 -3.2776
    9SAPS  C318 1194   1.998   5.583   8.760 -1.0779  0.2837  0.1428
    9SAPS  H18X 1195   1.900   5.632   8.745 -1.2023 -0.4113 -1.4994
    9SAPS  H18Y 1196   1.977   5.488   8.815 -1.1408 -0.5333 -1.2515
    9SAPS  H18Z 1197   2.043   5.553   8.663  2.0083 -2.2886  2.1464
   10SAPS     N 1198   1.399   4.925   6.336  0.1834 -0.3259  0.5412
   10SAPS   HN1 1199   1.468   5.000   6.312 -0.8122  1.2555  2.3416
   10SAPS   HN2 1200   1.305   4.959   6.308  0.1572  0.8708  1.9832
   10SAPS   HN3 1201   1.400   4.918   6.439  0.1412  1.4002  0.6996
   10SAPS   C12 1202   1.437   4.797   6.278 -0.0464  0.3790  0.7170
   10SAPS  H12A 1203   1.388   4.726   6.342 -0.8203 -0.8928 -1.1873
   10SAPS   C13 1204   1.400   4.774   6.130  0.4880  0.3744 -0.2351
   10SAPS  O13A 1205   1.396   4.870   6.052  0.4089 -0.5836  0.5851
   10SAPS  O13B 1206   1.406   4.654   6.076 -0.8449 -0.1035 -0.1663
   10SAPS   C11 1207   1.584   4.771   6.295  0.4150  0.1364  0.0563
   10SAPS  H11A 1208   1.635   4.846   6.231 -1.2134  1.8937  0.6939
   10SAPS  H11B 1209   1.621   4.673   6.257 -1.5965  0.0241 -1.8804
   10SAPS     P 1210   1.742   4.727   6.495  0.2458 -0.1693 -0.0718
   10SAPS   O13 1211   1.725   4.580   6.462 -0.4154  0.7500  0.0854
   10SAPS   O14 1212   1.866   4.795   6.456 -0.2530 -0.3083  0.5214
   10SAPS   O12 1213   1.623   4.804   6.429  0.2704  0.2233 -0.1358
   10SAPS   O11 1214   1.725   4.743   6.649  0.3684 -0.4052 -0.0811
   10SAPS    C1 1215   1.668   4.859   6.703  0.0596  0.4117  0.1834
   10SAPS    HA 1216   1.665   4.952   6.642 -0.0426 -0.0557 -0.5327
   10SAPS    HB 1217   1.563   4.832   6.730  0.6634 -1.1627  1.0779
   10SAPS    C2 1218   1.733   4.893   6.842 -0.3975  0.3526  0.9091
   10SAPS    HS 1219   1.662   4.956   6.901 -0.8363  1.9964 -1.2215
   10SAPS   O21 1220   1.859   4.964   6.814 -0.3167 -0.1474 -0.4410
   10SAPS   C21 1221   1.877   5.088   6.859  0.5950  0.1584  0.2792
   10SAPS   O22 1222   1.796   5.152   6.920  0.0182  0.3060 -0.5200
   10SAPS   C22 1223   2.018   5.142   6.810  1.4020  0.5000 -0.8518
   10SAPS   H2R 1224   2.089   5.061   6.837 -0.1591 -0.1268  1.8115
   10SAPS   H2S 1225   2.014   5.160   6.701 -1.0656 -1.2714 -1.1397
   10SAPS    C3 1226   1.766   4.762   6.920 -0.6809  0.0576 -0.4354
   10SAPS    HX 1227   1.860   4.722   6.876  0.7355  1.7742  0.9197
   10SAPS    HY 1228   1.680   4.693   6.906 -0.7061 -0.4669  1.8690
   10SAPS   O31 1229   1.793   4.786   7.069  0.5049 -0.1329 -0.3434
   10SAPS   C31 1230   1.682   4.815   7.130  0.0227 -0.0453  0.4079
   10SAPS   O32 1231   1.573   4.808   7.085  0.5209  0.4419  0.6219
   10SAPS   C32 1232   1.715   4.886   7.266 -0.0426 -0.4632 -0.2569
   10SAPS   H2X 1233   1.780   4.973   7.242  0.2837 -0.5000  0.4563
   10SAPS   H2Y 1234   1.779   4.808   7.313  0.7616 -0.3189 -1.0884
   10SAPS   C23 1235   2.057   5.268   6.896  0.7240 -0.2410  0.0795
   10SAPS   H3R 1236   1.981   5.349   6.889  1.5691  0.5291 -0.4066
   10SAPS   H3S 1237   2.147   5.310   6.845 -0.3226  3.6323  1.0556
   10SAPS   C24 1238   2.093   5.234   7.042  0.1688 -0.2427  0.0063
   10SAPS   H4R 1239   2.167   5.152   7.036 -2.7585 -3.0196 -3.5476
   10SAPS   H4S 1240   1.995   5.201   7.083 -0.2877  1.7284  0.6220
   10SAPS   C25 1241   2.132   5.352   7.125  0.1023 -0.0898 -1.0292
   10SAPS   H5R 1242   2.165   5.444   7.075 -0.9651  1.4713  0.9807
   10SAPS   C26 1243   2.154   5.363   7.259  0.3826 -0.1238  0.0991
   10SAPS   H6R 1244   2.190   5.457   7.302 -1.4192 -0.2002  1.9471
   10SAPS   C27 1245   2.137   5.253   7.361  0.4492 -0.0640  0.0104
   10SAPS   H7R 1246   2.218   5.264   7.436 -0.3819 -0.2263  0.9554
   10SAPS   H7S 1247   2.177   5.159   7.317  1.4714 -0.3547  1.5145
   10SAPS   C28 1248   1.996   5.240   7.428 -0.0922  0.6393 -0.3236
   10SAPS   H8R 1249   1.909   5.231   7.360  0.5774 -3.1353 -0.9013
   10SAPS   C29 1250   1.964   5.255   7.555 -0.5100 -0.6765 -0.8034
   10SAPS   H9R 1251   1.860   5.246   7.588  0.4708 -2.0224  2.3049
   10SAPS  C210 1252   2.059   5.273   7.674 -0.3879 -0.7729  0.1938
   10SAPS  H10R 1253   2.163   5.242   7.654  0.2865  2.4889 -2.1709
   10SAPS  H10S 1254   2.005   5.219   7.755 -0.2934  0.4833  1.1237
   10SAPS  C211 1255   2.062   5.421   7.714 -0.3440 -0.3262 -0.0559
   10SAPS  H11R 1256   2.051   5.488   7.627 -2.8027 -1.3454 -0.6123
   10SAPS  C212 1257   2.086   5.469   7.841  0.3993 -0.2408  0.2459
   10SAPS  H12R 1258   2.082   5.579   7.847  0.9026 -0.2566  0.9774
   10SAPS  C213 1259   2.114   5.381   7.959  0.2510 -0.1692 -0.2465
   10SAPS  H13R 1260   2.223   5.375   7.980  0.1237 -0.9766  0.2382
   10SAPS  H13S 1261   2.100   5.274   7.935  1.5189 -0.5986  0.8061
   10SAPS  C214 1262   2.024   5.429   8.071 -0.3633 -0.7511 -0.1122
   10SAPS  H14R 1263   1.924   5.468   8.051  0.9352  2.3776 -1.0742
   10SAPS  C215 1264   2.050   5.427   8.203  0.2742  0.3284 -1.1265
   10SAPS  H15R 1265   1.970   5.470   8.266 -0.2003 -1.6155 -0.3296
   10SAPS  C216 1266   2.171   5.371   8.279  0.6541  0.0080 -0.1994
   10SAPS  H16R 1267   2.214   5.451   8.343 -0.5150 -2.2129  3.7032
   10SAPS  H16S 1268   2.249   5.349   8.203 -0.6333 -2.4046 -0.9349
   10SAPS  C217 1269   2.137   5.245   8.355  0.4482  0.5615  0.5379
   10SAPS  H17R 1270   2.093   5.176   8.280 -0.9490  0.1297  1.7108
   10SAPS  H17S 1271   2.058   5.260   8.432  0.6113  0.8220  0.6592
   10SAPS  C218 1272   2.262   5.186   8.421 -0.1250 -0.2377 -0.1286
   10SAPS  H18R 1273   2.350   5.176   8.354 -1.2646 -1.6747 -1.4906
   10SAPS  H18S 1274   2.246   5.081   8.454  1.2786 -0.4913 -0.1994
   10SAPS  C219 1275   2.300   5.265   8.549  0.1461  0.7044  0.0999
   10SAPS  H19R 1276   2.222   5.256   8.627 -1.6624  0.4596 -1.6308
   10SAPS  H19S 1277   2.304   5.372   8.519 -1.5211  0.4785 -1.1219
   10SAPS  C220 1278   2.429   5.219   8.607  0.3715  0.0870 -0.1781
   10SAPS  H20R 1279   2.430   5.109   8.621 -2.2341 -0.5023 -3.5051
   10SAPS  H20S 1280   2.451   5.280   8.698 -1.2656  1.0822 -0.4149
   10SAPS  H20T 1281   2.513   5.251   8.541  0.5821  0.1358  0.1059
   10SAPS   C33 1282   1.592   4.937   7.351  0.2337  0.2082  0.2056
   10SAPS   H3X 1283   1.536   4.846   7.382  0.7688 -0.1565  0.1175
   10SAPS   H3Y 1284   1.534   4.992   7.273 -0.3559 -2.5926 -1.4882
   10SAPS   C34 1285   1.632   5.034   7.467 -0.2777 -0.0031  0.2811
   10SAPS   H4X 1286   1.626   5.140   7.437 -1.5377  0.4619  2.0144
   10SAPS   H4Y 1287   1.736   5.003   7.493 -0.4324  0.4921  1.5486
   10SAPS   C35 1288   1.540   5.024   7.586  0.0915  0.0295  0.4526
   10SAPS   H5X 1289   1.538   4.916   7.609  0.2042 -0.2122 -0.5921
   10SAPS   H5Y 1290   1.440   5.059   7.552  0.1196  0.4053  0.7518
   10SAPS   C36 1291   1.585   5.092   7.715 -0.2871 -0.4701  0.3513
   10SAPS   H6X 1292   1.567   5.199   7.692 -0.7431 -0.9741 -1.8992
   10SAPS   H6Y 1293   1.693   5.080   7.741 -0.6043 -0.4277  1.7461
   10SAPS   C37 1294   1.523   5.029   7.842 -0.2556 -0.2515  0.3606
   10SAPS   H7X 1295   1.553   4.922   7.835 -0.3749 -0.1867 -1.9250
   10SAPS   H7Y 1296   1.414   5.046   7.843 -0.3588 -0.5864 -1.6658
   10SAPS   C38 1297   1.585   5.099   7.965 -0.1462 -0.7080 -0.5697
   10SAPS   H8X 1298   1.579   5.207   7.939 -5.6994 -0.3308  1.1649
   10SAPS   H8Y 1299   1.691   5.066   7.978 -0.0764  0.3100  2.0456
   10SAPS   C39 1300   1.504   5.088   8.096  0.7950  0.7831 -0.3074
   10SAPS   H9X 1301   1.484   4.979   8.096 -1.5258  1.1529  0.3069
   10SAPS   H9Y 1302   1.398   5.121   8.089  0.8104  0.6707 -1.2314
   10SAPS  C310 1303   1.573   5.143   8.218  0.2104  0.3089  0.4826
   10SAPS  H10X 1304   1.557   5.252   8.209 -2.9705 -0.2628 -4.0699
   10SAPS  H10Y 1305   1.680   5.122   8.195  0.1792  2.5406 -2.1592
   10SAPS  C311 1306   1.513   5.096   8.353 -0.2122  0.2930 -0.2038
   10SAPS  H11X 1307   1.563   5.001   8.381  1.1310  0.9970 -0.1410
   10SAPS  H11Y 1308   1.402   5.090   8.355 -0.3512  2.3096  1.2619
   10SAPS  C312 1309   1.557   5.194   8.467 -0.5849  0.1516  0.1628
   10SAPS  H12X 1310   1.527   5.294   8.430  2.0513  1.5851  1.5718
   10SAPS  H12Y 1311   1.667   5.196   8.484 -0.4961  1.3006 -0.4797
   10SAPS  C313 1312   1.477   5.166   8.596  0.0518  0.2955  0.1254
   10SAPS  H13X 1313   1.454   5.057   8.593 -2.0147  0.6468  1.2629
   10SAPS  H13Y 1314   1.381   5.222   8.588 -0.6280 -0.6333  1.4263
   10SAPS  C314 1315   1.558   5.208   8.718  0.1646 -0.5668 -0.5242
   10SAPS  H14X 1316   1.609   5.303   8.690 -0.5024  0.2344  0.8114
   10SAPS  H14Y 1317   1.639   5.139   8.748 -0.0254 -0.8024 -0.5476
   10SAPS  C315 1318   1.477   5.225   8.847  1.0285  0.0268  0.5053
   10SAPS  H15X 1319   1.410   5.313   8.834  0.4415 -0.5872 -0.8132
   10SAPS  H15Y 1320   1.554   5.245   8.925  0.9167  1.6743  0.2375
   10SAPS  C316 1321   1.397   5.104   8.900 -0.7674  0.7629  1.0535
   10SAPS  H16X 1322   1.314   5.087   8.828 -1.2540  0.0104  1.7725
   10SAPS  H16Y 1323   1.353   5.115   9.001  0.2137 -0.2501  1.6271
   10SAPS  C317 1324   1.476   4.967   8.911 -0.0068  0.2271  0.1975
   10SAPS  H17X 1325   1.516   4.937   8.811  1.0264 -0.7019  0.8749
   10SAPS  H17Y 1326   1.399   4.891   8.935  0.8440 -1.0195 -0.8526
   10SAPS  C318 1327   1.583   4.950   9.019 -0.1993  0.5996  0.0901
   10SAPS  H18X 1328   1.670   5.010   8.985  0.2184  0.4009  0.7927
   10SAPS  H18Y 1329   1.609   4.842   9.014  0.9016  0.8972 -1.3405
   10SAPS  H18Z 1330   1.550   4.978   9.121  0.1664 -3.6622  1.5989
   11SAPS     N 1331   4.205   0.504   5.906  0.3887  0.1324  0.9877
   11SAPS   HN1 1332   4.104   0.502   5.881  1.2373 -3.2065 -3.2288
   11SAPS   HN2 1333   4.238   0.547   5.818 -5.3646 -0.6871 -2.0646
   11SAPS   HN3 1334   4.227   0.403   5.907 -1.3983 -0.4134 -2.1035
   11SAPS   C12 1335   4.242   0.590   6.022  0.0203  0.1331 -0.0542
   11SAPS  H12A 1336   4.258   0.691   5.990 -2.3774  0.1921 -1.2749
   11SAPS   C13 1337   4.121   0.605   6.112  0.4438 -0.2459 -0.0018
   11SAPS  O13A 1338   4.000   0.596   6.068  0.2463 -0.2173 -0.3369
   11SAPS  O13B 1339   4.144   0.669   6.218 -0.3276  0.0200  0.1758
   11SAPS   C11 1340   4.361   0.534   6.106 -0.3993  0.2392 -0.4101
   11SAPS  H11A 1341   4.326   0.442   6.157  0.1799  2.1282  3.8151
   11SAPS  H11B 1342   4.371   0.606   6.190  0.6201  0.1858 -0.4753
   11SAPS     P 1343   4.548   0.395   5.975  0.3527  0.1044  0.0489
   11SAPS   O13 1344   4.431   0.303   5.956 -0.4416 -0.1788  0.1495
   11SAPS   O14 1345   4.638   0.431   5.861  0.3141 -0.3922 -0.4310
   11SAPS   O12 1346   4.483   0.526   6.036 -0.5691 -0.0491 -0.5071
   11SAPS   O11 1347   4.627   0.340   6.093  0.3232 -0.4765  0.5476
   11SAPS    C1 1348   4.675   0.199   6.076 -0.0803 -0.3827  0.5273
   11SAPS    HA 1349   4.593   0.125   6.066 -1.6337  1.2549  0.6240
   11SAPS    HB 1350   4.741   0.195   5.987  0.6725  3.0267  0.8136
   11SAPS    C2 1351   4.759   0.154   6.200 -0.2264  0.1514  1.5760
   11SAPS    HS 1352   4.787   0.047   6.188  0.8684  0.6776 -1.5371
   11SAPS   O21 1353   4.691   0.198   6.320 -0.4137  0.1904  0.0844
   11SAPS   C21 1354   4.635   0.096   6.381  0.2437 -0.4251  0.2176
   11SAPS   O22 1355   4.635  -0.021   6.346 -0.6027  0.6964  0.5466
   11SAPS   C22 1356   4.560   0.147   6.503  0.2434  0.5646  0.2337
   11SAPS   H2R 1357   4.506   0.239   6.470  0.2064  0.2392 -0.6260
   11SAPS   H2S 1358   4.482   0.071   6.525  0.4286 -0.0398 -1.1291
   11SAPS    C3 1359   4.891   0.233   6.188  0.3968  0.1977 -0.4364
   11SAPS    HX 1360   4.872   0.343   6.195 -0.0574  0.0771  0.5183
   11SAPS    HY 1361   4.929   0.211   6.087 -2.5115  0.6091 -1.7371
   11SAPS   O31 1362   4.981   0.181   6.290 -0.6422  0.1809  0.4997
   11SAPS   C31 1363   4.987   0.254   6.395 -0.4214 -0.4034 -0.1833
   11SAPS   O32 1364   4.924   0.359   6.415  0.1897 -0.0965  0.3623
   11SAPS   C32 1365   5.071   0.191   6.508 -0.1134 -0.2039 -0.1394
   11SAPS   H2X 1366   5.164   0.158   6.456 -1.4564 -4.4547 -0.1361
   11SAPS   H2Y 1367   5.005   0.106   6.534 -1.3969  0.7312 -0.2422
   11SAPS   C23 1368   4.659   0.184   6.619  0.7341  0.7268  0.8814
   11SAPS   H3R 1369   4.707   0.284   6.609  0.7066  0.6640 -0.0230
   11SAPS   H3S 1370   4.742   0.111   6.608  0.7892  1.0121 -1.2015
   11SAPS   C24 1371   4.599   0.166   6.761  0.1913 -0.2450 -0.2380
   11SAPS   H4R 1372   4.558   0.062   6.757 -2.7382  0.6966  1.9639
   11SAPS   H4S 1373   4.519   0.240   6.781  0.4844 -0.2140  0.9001
   11SAPS   C25 1374   4.707   0.171   6.867 -0.2843  0.5095  0.4021
   11SAPS   H5R 1375   4.802   0.133   6.827 -1.1001 -0.1666 -0.9596
   11SAPS   C26 1376   4.701   0.214   6.992  0.5873  0.4198  0.3534
   11SAPS   H6R 1377   4.795   0.235   7.046  0.8360  1.1990 -0.3596
   11SAPS   C27 1378   4.579   0.270   7.061  0.3507  0.5773  0.5805
   11SAPS   H7R 1379   4.563   0.195   7.142  0.9887 -1.0339 -0.7163
   11SAPS   H7S 1380   4.489   0.263   6.996 -0.7335  0.3322  2.0593
   11SAPS   C28 1381   4.607   0.406   7.109 -0.1687  0.0451  0.9035
   11SAPS   H8R 1382   4.635   0.475   7.028  2.3526 -1.9056 -0.0306
   11SAPS   C29 1383   4.614   0.447   7.241 -0.3711  0.4375  0.0744
   11SAPS   H9R 1384   4.646   0.549   7.267  2.9583 -0.1255 -1.2233
   11SAPS  C210 1385   4.603   0.354   7.360  0.1037 -0.3449 -0.5856
   11SAPS  H10R 1386   4.659   0.259   7.348  0.0833 -0.4232 -0.0703
   11SAPS  H10S 1387   4.498   0.332   7.388  0.5608 -2.3313 -0.2847
   11SAPS  C211 1388   4.650   0.414   7.490  0.0371 -0.0505 -0.7959
   11SAPS  H11R 1389   4.745   0.373   7.529  0.4234  0.7249 -0.8944
   11SAPS  C212 1390   4.582   0.503   7.564  0.0773 -0.3011 -0.3389
   11SAPS  H12R 1391   4.633   0.559   7.644  0.1928  1.3920 -1.5460
   11SAPS  C213 1392   4.446   0.573   7.545  0.4351  0.6384 -0.7629
   11SAPS  H13R 1393   4.411   0.539   7.446  1.4756 -1.6834 -0.3942
   11SAPS  H13S 1394   4.448   0.684   7.534  1.0319  0.5328 -1.8521
   11SAPS  C214 1395   4.356   0.516   7.654  1.0545  0.3354 -0.1183
   11SAPS  H14R 1396   4.346   0.407   7.646 -0.0226  0.4138  0.1335
   11SAPS  C215 1397   4.288   0.580   7.749  0.8369 -0.6776 -0.5776
   11SAPS  H15R 1398   4.219   0.534   7.822  0.6870 -0.4935 -0.6023
   11SAPS  C216 1399   4.296   0.735   7.765  0.3652  0.3579  0.3147
   11SAPS  H16R 1400   4.213   0.795   7.724  1.2937  0.5713 -1.3382
   11SAPS  H16S 1401   4.384   0.781   7.715  1.6204 -2.4602 -0.3026
   11SAPS  C217 1402   4.295   0.785   7.913 -0.2572 -1.0199 -0.0616
   11SAPS  H17R 1403   4.212   0.729   7.960 -1.2916  0.4558 -0.0781
   11SAPS  H17S 1404   4.273   0.894   7.908  4.1334  0.0061 -1.9366
   11SAPS  C218 1405   4.432   0.758   7.976  0.0697  0.6976 -0.2236
   11SAPS  H18R 1406   4.521   0.804   7.928  2.1871 -2.5664  0.2248
   11SAPS  H18S 1407   4.461   0.651   7.973 -0.5126  0.3851  2.4031
   11SAPS  C219 1408   4.442   0.807   8.121 -0.0578 -0.1963 -0.5703
   11SAPS  H19R 1409   4.429   0.916   8.139 -2.2831 -0.6988  1.4380
   11SAPS  H19S 1410   4.541   0.780   8.163  0.8444 -0.5270 -2.7840
   11SAPS  C220 1411   4.341   0.732   8.211 -0.3055 -0.0480  0.2111
   11SAPS  H20R 1412   4.242   0.757   8.168  0.3167  0.0287 -1.2537
   11SAPS  H20S 1413   4.360   0.765   8.315  1.7530  0.6411 -0.3353
   11SAPS  H20T 1414   4.370   0.625   8.204  2.1356  0.6563 -1.7173
   11SAPS   C33 1415   5.118   0.292   6.617 -0.1675  0.1968 -0.4797
   11SAPS   H3X 1416   5.136   0.392   6.572  2.7004  0.9506  1.9793
   11SAPS   H3Y 1417   5.216   0.259   6.659 -0.4824 -0.4591 -0.2366
   11SAPS   C34 1418   5.031   0.306   6.747 -0.4144  0.2402 -0.2189
   11SAPS   H4X 1419   5.015   0.211   6.802 -1.1003 -0.4492 -1.5722
   11SAPS   H4Y 1420   4.932   0.345   6.715 -0.8273 -0.9515 -0.4294
   11SAPS   C35 1421   5.106   0.400   6.838 -0.1785 -0.3142 -0.3077
   11SAPS   H5X 1422   5.133   0.493   6.784  2.4804 -0.4956  0.6057
   11SAPS   H5Y 1423   5.200   0.356   6.876  1.0484  2.4038 -0.0325
   11SAPS   C36 1424   5.022   0.444   6.960  0.2952 -0.1346 -0.1878
   11SAPS   H6X 1425   5.021   0.364   7.036 -1.7582 -0.0793 -0.1133
   11SAPS   H6Y 1426   4.921   0.468   6.921  0.0474 -1.3414 -0.3090
   11SAPS   C37 1427   5.073   0.574   7.012  0.2255 -0.4329 -0.2966
   11SAPS   H7X 1428   5.051   0.644   6.928  0.5137  0.4149  0.3220
   11SAPS   H7Y 1429   5.183   0.581   7.028 -0.2643  3.0732  2.9033
   11SAPS   C38 1430   5.010   0.622   7.144  0.3545  0.6492 -0.5230
   11SAPS   H8X 1431   4.905   0.655   7.134  0.0076  0.4838  1.8768
   11SAPS   H8Y 1432   5.067   0.715   7.166 -1.2391  1.2936  1.0947
   11SAPS   C39 1433   5.029   0.515   7.257  0.4851 -0.4442 -0.3431
   11SAPS   H9X 1434   5.130   0.470   7.248  0.1503 -1.5459  0.9978
   11SAPS   H9Y 1435   4.957   0.435   7.228 -0.4192  0.5738 -0.9775
   11SAPS  C310 1436   4.982   0.571   7.398  0.3392 -0.4219  0.5553
   11SAPS  H10X 1437   4.871   0.578   7.392  0.3854  0.7143  0.6940
   11SAPS  H10Y 1438   5.029   0.671   7.406  2.9291 -1.6096  1.1777
   11SAPS  C311 1439   5.031   0.487   7.519  0.4500 -0.1223 -0.0945
   11SAPS  H11X 1440   5.140   0.467   7.528  0.6442  0.9094 -0.1138
   11SAPS  H11Y 1441   4.990   0.384   7.508 -1.0506  0.4420 -0.0523
   11SAPS  C312 1442   4.991   0.558   7.654 -0.6056 -0.1938  0.2290
   11SAPS  H12X 1443   4.883   0.582   7.661 -1.2414 -2.3963 -0.9977
   11SAPS  H12Y 1444   5.038   0.659   7.655 -1.0277  0.1372 -2.8668
   11SAPS  C313 1445   5.015   0.490   7.792 -0.4323 -0.2983 -0.0890
   11SAPS  H13X 1446   4.990   0.565   7.869  2.4163  0.9019 -0.1983
   11SAPS  H13Y 1447   5.126   0.496   7.782 -0.4908  1.6005  0.0305
   11SAPS  C314 1448   4.968   0.352   7.819  0.7213  0.6780 -0.7526
   11SAPS  H14X 1449   5.041   0.283   7.866 -0.5010  0.3252  0.7132
   11SAPS  H14Y 1450   4.958   0.297   7.723  0.1708 -0.0464 -0.2845
   11SAPS  C315 1451   4.836   0.344   7.895 -0.6276 -0.0783 -0.0665
   11SAPS  H15X 1452   4.749   0.365   7.829 -0.6412 -0.2202 -0.0950
   11SAPS  H15Y 1453   4.837   0.422   7.974 -0.3511 -1.3877  1.2625
   11SAPS  C316 1454   4.809   0.207   7.960 -0.2866  0.5649 -0.3241
   11SAPS  H16X 1455   4.887   0.190   8.037 -1.2723 -0.2191  0.5271
   11SAPS  H16Y 1456   4.822   0.120   7.892 -0.0361 -0.7963  1.3711
   11SAPS  C317 1457   4.676   0.188   8.041  0.5207 -0.1744 -0.0135
   11SAPS  H17X 1458   4.585   0.200   7.979 -1.1654 -0.9993  2.1544
   11SAPS  H17Y 1459   4.672   0.261   8.125 -0.6213 -0.8246  0.5241
   11SAPS  C318 1460   4.681   0.041   8.100  0.0269 -0.0775  1.0118
   11SAPS  H18X 1461   4.771   0.030   8.163  1.1382 -1.7287 -0.7328
   11SAPS  H18Y 1462   4.686  -0.031   8.016 -0.8135 -1.7876  2.3713
   11SAPS  H18Z 1463   4.585   0.020   8.152 -0.3193 -0.6567  0.1770
   12SAPS     N 1464   3.013   6.546   6.038 -0.4069 -0.3818 -0.3307
   12SAPS   HN1 1465   3.021   6.637   6.087 -0.6087 -0.3864 -0.2894
   12SAPS   HN2 1466   3.017   6.469   6.108  1.9936 -0.5974 -0.5947
   12SAPS   HN3 1467   3.088   6.541   5.965 -0.3500  0.8331 -0.3628
   12SAPS   C12 1468   2.877   6.546   5.971  0.7650 -0.6049  0.0622
   12SAPS  H12A 1469   2.881   6.623   5.896  2.7985  0.3594  1.0942
   12SAPS   C13 1470   2.847   6.423   5.884  1.0428 -0.8544  0.1594
   12SAPS  O13A 1471   2.749   6.421   5.805  0.6286  0.0671  0.4919
   12SAPS  O13B 1472   2.913   6.318   5.905 -0.1383  0.4521  0.1896
   12SAPS   C11 1473   2.772   6.559   6.082  0.0565  0.1105 -0.7694
   12SAPS  H11A 1474   2.774   6.464   6.139 -0.5249  0.5254 -0.0414
   12SAPS  H11B 1475   2.671   6.570   6.036 -0.0144 -2.0607 -1.2666
   12SAPS     P 1476   2.687   6.730   6.263 -0.0275  0.0741  0.0883
   12SAPS   O13 1477   2.681   6.875   6.230 -0.4990 -0.7406  0.0297
   12SAPS   O14 1478   2.563   6.650   6.231 -0.4044  0.0641  0.4089
   12SAPS   O12 1479   2.798   6.670   6.168  0.0815  0.3056  0.1495
   12SAPS   O11 1480   2.738   6.714   6.405  0.1660  0.7858 -0.0653
   12SAPS    C1 1481   2.858   6.636   6.437  0.4356  0.1676 -0.6868
   12SAPS    HA 1482   2.842   6.531   6.402 -1.4101  0.2172 -0.0965
   12SAPS    HB 1483   2.954   6.673   6.394  0.8699 -0.4282 -0.2431
   12SAPS    C2 1484   2.875   6.629   6.594 -0.4175 -0.2552 -0.3518
   12SAPS    HS 1485   2.810   6.555   6.645 -0.3147 -1.0955 -1.4234
   12SAPS   O21 1486   2.859   6.764   6.654 -0.3608  0.0017  0.3146
   12SAPS   C21 1487   2.732   6.783   6.694  0.1551 -0.4427  0.5094
   12SAPS   O22 1488   2.646   6.699   6.697  0.4058  0.8296 -0.0136
   12SAPS   C22 1489   2.701   6.931   6.733 -0.0661  0.9681 -0.5520
   12SAPS   H2R 1490   2.795   6.981   6.767  0.4693  1.0043 -1.9936
   12SAPS   H2S 1491   2.666   6.971   6.636  1.5928  0.9238 -1.2150
   12SAPS    C3 1492   3.020   6.573   6.608 -0.8622 -0.4770  0.3444
   12SAPS    HX 1493   3.086   6.651   6.564 -0.0496 -0.6383  1.2664
   12SAPS    HY 1494   3.029   6.480   6.547  0.7663  0.4490 -0.9075
   12SAPS   O31 1495   3.059   6.545   6.746  0.0753 -1.0474 -0.3717
   12SAPS   C31 1496   3.002   6.435   6.797 -0.1401  0.2835  0.1835
   12SAPS   O32 1497   2.925   6.354   6.747 -0.3590  0.1808  0.0787
   12SAPS   C32 1498   3.030   6.422   6.940  1.0323  0.3364 -0.9349
   12SAPS   H2X 1499   3.081   6.514   6.975  2.1275 -0.8665  0.8302
   12SAPS   H2Y 1500   3.086   6.327   6.955  0.2074 -0.5010 -2.7863
   12SAPS   C23 1501   2.593   6.946   6.844 -0.1024  0.2230 -0.3902
   12SAPS   H3R 1502   2.510   6.875   6.820  0.6137 -0.4489 -0.9684
   12SAPS   H3S 1503   2.551   7.049   6.845  0.0724  0.3093 -1.0550
   12SAPS   C24 1504   2.644   6.922   6.989  0.1870  0.8201  0.5890
   12SAPS   H4R 1505   2.664   6.814   7.011  2.5970  1.1678  0.4349
   12SAPS   H4S 1506   2.562   6.956   7.055  1.3940  1.8164  1.6388
   12SAPS   C25 1507   2.751   7.018   7.028 -0.1384  0.1939 -0.4496
   12SAPS   H5R 1508   2.729   7.125   7.010 -1.1721  0.1214  0.2626
   12SAPS   C26 1509   2.859   6.996   7.100 -0.0520 -0.4182 -0.0721
   12SAPS   H6R 1510   2.922   7.084   7.118 -0.9652 -0.1025  1.8406
   12SAPS   C27 1511   2.911   6.867   7.169 -0.2255 -0.8455 -0.1529
   12SAPS   H7R 1512   2.997   6.831   7.108  0.4491 -0.2144  0.4053
   12SAPS   H7S 1513   2.840   6.782   7.159  0.4622 -1.5819  1.0159
   12SAPS   C28 1514   2.960   6.865   7.313  0.0295  0.2490  0.2931
   12SAPS   H8R 1515   3.044   6.799   7.340  0.3544  1.5356  2.6976
   12SAPS   C29 1516   2.891   6.921   7.407  0.4400  0.1671 -0.4296
   12SAPS   H9R 1517   2.911   6.899   7.513 -2.0074 -0.2173 -0.0092
   12SAPS  C210 1518   2.758   7.002   7.393 -0.1744  0.5092 -0.2285
   12SAPS  H10R 1519   2.698   6.970   7.304  1.5523  0.9278 -1.6049
   12SAPS  H10S 1520   2.784   7.108   7.374  0.1425  0.4752  0.0128
   12SAPS  C211 1521   2.663   7.006   7.510  0.4918 -0.1891  0.5235
   12SAPS  H11R 1522   2.564   6.961   7.495 -0.2996  1.0917  1.7439
   12SAPS  C212 1523   2.687   7.063   7.627 -0.3716  0.4458 -0.7801
   12SAPS  H12R 1524   2.603   7.055   7.698  0.0010  0.4749 -0.3311
   12SAPS  C213 1525   2.816   7.130   7.674 -0.0407 -0.1133 -0.1654
   12SAPS  H13R 1526   2.804   7.238   7.701  4.7534  0.8157 -0.8646
   12SAPS  H13S 1527   2.887   7.150   7.591  1.6426 -0.3264  1.1611
   12SAPS  C214 1528   2.899   7.062   7.777  0.0054  0.6026 -0.2590
   12SAPS  H14R 1529   2.877   6.956   7.794  0.0209  0.9817  2.4380
   12SAPS  C215 1530   3.008   7.114   7.831 -0.5831 -0.0718  0.4137
   12SAPS  H15R 1531   3.059   7.052   7.906  0.0058 -0.9828 -0.7017
   12SAPS  C216 1532   3.065   7.254   7.807 -0.3681  0.1161 -0.0574
   12SAPS  H16R 1533   3.010   7.314   7.732  1.9169  1.8481 -0.4687
   12SAPS  H16S 1534   3.167   7.253   7.763  0.1340  2.1233  0.9389
   12SAPS  C217 1535   3.064   7.324   7.938  0.5432 -0.4812  0.2879
   12SAPS  H17R 1536   2.971   7.318   7.997 -0.4248 -1.2855 -1.2408
   12SAPS  H17S 1537   3.098   7.428   7.915  1.1655 -0.8376 -0.4684
   12SAPS  C218 1538   3.179   7.265   8.026  0.5691 -0.3369 -0.7301
   12SAPS  H18R 1539   3.278   7.284   7.979  0.1422  0.0868 -1.4903
   12SAPS  H18S 1540   3.169   7.157   8.050  0.6234  0.1907  1.9608
   12SAPS  C219 1541   3.192   7.334   8.163  0.3042 -0.0901 -0.3354
   12SAPS  H19R 1542   3.093   7.329   8.212  1.5242  1.7580  2.5510
   12SAPS  H19S 1543   3.232   7.438   8.156  1.9460 -0.7353 -1.1288
   12SAPS  C220 1544   3.298   7.268   8.247 -0.4545 -0.1132 -0.8085
   12SAPS  H20R 1545   3.306   7.312   8.349  0.6709  0.2588 -1.0384
   12SAPS  H20S 1546   3.399   7.274   8.200 -0.6884 -1.5779 -1.5584
   12SAPS  H20T 1547   3.273   7.161   8.261  1.5022 -0.3601  1.4905
   12SAPS   C33 1548   2.908   6.400   7.038  0.1582  0.2551  0.4966
   12SAPS   H3X 1549   2.935   6.398   7.145  3.2064 -1.1105 -0.1968
   12SAPS   H3Y 1550   2.863   6.304   7.005 -0.0184  0.6442 -0.4495
   12SAPS   C34 1551   2.808   6.515   7.024  0.8445 -0.0459 -0.4832
   12SAPS   H4X 1552   2.779   6.517   6.917 -1.2593 -2.1695 -0.0376
   12SAPS   H4Y 1553   2.850   6.611   7.060 -2.8051  0.8433  1.9717
   12SAPS   C35 1554   2.674   6.484   7.100 -0.4127 -0.2296 -0.7780
   12SAPS   H5X 1555   2.664   6.375   7.113 -0.0465 -0.0083  1.9375
   12SAPS   H5Y 1556   2.583   6.519   7.047 -0.9111 -0.6606 -0.2037
   12SAPS   C36 1557   2.682   6.532   7.243 -0.5083 -0.4530 -0.8195
   12SAPS   H6X 1558   2.692   6.642   7.231 -1.0777 -0.4849 -1.6560
   12SAPS   H6Y 1559   2.779   6.492   7.281 -2.3963 -1.9368  3.0477
   12SAPS   C37 1560   2.579   6.501   7.359  0.1101 -0.9980 -0.2292
   12SAPS   H7X 1561   2.578   6.390   7.365  1.2779 -1.0294 -0.2958
   12SAPS   H7Y 1562   2.478   6.537   7.332 -0.1193 -2.1759 -0.9827
   12SAPS   C38 1563   2.631   6.560   7.494  0.7555  0.8722 -0.4463
   12SAPS   H8X 1564   2.652   6.669   7.486  0.7320  1.2490  3.0419
   12SAPS   H8Y 1565   2.713   6.494   7.527 -0.6170 -1.8109 -2.0152
   12SAPS   C39 1566   2.527   6.532   7.607  0.1679 -0.2987  0.2029
   12SAPS   H9X 1567   2.489   6.428   7.607  1.7474 -0.9199  1.5568
   12SAPS   H9Y 1568   2.435   6.589   7.584 -0.1863 -1.6217 -1.9409
   12SAPS  C310 1569   2.575   6.575   7.740 -0.6297  0.6144 -0.2523
   12SAPS  H10X 1570   2.617   6.677   7.750  2.0193 -0.4697  0.5583
   12SAPS  H10Y 1571   2.651   6.496   7.757 -1.6918 -0.7957 -1.6677
   12SAPS  C311 1572   2.472   6.574   7.854  0.7533  0.3163 -0.1079
   12SAPS  H11X 1573   2.440   6.471   7.881  1.1763  0.0241 -0.6966
   12SAPS  H11Y 1574   2.380   6.634   7.835  1.6966  3.1841  3.2495
   12SAPS  C312 1575   2.532   6.640   7.983  0.6429 -0.0910  0.2284
   12SAPS  H12X 1576   2.455   6.636   8.063 -1.4704 -0.4916 -1.7059
   12SAPS  H12Y 1577   2.558   6.746   7.963 -0.2048 -0.1495 -1.2972
   12SAPS  C313 1578   2.660   6.577   8.032 -0.2262  0.0726  0.5934
   12SAPS  H13X 1579   2.750   6.583   7.968 -0.3134  3.5396  0.6043
   12SAPS  H13Y 1580   2.640   6.469   8.049  1.3127 -0.6091 -1.4884
   12SAPS  C314 1581   2.715   6.649   8.155 -0.2241 -0.9422  0.7026
   12SAPS  H14X 1582   2.771   6.579   8.221 -0.4167 -1.3223  0.4668
   12SAPS  H14Y 1583   2.625   6.672   8.214 -0.8638 -1.8209  0.0899
   12SAPS  C315 1584   2.801   6.766   8.115 -0.4580  0.3259 -0.0548
   12SAPS  H15X 1585   2.740   6.839   8.058 -0.7086 -1.1823 -1.8070
   12SAPS  H15Y 1586   2.879   6.739   8.042  0.4317 -2.7530  1.8293
   12SAPS  C316 1587   2.866   6.841   8.244  0.0475 -0.0489  0.3194
   12SAPS  H16X 1588   2.914   6.770   8.314  1.3160  0.3514 -0.1226
   12SAPS  H16Y 1589   2.781   6.890   8.297  1.5765  2.0049  0.9799
   12SAPS  C317 1590   2.973   6.938   8.199  0.0774 -0.5701 -0.3068
   12SAPS  H17X 1591   2.933   7.035   8.161 -1.1982  0.1385  2.5375
   12SAPS  H17Y 1592   3.033   6.889   8.120  0.7931  0.0532 -0.1584
   12SAPS  C318 1593   3.058   6.987   8.320  0.2077  0.3415 -0.0162
   12SAPS  H18X 1594   3.041   6.921   8.408 -1.3323 -1.2128 -1.4145
   12SAPS  H18Y 1595   3.038   7.093   8.347  3.0770  1.0618 -0.3870
   12SAPS  H18Z 1596   3.168   6.982   8.303  0.4172 -2.1857  1.4828
   13SAPS     N 1597   5.821   5.655   5.769  0.0399  0.1512 -0.0203
   13SAPS   HN1 1598   5.812   5.576   5.837  2.0331 -1.4607 -1.5225
   13SAPS   HN2 1599   5.734   5.711   5.757 -0.0444  0.0972  0.3132
   13SAPS   HN3 1600   5.846   5.617   5.676 -0.5556 -1.3360  0.3969
   13SAPS   C12 1601   5.929   5.745   5.827 -0.5202 -0.2694 -0.0783
   13SAPS  H12A 1602   6.002   5.675   5.865 -1.9614 -1.0874  1.3277
   13SAPS   C13 1603   5.991   5.851   5.732  0.4423 -0.1623 -0.6892
   13SAPS  O13A 1604   5.950   5.853   5.612  0.1099 -0.3767 -0.3070
   13SAPS  O13B 1605   6.068   5.942   5.778 -0.2020  0.4913 -0.6926
   13SAPS   C11 1606   5.857   5.814   5.957 -0.6594  0.4235  0.2308
   13SAPS  H11A 1607   5.932   5.890   5.986 -1.1126  0.5894  1.0041
   13SAPS  H11B 1608   5.839   5.735   6.033 -1.6186 -1.4652 -1.8495
   13SAPS     P 1609   5.706   6.026   5.964  0.2610  0.3188 -0.0807
   13SAPS   O13 1610   5.827   6.104   6.003  0.0010  1.2153 -0.1216
   13SAPS   O14 1611   5.608   6.076   5.868 -0.2192  0.3339 -0.0373
   13SAPS   O12 1612   5.739   5.874   5.921  0.0374  0.7503  0.0008
   13SAPS   O11 1613   5.613   6.004   6.095 -0.4527  0.4543 -0.0015
   13SAPS    C1 1614   5.661   5.953   6.224  0.4143  0.3964  0.0593
   13SAPS    HA 1615   5.606   5.860   6.252 -0.3622  1.5230  2.5659
   13SAPS    HB 1616   5.771   5.941   6.225  0.4592  0.8178  1.2703
   13SAPS    C2 1617   5.640   6.065   6.332 -0.3566 -0.2199  0.0448
   13SAPS    HS 1618   5.688   6.018   6.421  2.2203 -4.1629 -3.0748
   13SAPS   O21 1619   5.500   6.095   6.356 -0.1001 -0.3103  0.1308
   13SAPS   C21 1620   5.419   6.005   6.414 -0.5079  0.8435 -0.0235
   13SAPS   O22 1621   5.458   5.892   6.442 -0.0548 -0.0614 -0.1851
   13SAPS   C22 1622   5.285   6.070   6.450  0.2415 -0.0630 -0.0523
   13SAPS   H2R 1623   5.245   6.133   6.368 -0.0626 -0.2124 -0.0213
   13SAPS   H2S 1624   5.202   5.999   6.471 -0.0013 -0.1501 -1.2699
   13SAPS    C3 1625   5.732   6.191   6.293  0.5289  0.2428  0.2851
   13SAPS    HX 1626   5.691   6.238   6.201 -1.0741 -0.1907  0.7438
   13SAPS    HY 1627   5.830   6.148   6.263 -0.4832 -2.5262  0.5715
   13SAPS   O31 1628   5.753   6.274   6.410 -0.4346 -0.0082  0.8448
   13SAPS   C31 1629   5.678   6.392   6.417 -0.4788 -0.1672 -0.2197
   13SAPS   O32 1630   5.618   6.436   6.322 -0.3013 -0.4097 -0.4736
   13SAPS   C32 1631   5.677   6.451   6.564  0.2054 -0.3722 -0.2278
   13SAPS   H2X 1632   5.632   6.553   6.564  0.8419 -0.0660 -1.2164
   13SAPS   H2Y 1633   5.783   6.456   6.597 -0.8554 -2.1691  4.0410
   13SAPS   C23 1634   5.297   6.163   6.573 -0.4186 -0.0323 -0.1573
   13SAPS   H3R 1635   5.372   6.235   6.534 -1.4071  1.0472 -0.1304
   13SAPS   H3S 1636   5.350   6.126   6.663  1.9340  1.6192 -0.7773
   13SAPS   C24 1637   5.170   6.235   6.613 -0.4117 -0.5656 -0.6292
   13SAPS   H4R 1638   5.114   6.148   6.653 -0.0368 -0.4750  0.1278
   13SAPS   H4S 1639   5.122   6.281   6.524 -2.4868 -0.9534  0.2460
   13SAPS   C25 1640   5.191   6.340   6.719 -0.1845  0.0217  0.3577
   13SAPS   H5R 1641   5.245   6.430   6.688  0.3473 -0.5285 -0.3683
   13SAPS   C26 1642   5.143   6.331   6.842 -0.7438 -0.3508 -0.3197
   13SAPS   H6R 1643   5.165   6.418   6.906  0.0230  2.4858 -4.1226
   13SAPS   C27 1644   5.066   6.225   6.909  0.4886  0.1631 -0.5921
   13SAPS   H7R 1645   5.135   6.141   6.933  0.2419  0.7070  2.3499
   13SAPS   H7S 1646   4.987   6.179   6.846  0.0462 -0.1266  0.1607
   13SAPS   C28 1647   4.987   6.268   7.030  0.8348  0.1760  0.2184
   13SAPS   H8R 1648   4.932   6.361   7.010  0.9473 -0.1942 -2.0097
   13SAPS   C29 1649   4.982   6.216   7.149 -0.9582  0.2086 -0.2843
   13SAPS   H9R 1650   4.932   6.270   7.231  2.7314  0.0828  2.2840
   13SAPS  C210 1651   5.060   6.099   7.200 -0.3410 -0.1398  0.4163
   13SAPS  H10R 1652   5.105   6.132   7.296  0.9929  0.8275 -0.5094
   13SAPS  H10S 1653   5.139   6.067   7.128 -0.3100  0.8912 -0.0170
   13SAPS  C211 1654   4.974   5.981   7.238  0.3620  0.2406 -0.4543
   13SAPS  H11R 1655   4.901   5.958   7.159  1.7823  0.9035 -2.0328
   13SAPS  C212 1656   4.979   5.897   7.341  0.0927 -0.1038 -0.8832
   13SAPS  H12R 1657   4.894   5.827   7.350  0.4974 -0.3120  2.6495
   13SAPS  C213 1658   5.083   5.894   7.451  0.2642  0.3930  0.7635
   13SAPS  H13R 1659   5.041   5.952   7.536 -1.0027  1.0641 -0.2857
   13SAPS  H13S 1660   5.179   5.941   7.420  0.6556 -0.0928  1.2207
   13SAPS  C214 1661   5.102   5.753   7.497  0.7228  0.0193 -0.0371
   13SAPS  H14R 1662   5.125   5.687   7.411 -0.8762 -0.8942  0.1983
   13SAPS  C215 1663   5.083   5.703   7.625 -0.3051 -0.2034  0.1986
   13SAPS  H15R 1664   5.072   5.594   7.629  0.7238 -0.3031  0.7106
   13SAPS  C216 1665   5.024   5.789   7.733  0.6132 -0.2857 -0.0672
   13SAPS  H16R 1666   4.953   5.732   7.796  1.0521  0.1360  0.8234
   13SAPS  H16S 1667   4.952   5.865   7.697  1.7119  1.1245  0.5688
   13SAPS  C217 1668   5.127   5.874   7.816  0.7111  0.4026 -0.3869
   13SAPS  H17R 1669   5.188   5.930   7.743 -1.2765  1.9992 -0.9202
   13SAPS  H17S 1670   5.194   5.809   7.876  0.1502  0.9785  0.8897
   13SAPS  C218 1671   5.058   5.983   7.902 -0.2098 -0.3056  0.8197
   13SAPS  H18R 1672   5.002   6.058   7.842  1.2238  1.1885  1.3008
   13SAPS  H18S 1673   5.138   6.048   7.942 -0.5027 -0.0321  0.9698
   13SAPS  C219 1674   4.970   5.930   8.012  0.7608  0.1985  0.3911
   13SAPS  H19R 1675   5.018   5.850   8.073 -0.6449 -1.1960 -0.2632
   13SAPS  H19S 1676   4.883   5.877   7.968  2.1795 -1.9991  0.0304
   13SAPS  C220 1677   4.933   6.034   8.115  0.3318  0.5003  0.7667
   13SAPS  H20R 1678   5.022   6.096   8.141  2.6426 -1.2574 -2.1753
   13SAPS  H20S 1679   4.875   5.988   8.197  2.0360 -2.1490  0.5877
   13SAPS  H20T 1680   4.865   6.100   8.057  0.8413 -2.4942 -3.7628
   13SAPS   C33 1681   5.603   6.373   6.675 -0.3176 -0.3343  0.1683
   13SAPS   H3X 1682   5.656   6.276   6.690 -0.3700 -0.4014 -0.0738
   13SAPS   H3Y 1683   5.499   6.352   6.641 -0.0668 -0.4018 -0.5947
   13SAPS   C34 1684   5.603   6.460   6.808  0.4087  0.1405  0.0319
   13SAPS   H4X 1685   5.553   6.556   6.784  0.7928  0.2661 -0.2910
   13SAPS   H4Y 1686   5.707   6.481   6.841  0.1043  1.2971  0.2984
   13SAPS   C35 1687   5.538   6.401   6.927 -0.1253  0.3966  0.2563
   13SAPS   H5X 1688   5.564   6.294   6.942  1.8632  0.6360 -1.1241
   13SAPS   H5Y 1689   5.429   6.402   6.906 -0.0065 -1.5131 -0.7367
   13SAPS   C36 1690   5.547   6.478   7.055 -0.1406 -0.7053 -0.6800
   13SAPS   H6X 1691   5.525   6.584   7.030 -0.9491 -0.9402 -0.9838
   13SAPS   H6Y 1692   5.650   6.479   7.098 -0.3278 -0.6703 -0.2218
   13SAPS   C37 1693   5.464   6.420   7.173  1.2499 -0.2057 -0.5899
   13SAPS   H7X 1694   5.513   6.334   7.223  1.1918  0.2105  0.1860
   13SAPS   H7Y 1695   5.363   6.379   7.152  0.3864  1.0978  0.8187
   13SAPS   C38 1696   5.433   6.526   7.277  0.1060 -0.5088  0.4207
   13SAPS   H8X 1697   5.390   6.611   7.220 -1.0400 -1.4251 -0.1192
   13SAPS   H8Y 1698   5.524   6.556   7.332  0.0044 -1.2316  1.0036
   13SAPS   C39 1699   5.321   6.487   7.375  0.6305  0.6767 -0.0357
   13SAPS   H9X 1700   5.221   6.467   7.332 -0.9103  1.5448  2.8800
   13SAPS   H9Y 1701   5.310   6.571   7.446 -1.1787  1.5386 -1.2763
   13SAPS  C310 1702   5.361   6.364   7.465  0.8228  0.1901  0.0307
   13SAPS  H10X 1703   5.472   6.362   7.476  0.7808 -3.7129  1.1868
   13SAPS  H10Y 1704   5.338   6.268   7.415  2.2111 -0.0487 -0.1755
   13SAPS  C311 1705   5.284   6.374   7.595 -0.4116 -0.1746 -0.1697
   13SAPS  H11X 1706   5.176   6.352   7.581 -0.7096  1.6466 -0.9190
   13SAPS  H11Y 1707   5.302   6.476   7.636  1.8020 -0.0334 -1.3358
   13SAPS  C312 1708   5.345   6.273   7.702 -0.1363 -0.5790  0.2139
   13SAPS  H12X 1709   5.452   6.302   7.701 -0.7352  1.9320 -0.1320
   13SAPS  H12Y 1710   5.337   6.170   7.662  2.2332  0.1796 -2.4881
   13SAPS  C313 1711   5.285   6.286   7.847 -0.0811 -0.7834  0.3164
   13SAPS  H13X 1712   5.194   6.223   7.846 -1.8239  1.4418  3.4061
   13SAPS  H13Y 1713   5.262   6.393   7.865  2.4993 -0.1701  0.3833
   13SAPS  C314 1714   5.385   6.234   7.959  0.1946 -1.2885 -0.8353
   13SAPS  H14X 1715   5.470   6.305   7.965 -0.6432 -0.3902  1.7489
   13SAPS  H14Y 1716   5.419   6.130   7.940 -0.1573 -0.9029 -4.1734
   13SAPS  C315 1717   5.320   6.237   8.099 -0.2594  0.4437 -0.5514
   13SAPS  H15X 1718   5.235   6.165   8.095 -0.4346  0.6821 -1.2915
   13SAPS  H15Y 1719   5.282   6.338   8.122  0.9693  1.0184 -0.9248
   13SAPS  C316 1720   5.427   6.182   8.208 -0.2423 -0.7499  1.0027
   13SAPS  H16X 1721   5.517   6.247   8.196 -0.5281 -0.2464  1.5016
   13SAPS  H16Y 1722   5.447   6.075   8.188 -2.6011 -1.1636  0.5584
   13SAPS  C317 1723   5.393   6.183   8.355  0.4983  0.5666  0.2697
   13SAPS  H17X 1724   5.328   6.271   8.379  0.1240  0.2780  0.3310
   13SAPS  H17Y 1725   5.486   6.192   8.414  0.2708 -0.8844  0.8843
   13SAPS  C318 1726   5.321   6.057   8.388  0.1075  0.2657  0.0431
   13SAPS  H18X 1727   5.217   6.050   8.348  0.4461  0.8134 -0.9567
   13SAPS  H18Y 1728   5.316   6.057   8.499 -0.3982 -0.1359  0.0263
   13SAPS  H18Z 1729   5.388   5.974   8.360  0.8398  0.6608  0.5852
   14SAPS     N 1730   3.801   0.453   6.009 -0.4271 -0.4832 -0.3713
   14SAPS   HN1 1731   3.747   0.519   6.068  1.2923  1.1330 -0.5412
   14SAPS   HN2 1732   3.902   0.477   6.023 -0.3769 -1.4251  1.2549
   14SAPS   HN3 1733   3.774   0.467   5.910 -1.7514 -0.4790 -0.0233
   14SAPS   C12 1734   3.792   0.311   6.063  0.3005 -0.3428 -0.2563
   14SAPS  H12A 1735   3.731   0.260   5.988  0.4646  0.6106 -1.0537
   14SAPS   C13 1736   3.928   0.238   6.065 -0.5693  0.5297  0.8017
   14SAPS  O13A 1737   4.025   0.294   6.000 -0.4046 -0.3956  0.0133
   14SAPS  O13B 1738   3.946   0.128   6.125  0.2244 -0.0004 -0.0417
   14SAPS   C11 1739   3.732   0.300   6.201 -0.5878  0.6275  0.3074
   14SAPS  H11A 1740   3.805   0.363   6.256  2.6059 -1.7414 -0.8288
   14SAPS  H11B 1741   3.742   0.198   6.244  1.7329  0.4741 -0.4082
   14SAPS     P 1742   3.466   0.278   6.202  0.5426 -0.2173  0.2985
   14SAPS   O13 1743   3.370   0.384   6.239 -0.8154 -0.5409 -0.1081
   14SAPS   O14 1744   3.458   0.221   6.066 -0.9207 -0.7419  0.3480
   14SAPS   O12 1745   3.609   0.350   6.203  0.1764 -0.6478 -0.0054
   14SAPS   O11 1746   3.471   0.159   6.306  0.0645  0.4442  0.0964
   14SAPS    C1 1747   3.511   0.182   6.441  0.3113  0.9076  0.2757
   14SAPS    HA 1748   3.614   0.146   6.462  0.9622  1.5796 -1.5948
   14SAPS    HB 1749   3.509   0.288   6.473 -1.1393  1.1060 -0.3883
   14SAPS    C2 1750   3.427   0.095   6.540  0.9282 -0.5414  0.6136
   14SAPS    HS 1751   3.412  -0.005   6.493 -0.8535  0.3521 -0.8323
   14SAPS   O21 1752   3.304   0.159   6.565  0.3683 -0.5553  0.2754
   14SAPS   C21 1753   3.190   0.115   6.501  0.2095 -0.0918 -0.0788
   14SAPS   O22 1754   3.187   0.015   6.426 -0.2945  0.0159  0.1885
   14SAPS   C22 1755   3.069   0.197   6.526 -1.0299  0.0102 -0.1991
   14SAPS   H2R 1756   3.018   0.144   6.610  0.0168 -0.7713 -0.0405
   14SAPS   H2S 1757   3.091   0.302   6.557 -0.0062  0.4628 -2.2987
   14SAPS    C3 1758   3.496   0.065   6.681  0.3834  0.0388  0.0278
   14SAPS    HX 1759   3.514   0.165   6.726  0.8158  0.5735 -1.2911
   14SAPS    HY 1760   3.597   0.028   6.653  0.8616  0.2366  1.4065
   14SAPS   O31 1761   3.417  -0.026   6.768 -0.8876  0.0344  0.2882
   14SAPS   C31 1762   3.421  -0.153   6.727  0.4460 -0.0391  0.4498
   14SAPS   O32 1763   3.459  -0.195   6.615 -0.3315 -0.0192 -0.4235
   14SAPS   C32 1764   3.384  -0.236   6.855 -0.6288 -0.2080  0.7591
   14SAPS   H2X 1765   3.286  -0.286   6.835  0.2032 -1.4344 -0.4601
   14SAPS   H2Y 1766   3.365  -0.169   6.941 -0.9333 -1.2258  1.5050
   14SAPS   C23 1767   2.978   0.207   6.402  0.0551  0.4016  0.1844
   14SAPS   H3R 1768   2.941   0.103   6.386 -1.3296  0.6051  1.8507
   14SAPS   H3S 1769   3.034   0.236   6.310  0.3177 -3.1935 -0.9470
   14SAPS   C24 1770   2.875   0.319   6.426 -0.2216  0.1827 -0.3571
   14SAPS   H4R 1771   2.844   0.312   6.532 -0.9023  0.5786 -0.5248
   14SAPS   H4S 1772   2.786   0.291   6.366 -0.8108 -1.7950  1.3124
   14SAPS   C25 1773   2.937   0.457   6.395 -0.4352 -0.0726  0.2648
   14SAPS   H5R 1774   2.973   0.469   6.292  1.1086  0.7559  0.8673
   14SAPS   C26 1775   2.941   0.569   6.475  0.0297  0.4577 -0.2143
   14SAPS   H6R 1776   2.991   0.661   6.442  1.8437 -0.1712  0.6663
   14SAPS   C27 1777   2.882   0.586   6.619  0.2366  0.1380 -1.0892
   14SAPS   H7R 1778   2.780   0.543   6.621 -0.2320  1.2497  0.5480
   14SAPS   H7S 1779   2.872   0.693   6.646  0.9126 -0.0033 -0.2095
   14SAPS   C28 1780   2.947   0.505   6.729 -0.1813 -0.1095 -0.3587
   14SAPS   H8R 1781   2.979   0.406   6.693  1.1754  0.6301 -1.2913
   14SAPS   C29 1782   2.960   0.529   6.860 -1.0545 -0.3150  0.0189
   14SAPS   H9R 1783   3.011   0.456   6.926 -1.0921 -0.2442  0.1271
   14SAPS  C210 1784   2.921   0.656   6.929  0.2831 -0.5036  0.1775
   14SAPS  H10R 1785   2.880   0.728   6.856  3.7511 -0.9323 -2.4371
   14SAPS  H10S 1786   3.017   0.708   6.947  1.1933 -1.4941 -1.5790
   14SAPS  C211 1787   2.826   0.639   7.049 -0.7227  0.0438 -0.0255
   14SAPS  H11R 1788   2.718   0.645   7.027 -0.6896 -0.9676 -0.5077
   14SAPS  C212 1789   2.863   0.620   7.178 -0.4308 -0.3162 -0.0846
   14SAPS  H12R 1790   2.781   0.617   7.252 -0.2011 -0.9271  0.1515
   14SAPS  C213 1791   3.005   0.612   7.227 -0.0576 -0.2962 -0.6813
   14SAPS  H13R 1792   3.033   0.708   7.276 -0.6085 -0.3782 -0.1857
   14SAPS  H13S 1793   3.070   0.611   7.137 -2.6586  1.1327 -2.7024
   14SAPS  C214 1794   3.022   0.499   7.326 -0.0125 -0.7361  0.1067
   14SAPS  H14R 1795   2.931   0.465   7.376 -0.0754  1.8297  1.9094
   14SAPS  C215 1796   3.132   0.425   7.352 -0.0893  0.1391 -0.6337
   14SAPS  H15R 1797   3.122   0.341   7.423  0.4307 -1.2625 -2.1337
   14SAPS  C216 1798   3.271   0.427   7.294  0.0559  0.0890 -0.7667
   14SAPS  H16R 1799   3.345   0.426   7.377 -1.7007  3.6187  1.0351
   14SAPS  H16S 1800   3.292   0.513   7.227  0.7357  0.0314 -0.6305
   14SAPS  C217 1801   3.301   0.303   7.212 -0.5432 -0.2928  0.3258
   14SAPS  H17R 1802   3.291   0.214   7.278  0.2782 -1.0419 -0.5418
   14SAPS  H17S 1803   3.409   0.303   7.188 -0.6709  0.1870 -0.2868
   14SAPS  C218 1804   3.219   0.310   7.088 -0.0568  0.0226 -0.3011
   14SAPS  H18R 1805   3.242   0.402   7.030 -1.2007 -0.3315 -1.3714
   14SAPS  H18S 1806   3.110   0.323   7.109 -0.4676  0.4350 -2.4955
   14SAPS  C219 1807   3.237   0.191   6.989 -1.3266  0.0508  0.2046
   14SAPS  H19R 1808   3.214   0.103   7.053  2.3372 -0.4249  1.1364
   14SAPS  H19S 1809   3.345   0.187   6.960 -0.0544  1.0465  4.0982
   14SAPS  C220 1810   3.159   0.190   6.861 -0.3609 -0.1676  0.4263
   14SAPS  H20R 1811   3.171   0.289   6.813  0.4921 -0.4210  0.0987
   14SAPS  H20S 1812   3.051   0.178   6.884 -0.5309 -0.1400 -0.3402
   14SAPS  H20T 1813   3.192   0.109   6.793  0.0575 -0.1256  0.5712
   14SAPS   C33 1814   3.480  -0.348   6.881 -0.2654  0.3889  0.4103
   14SAPS   H3X 1815   3.491  -0.400   6.784 -0.3234  0.7967  0.1817
   14SAPS   H3Y 1816   3.443  -0.433   6.942  0.4323 -1.0571 -1.1066
   14SAPS   C34 1817   3.617  -0.298   6.919 -0.4310  0.2110  0.6875
   14SAPS   H4X 1818   3.658  -0.226   6.845  1.1415 -0.6858  0.6461
   14SAPS   H4Y 1819   3.693  -0.378   6.907 -0.9791 -0.1474 -0.4978
   14SAPS   C35 1820   3.613  -0.235   7.057  0.6397 -0.0417 -0.3041
   14SAPS   H5X 1821   3.599  -0.327   7.118  0.6252 -1.4611 -2.3290
   14SAPS   H5Y 1822   3.532  -0.161   7.077  0.0398 -0.5070 -0.9335
   14SAPS   C36 1823   3.748  -0.165   7.100 -0.3481 -0.0785 -0.0934
   14SAPS   H6X 1824   3.745  -0.061   7.062  2.2202  0.1689  0.2095
   14SAPS   H6Y 1825   3.833  -0.222   7.057  0.3327 -0.1911  1.3384
   14SAPS   C37 1826   3.756  -0.146   7.249 -0.3057 -0.0638 -0.3092
   14SAPS   H7X 1827   3.761  -0.249   7.290 -0.3350 -0.0059 -0.1593
   14SAPS   H7Y 1828   3.663  -0.110   7.298 -1.0770 -0.8011 -1.1965
   14SAPS   C38 1829   3.876  -0.057   7.298  0.2554 -0.0429  0.5059
   14SAPS   H8X 1830   3.965  -0.084   7.236  0.7313  0.5541  0.9186
   14SAPS   H8Y 1831   3.889  -0.079   7.406  0.1319 -0.4554  0.4390
   14SAPS   C39 1832   3.868   0.092   7.300 -0.3049 -0.1940  0.0886
   14SAPS   H9X 1833   3.795   0.125   7.377  1.3331 -1.4360  2.2621
   14SAPS   H9Y 1834   3.835   0.138   7.204  0.7861 -1.9552 -1.1944
   14SAPS  C310 1835   3.994   0.168   7.334  0.1726  0.5796  0.5582
   14SAPS  H10X 1836   3.991   0.279   7.334  1.6940  0.6799 -1.3413
   14SAPS  H10Y 1837   4.066   0.147   7.252 -1.5795 -0.8404 -0.6846
   14SAPS  C311 1838   4.078   0.128   7.452 -0.1024  0.2100  0.2941
   14SAPS  H11X 1839   4.173   0.185   7.444 -0.4287  0.7409  0.1083
   14SAPS  H11Y 1840   4.102   0.020   7.447  1.6864  0.5428  0.8418
   14SAPS  C312 1841   4.018   0.181   7.588 -0.8173  0.3500  0.4022
   14SAPS  H12X 1842   3.929   0.120   7.615 -2.4414  2.9740  1.4310
   14SAPS  H12Y 1843   3.995   0.289   7.574 -2.0605  0.3957  2.4415
   14SAPS  C313 1844   4.124   0.176   7.695 -0.1887 -0.4433 -0.0732
   14SAPS  H13X 1845   4.218   0.216   7.653 -0.7164 -1.4152 -2.2912
   14SAPS  H13Y 1846   4.138   0.075   7.737 -3.6960 -1.2220 -0.4627
   14SAPS  C314 1847   4.076   0.257   7.820  0.4527  0.0842 -0.0659
   14SAPS  H14X 1848   3.979   0.215   7.857 -0.3277  2.2792  0.4979
   14SAPS  H14Y 1849   4.049   0.360   7.789 -2.5088 -1.2433 -2.4902
   14SAPS  C315 1850   4.165   0.241   7.937  0.2972  0.0833 -0.3001
   14SAPS  H15X 1851   4.262   0.293   7.922 -0.4094  1.3909 -0.4398
   14SAPS  H15Y 1852   4.182   0.138   7.975  1.9587  0.5543  0.3526
   14SAPS  C316 1853   4.105   0.320   8.056 -0.7216 -0.2601  0.2180
   14SAPS  H16X 1854   4.003   0.278   8.073 -1.3446  1.3589  0.6483
   14SAPS  H16Y 1855   4.105   0.427   8.027  0.8580  0.4782  2.6167
   14SAPS  C317 1856   4.185   0.300   8.186  0.1873  0.1485  0.0675
   14SAPS  H17X 1857   4.169   0.191   8.204 -1.0591 -0.1132 -2.1278
   14SAPS  H17Y 1858   4.132   0.358   8.264  1.4880 -1.7429  2.5189
   14SAPS  C318 1859   4.336   0.320   8.184 -0.2559  0.3460 -0.0740
   14SAPS  H18X 1860   4.370   0.377   8.273  2.0072 -0.8297 -0.1318
   14SAPS  H18Y 1861   4.362   0.375   8.091 -0.7646 -2.0144 -1.6853
   14SAPS  H18Z 1862   4.386   0.222   8.172 -1.1612 -0.0707 -0.5212
   15SAPS     N 1863   5.041   2.311   5.850  0.0036 -0.1412  0.5955
   15SAPS   HN1 1864   5.026   2.411   5.872 -1.9938  0.3334 -2.3253
   15SAPS   HN2 1865   5.075   2.310   5.751 -0.9383 -0.6019  0.2597
   15SAPS   HN3 1866   4.947   2.266   5.841 -0.8706  1.9656 -2.2927
   15SAPS   C12 1867   5.139   2.244   5.937 -0.5942 -0.3987 -0.7402
   15SAPS  H12A 1868   5.087   2.230   6.031  1.0381  1.5069  0.5098
   15SAPS   C13 1869   5.189   2.105   5.893 -0.3450 -0.2562 -0.4195
   15SAPS  O13A 1870   5.185   2.070   5.772 -0.3016 -0.1662  0.2054
   15SAPS  O13B 1871   5.250   2.039   5.980 -0.2783  0.1430  0.3138
   15SAPS   C11 1872   5.254   2.351   5.956  0.0548  0.0535 -0.7572
   15SAPS  H11A 1873   5.318   2.372   5.868  0.3029  0.2525 -0.5328
   15SAPS  H11B 1874   5.316   2.314   6.041 -1.3038  0.3713  0.4168
   15SAPS     P 1875   5.236   2.564   6.125  0.0527  0.1664  0.1215
   15SAPS   O13 1876   5.358   2.644   6.085 -0.2089  0.6850 -0.0559
   15SAPS   O14 1877   5.118   2.655   6.148  0.2154  0.4407 -0.1855
   15SAPS   O12 1878   5.192   2.477   6.000  0.2879  0.2408  0.2924
   15SAPS   O11 1879   5.257   2.478   6.254 -0.6136  0.5738  0.5157
   15SAPS    C1 1880   5.151   2.401   6.311  0.2192  1.3125  0.6065
   15SAPS    HA 1881   5.068   2.382   6.240  2.1283  0.4713 -1.5269
   15SAPS    HB 1882   5.192   2.302   6.342  2.3422  2.6003  2.2155
   15SAPS    C2 1883   5.096   2.468   6.442 -0.6460 -0.5877 -0.8521
   15SAPS    HS 1884   5.065   2.571   6.413  3.1801  0.8178 -0.5061
   15SAPS   O21 1885   5.207   2.484   6.536 -0.7198 -0.5445 -0.8925
   15SAPS   C21 1886   5.195   2.583   6.624  0.5962 -0.1233  0.3723
   15SAPS   O22 1887   5.108   2.667   6.628  0.9132  0.0155  0.6008
   15SAPS   C22 1888   5.319   2.589   6.725  0.1192 -0.2942  0.5810
   15SAPS   H2R 1889   5.391   2.505   6.717  0.0122 -0.4732  1.3426
   15SAPS   H2S 1890   5.359   2.684   6.683  1.3757 -1.2824 -0.5345
   15SAPS    C3 1891   4.973   2.392   6.498 -0.0307 -0.2085  0.0132
   15SAPS    HX 1892   5.006   2.293   6.535 -1.0424 -0.4668  0.2415
   15SAPS    HY 1893   4.905   2.380   6.411  1.0963  2.1938 -1.3004
   15SAPS   O31 1894   4.904   2.452   6.613 -0.2152 -0.2389 -0.0644
   15SAPS   C31 1895   4.838   2.562   6.592  0.1791  0.0244  0.6837
   15SAPS   O32 1896   4.831   2.615   6.482  0.1336 -0.0919  0.5052
   15SAPS   C32 1897   4.773   2.602   6.727  0.6172 -0.1831  0.2101
   15SAPS   H2X 1898   4.683   2.537   6.733 -0.9172  1.9270  1.5696
   15SAPS   H2Y 1899   4.749   2.710   6.717  0.3370 -0.2694 -0.0762
   15SAPS   C23 1900   5.271   2.606   6.869 -0.2155 -0.8861 -0.1361
   15SAPS   H3R 1901   5.169   2.651   6.870 -0.0166 -0.3152  2.2697
   15SAPS   H3S 1902   5.337   2.684   6.912 -1.3532  0.2294 -0.3521
   15SAPS   C24 1903   5.287   2.476   6.955  0.2556 -0.5275 -0.3921
   15SAPS   H4R 1904   5.290   2.497   7.064  1.7433  0.6817 -0.6285
   15SAPS   H4S 1905   5.388   2.437   6.930  0.4932 -1.4774  1.8254
   15SAPS   C25 1906   5.179   2.378   6.927  0.0306  0.2560  0.3044
   15SAPS   H5R 1907   5.144   2.381   6.822 -1.4843  0.3773  0.8005
   15SAPS   C26 1908   5.125   2.284   7.005  0.6154  0.2796 -0.6934
   15SAPS   H6R 1909   5.050   2.215   6.962  0.3351  0.3121 -0.2715
   15SAPS   C27 1910   5.165   2.257   7.152  0.1842 -0.0076  0.1956
   15SAPS   H7R 1911   5.236   2.329   7.198  0.2349 -1.0978  1.9194
   15SAPS   H7S 1912   5.214   2.159   7.169  3.4563  1.4689  0.0151
   15SAPS   C28 1913   5.034   2.252   7.234 -0.1004  0.4244  0.7120
   15SAPS   H8R 1914   4.938   2.243   7.181  0.0396  2.2842  0.0521
   15SAPS   C29 1915   5.023   2.259   7.363  0.2306  0.5348 -0.0780
   15SAPS   H9R 1916   4.925   2.247   7.413  0.0674 -1.2081 -0.7419
   15SAPS  C210 1917   5.136   2.277   7.465  0.4074  0.7694  0.0082
   15SAPS  H10R 1918   5.232   2.240   7.423 -0.5558 -1.9196 -0.0237
   15SAPS  H10S 1919   5.119   2.206   7.549 -0.6135 -0.0008 -0.8141
   15SAPS  C211 1920   5.132   2.415   7.514 -0.2839 -0.9276 -0.1822
   15SAPS  H11R 1921   5.106   2.494   7.441  1.7741  0.4519  0.5013
   15SAPS  C212 1922   5.167   2.455   7.643 -0.3310 -1.1984  0.2261
   15SAPS  H12R 1923   5.158   2.563   7.665 -0.8965 -1.1739 -0.1019
   15SAPS  C213 1924   5.211   2.359   7.754 -0.2116 -0.3277  0.2046
   15SAPS  H13R 1925   5.297   2.411   7.802 -0.9478  0.1964  0.9852
   15SAPS  H13S 1926   5.262   2.277   7.700  0.5628 -1.1362  2.1078
   15SAPS  C214 1927   5.095   2.313   7.840  0.2374 -0.2611  0.6716
   15SAPS  H14R 1928   5.016   2.285   7.768  1.6298  2.8953 -2.4176
   15SAPS  C215 1929   5.092   2.274   7.972  0.2822  0.2248  0.2140
   15SAPS  H15R 1930   5.006   2.227   8.021 -0.9690  1.7598 -0.4496
   15SAPS  C216 1931   5.213   2.293   8.064  0.1391  0.1628 -0.1987
   15SAPS  H16R 1932   5.246   2.398   8.073 -2.9020  1.0827  1.8422
   15SAPS  H16S 1933   5.295   2.230   8.024 -1.5245 -1.4338 -1.2661
   15SAPS  C217 1934   5.190   2.243   8.211  0.3501 -0.4869 -0.3742
   15SAPS  H17R 1935   5.291   2.256   8.256  0.4960  1.3670 -1.1233
   15SAPS  H17S 1936   5.172   2.135   8.229  1.8150 -0.5189  1.0378
   15SAPS  C218 1937   5.090   2.336   8.287 -0.5917  0.2540 -0.0421
   15SAPS  H18R 1938   4.989   2.326   8.242 -0.7846 -2.1107  0.7889
   15SAPS  H18S 1939   5.138   2.434   8.268  1.4197 -0.3455  1.5567
   15SAPS  C219 1940   5.089   2.302   8.439  0.0513 -0.2510  0.2412
   15SAPS  H19R 1941   5.067   2.196   8.461 -3.7913  0.6662  1.6280
   15SAPS  H19S 1942   5.005   2.356   8.488  0.3831  1.9303 -1.4120
   15SAPS  C220 1943   5.220   2.340   8.515 -0.5016  0.1827 -0.3109
   15SAPS  H20R 1944   5.203   2.343   8.625 -0.4133 -1.7411 -0.2195
   15SAPS  H20S 1945   5.269   2.436   8.487 -0.6848  0.0038 -1.2825
   15SAPS  H20T 1946   5.296   2.259   8.508 -0.7700 -0.1829  0.7303
   15SAPS   C33 1947   4.862   2.574   6.847  0.7041 -0.5660  0.7811
   15SAPS   H3X 1948   4.963   2.615   6.826  1.4034 -2.4601  0.2710
   15SAPS   H3Y 1949   4.868   2.463   6.848 -1.1243 -0.7117 -0.3518
   15SAPS   C34 1950   4.800   2.626   6.971  0.0226 -0.2566 -0.1633
   15SAPS   H4X 1951   4.696   2.586   6.969 -0.3795  0.8000 -1.0347
   15SAPS   H4Y 1952   4.797   2.737   6.961  3.0468 -0.2074 -1.9230
   15SAPS   C35 1953   4.872   2.583   7.100 -0.3570  0.2526 -0.2529
   15SAPS   H5X 1954   4.976   2.617   7.121 -0.0994 -0.2646 -0.6384
   15SAPS   H5Y 1955   4.877   2.472   7.094 -0.6729  0.2098  0.2969
   15SAPS   C36 1956   4.786   2.618   7.222 -0.1867 -0.2378  0.5719
   15SAPS   H6X 1957   4.695   2.558   7.199 -1.1278  1.5760 -0.6809
   15SAPS   H6Y 1958   4.764   2.726   7.207  0.0247 -0.3327 -0.4969
   15SAPS   C37 1959   4.846   2.593   7.363 -0.1645 -0.3788  0.5198
   15SAPS   H7X 1960   4.947   2.638   7.372 -1.2334  2.2289  0.2760
   15SAPS   H7Y 1961   4.853   2.483   7.381  1.1057 -0.9420 -2.7410
   15SAPS   C38 1962   4.765   2.643   7.487 -0.5430 -0.8245  1.0264
   15SAPS   H8X 1963   4.671   2.584   7.489  0.3520 -2.3316  0.6441
   15SAPS   H8Y 1964   4.746   2.752   7.484  0.7124 -0.6043 -1.1351
   15SAPS   C39 1965   4.836   2.607   7.619 -1.0161  0.2392 -0.7085
   15SAPS   H9X 1966   4.923   2.673   7.643  0.0011 -1.0966 -0.5893
   15SAPS   H9Y 1967   4.874   2.503   7.608 -0.0552  0.2547  1.9221
   15SAPS  C310 1968   4.749   2.623   7.737 -0.0237 -0.8418  0.2126
   15SAPS  H10X 1969   4.649   2.574   7.729 -0.0835 -0.6983  0.0906
   15SAPS  H10Y 1970   4.722   2.730   7.741  0.4043 -0.7747  2.1959
   15SAPS  C311 1971   4.826   2.576   7.864  0.5200 -0.6222 -0.0046
   15SAPS  H11X 1972   4.929   2.617   7.865  1.1898 -1.9450 -3.3115
   15SAPS  H11Y 1973   4.833   2.465   7.861 -2.0133 -0.8423 -0.1987
   15SAPS  C312 1974   4.760   2.626   7.993 -0.1026 -0.5652 -0.2775
   15SAPS  H12X 1975   4.666   2.568   8.008 -0.7045  0.4683  0.0815
   15SAPS  H12Y 1976   4.739   2.735   7.997 -1.6978 -0.8520 -0.1117
   15SAPS  C313 1977   4.846   2.599   8.124 -0.3213  1.1257  0.1946
   15SAPS  H13X 1978   4.928   2.670   8.100 -0.5196  0.9996 -0.9313
   15SAPS  H13Y 1979   4.882   2.494   8.125 -0.9458  0.8320 -2.3198
   15SAPS  C314 1980   4.774   2.628   8.258 -0.2336 -0.4528  0.1451
   15SAPS  H14X 1981   4.700   2.546   8.266  1.0977 -1.5151  3.4448
   15SAPS  H14Y 1982   4.726   2.725   8.232 -1.5540 -1.5777 -1.8769
   15SAPS  C315 1983   4.865   2.621   8.377  0.6129 -0.2504  0.2854
   15SAPS  H15X 1984   4.932   2.710   8.370 -2.0066  1.9586  1.5657
   15SAPS  H15Y 1985   4.933   2.533   8.379  1.2626  0.2365 -0.1307
   15SAPS  C316 1986   4.785   2.627   8.505 -0.3182 -0.2725  0.4778
   15SAPS  H16X 1987   4.709   2.547   8.517 -1.1457  0.7414  2.5073
   15SAPS  H16Y 1988   4.715   2.713   8.496 -0.3572 -0.1142  2.0410
   15SAPS  C317 1989   4.877   2.634   8.638 -0.3979  0.5343 -0.1190
   15SAPS  H17X 1990   4.962   2.705   8.628  0.0800 -0.0608 -0.3860
   15SAPS  H17Y 1991   4.930   2.538   8.652 -1.7350  0.0647  2.0601
   15SAPS  C318 1992   4.780   2.670   8.747 -0.7114  0.6102 -0.3109
   15SAPS  H18X 1993   4.828   2.685   8.847 -0.4724  0.6564 -0.4313
   15SAPS  H18Y 1994   4.704   2.591   8.766  0.2120 -0.0648  0.7215
   15SAPS  H18Z 1995   4.731   2.766   8.721 -0.7854  0.2699 -1.4492
   16SAPS     N 1996   0.510   2.980   6.235  0.1865  0.1462  0.0633
   16SAPS   HN1 1997   0.529   3.060   6.298 -0.3672 -1.4879  2.4598
   16SAPS   HN2 1998   0.475   2.903   6.296  0.4292 -2.1774 -2.5242
   16SAPS   HN3 1999   0.599   2.954   6.189  1.3081  1.3378  1.4813
   16SAPS   C12 2000   0.399   3.010   6.137  0.5568  0.2470  0.7768
   16SAPS  H12A 2001   0.422   3.109   6.100  0.4867  0.7219  1.9866
   16SAPS   C13 2002   0.392   2.906   6.016 -0.1598  0.7486 -0.9573
   16SAPS  O13A 2003   0.410   2.786   6.054 -0.0838 -0.7977 -0.7082
   16SAPS  O13B 2004   0.321   2.933   5.913  0.3578 -0.1000 -0.3279
   16SAPS   C11 2005   0.257   3.006   6.210 -0.5653  0.0919  0.0628
   16SAPS  H11A 2006   0.238   2.898   6.224  1.1681 -0.2763 -0.1945
   16SAPS  H11B 2007   0.177   3.046   6.144 -0.4569  2.1161  1.0705
   16SAPS     P 2008   0.144   3.120   6.409  0.2401 -0.1967  0.3887
   16SAPS   O13 2009   0.060   3.174   6.302  0.1061 -0.2518  0.0613
   16SAPS   O14 2010   0.089   3.033   6.512 -0.2230 -0.2046  0.0593
   16SAPS   O12 2011   0.269   3.049   6.345  0.0044  0.1608 -0.4731
   16SAPS   O11 2012   0.206   3.245   6.475  0.1574  0.1004 -0.3711
   16SAPS    C1 2013   0.346   3.253   6.512  0.1170 -0.0398 -0.2187
   16SAPS    HA 2014   0.416   3.184   6.460  0.9688  0.0030  0.8261
   16SAPS    HB 2015   0.379   3.358   6.492  1.3229 -0.1310  1.1169
   16SAPS    C2 2016   0.380   3.199   6.659 -0.3527 -0.4664  0.2783
   16SAPS    HS 2017   0.370   3.089   6.655  1.8903 -0.6881 -1.3489
   16SAPS   O21 2018   0.280   3.269   6.736 -0.2905  0.1115 -0.3507
   16SAPS   C21 2019   0.229   3.194   6.830 -0.1548 -0.5067 -0.0709
   16SAPS   O22 2020   0.253   3.081   6.864  0.0231 -0.1962  0.3149
   16SAPS   C22 2021   0.122   3.274   6.898  1.1257 -0.4298  0.0847
   16SAPS   H2R 2022   0.093   3.357   6.831  1.9341  0.1196  0.3999
   16SAPS   H2S 2023   0.032   3.211   6.915  0.1198  1.0955  0.6976
   16SAPS    C3 2024   0.516   3.241   6.720  0.4337 -0.2639 -0.1786
   16SAPS    HX 2025   0.508   3.351   6.727  1.1552 -0.1633 -0.7354
   16SAPS    HY 2026   0.599   3.212   6.652  0.1537  0.5944 -0.8965
   16SAPS   O31 2027   0.549   3.187   6.849  0.2205 -0.1957 -0.6451
   16SAPS   C31 2028   0.581   3.062   6.858 -0.1488 -0.1063 -0.9013
   16SAPS   O32 2029   0.575   2.979   6.768 -0.4103  0.4431 -1.0536
   16SAPS   C32 2030   0.618   3.035   7.003 -0.4806 -0.0100 -0.0915
   16SAPS   H2X 2031   0.586   3.126   7.058 -0.0006  0.3686 -0.4383
   16SAPS   H2Y 2032   0.728   3.023   7.007 -0.5369 -1.6354 -2.1106
   16SAPS   C23 2033   0.153   3.344   7.027  0.6463 -0.7291  0.2845
   16SAPS   H3R 2034   0.069   3.410   7.059 -0.3598 -1.5194 -0.6654
   16SAPS   H3S 2035   0.236   3.418   7.021  0.6889 -0.6248  1.7555
   16SAPS   C24 2036   0.182   3.248   7.141 -0.0248 -0.0840 -0.3229
   16SAPS   H4R 2037   0.288   3.218   7.130  0.4159  0.5354  1.8111
   16SAPS   H4S 2038   0.129   3.153   7.119 -0.1331 -0.1195  0.0848
   16SAPS   C25 2039   0.158   3.290   7.279 -0.1555  0.0197  0.2926
   16SAPS   H5R 2040   0.093   3.378   7.290  2.0802  1.7917  0.0708
   16SAPS   C26 2041   0.195   3.217   7.389  0.2930  0.3733 -0.0317
   16SAPS   H6R 2042   0.174   3.259   7.489 -3.0922 -0.2286 -0.3608
   16SAPS   C27 2043   0.278   3.090   7.390 -0.1730 -0.0804 -0.9839
   16SAPS   H7R 2044   0.373   3.104   7.446 -0.4332  1.2949 -0.8644
   16SAPS   H7S 2045   0.310   3.058   7.289 -0.1644  1.0891 -1.3581
   16SAPS   C28 2046   0.192   2.979   7.445 -1.4272 -0.1338 -0.0217
   16SAPS   H8R 2047   0.151   2.911   7.368 -1.8832  2.1983 -1.9640
   16SAPS   C29 2048   0.175   2.945   7.578 -0.3879 -0.4349  0.4464
   16SAPS   H9R 2049   0.120   2.852   7.595 -0.6314 -0.7630 -1.8818
   16SAPS  C210 2050   0.229   3.015   7.698  0.0069 -0.0180  0.0394
   16SAPS  H10R 2051   0.147   3.030   7.771  1.9576 -0.8602  2.5268
   16SAPS  H10S 2052   0.280   3.111   7.678  0.6003 -0.4044 -0.3270
   16SAPS  C211 2053   0.334   2.923   7.763  0.0583 -0.1198  0.0100
   16SAPS  H11R 2054   0.412   2.887   7.695 -0.3482 -0.7214 -0.1448
   16SAPS  C212 2055   0.323   2.856   7.880  0.5213  0.3652 -0.6874
   16SAPS  H12R 2056   0.408   2.792   7.907  0.4170  0.2909 -0.5331
   16SAPS  C213 2057   0.210   2.867   7.980  0.1169  0.8103  0.2477
   16SAPS  H13R 2058   0.115   2.881   7.925 -1.0819 -2.3816  1.3152
   16SAPS  H13S 2059   0.215   2.965   8.033 -2.3425  2.2538 -1.9891
   16SAPS  C214 2060   0.196   2.746   8.077 -0.4712  0.3578  0.0507
   16SAPS  H14R 2061   0.234   2.648   8.043  3.0517  1.5842  0.0301
   16SAPS  C215 2062   0.165   2.751   8.203 -0.2791 -0.3267 -0.1353
   16SAPS  H15R 2063   0.164   2.660   8.264 -0.3934  0.7337  1.5161
   16SAPS  C216 2064   0.139   2.882   8.278  0.3191  0.2078  0.0853
   16SAPS  H16R 2065   0.056   2.943   8.237 -0.1192 -0.4250  0.0200
   16SAPS  H16S 2066   0.233   2.941   8.284 -1.2418  3.0726 -1.4054
   16SAPS  C217 2067   0.099   2.844   8.421 -0.3195  0.2553 -0.4073
   16SAPS  H17R 2068   0.011   2.777   8.433 -0.0223  0.3674  3.8314
   16SAPS  H17S 2069   0.063   2.939   8.466  2.3784  0.9475  0.4951
   16SAPS  C218 2070   0.215   2.812   8.521 -0.0919 -0.0372 -0.0742
   16SAPS  H18R 2071   0.301   2.877   8.492 -1.1473  1.4452  0.0265
   16SAPS  H18S 2072   0.247   2.706   8.509 -0.3741 -0.1696  0.3456
   16SAPS  C219 2073   0.185   2.832   8.670  0.2752 -0.0168  0.0884
   16SAPS  H19R 2074   0.182   2.943   8.676  0.9210  0.0849 -1.0172
   16SAPS  H19S 2075   0.268   2.793   8.732  1.3235 -0.8636 -1.7529
   16SAPS  C220 2076   0.055   2.762   8.713  0.4706 -0.0435  0.0297
   16SAPS  H20R 2077   0.075   2.652   8.709  1.5068  0.1100  0.6586
   16SAPS  H20S 2078  -0.035   2.773   8.649 -0.9163 -2.2673  1.4399
   16SAPS  H20T 2079   0.018   2.798   8.811  0.4979  0.2911 -0.0847
   16SAPS   C33 2080   0.544   2.907   7.056 -0.5406 -0.1179 -0.2458
   16SAPS   H3X 2081   0.567   2.821   6.989 -1.5500 -0.0603 -0.6923
   16SAPS   H3Y 2082   0.434   2.922   7.043 -0.4546  1.3640  0.5276
   16SAPS   C34 2083   0.561   2.878   7.203 -0.3465 -0.0927 -0.3624
   16SAPS   H4X 2084   0.532   2.973   7.255 -1.2535  0.9278 -2.5896
   16SAPS   H4Y 2085   0.668   2.867   7.229 -0.0442 -3.2804 -2.5049
   16SAPS   C35 2086   0.478   2.750   7.247  0.2254  0.1233  0.5346
   16SAPS   H5X 2087   0.505   2.655   7.195 -1.3973  0.6309 -1.3657
   16SAPS   H5Y 2088   0.373   2.758   7.211  0.8736  1.9132 -1.1388
   16SAPS   C36 2089   0.453   2.730   7.395  0.2223 -0.7988  0.2135
   16SAPS   H6X 2090   0.356   2.678   7.407  0.7677 -1.9142 -0.0674
   16SAPS   H6Y 2091   0.426   2.828   7.438  2.5071 -0.0481  0.0766
   16SAPS   C37 2092   0.565   2.663   7.477 -0.0845  0.2471 -0.5833
   16SAPS   H7X 2093   0.649   2.732   7.501 -1.4210  2.0103 -0.7334
   16SAPS   H7Y 2094   0.609   2.584   7.413  1.9671  0.1768  0.8091
   16SAPS   C38 2095   0.513   2.608   7.609 -0.1698 -0.2673 -0.0089
   16SAPS   H8X 2096   0.425   2.543   7.589  0.4775 -1.0732 -0.3288
   16SAPS   H8Y 2097   0.466   2.696   7.658 -2.4690 -1.9539  0.9881
   16SAPS   C39 2098   0.630   2.545   7.693  0.2239  0.3766 -0.1212
   16SAPS   H9X 2099   0.701   2.629   7.713  1.2467 -0.7216  1.0773
   16SAPS   H9Y 2100   0.676   2.467   7.630 -0.1676  0.7456 -0.8723
   16SAPS  C310 2101   0.588   2.488   7.828 -0.1702  0.5793 -0.0935
   16SAPS  H10X 2102   0.525   2.399   7.807  1.6332 -0.6837 -0.3417
   16SAPS  H10Y 2103   0.514   2.555   7.877 -0.7074  0.6083 -0.9289
   16SAPS  C311 2104   0.708   2.455   7.922 -0.2108  0.1247 -0.5304
   16SAPS  H11X 2105   0.763   2.547   7.950  0.2166  0.1944 -1.5675
   16SAPS  H11Y 2106   0.782   2.385   7.878 -1.4652 -1.2267 -0.5734
   16SAPS  C312 2107   0.653   2.394   8.054 -0.9200 -0.5076 -0.1645
   16SAPS  H12X 2108   0.611   2.293   8.035  1.6217 -1.5306 -0.8358
   16SAPS  H12Y 2109   0.568   2.453   8.093 -2.3548 -2.2169 -0.5821
   16SAPS  C313 2110   0.757   2.385   8.165  0.0014 -0.9248 -0.4023
   16SAPS  H13X 2111   0.779   2.490   8.193  1.5531 -1.0866 -0.9071
   16SAPS  H13Y 2112   0.855   2.348   8.128  1.3537 -0.9603  2.9045
   16SAPS  C314 2113   0.700   2.303   8.283  0.1714 -0.8441  0.0929
   16SAPS  H14X 2114   0.667   2.201   8.253 -1.6962  0.2185 -1.7262
   16SAPS  H14Y 2115   0.604   2.350   8.313  0.0482  0.4868 -2.1263
   16SAPS  C315 2116   0.779   2.301   8.413 -0.0266  0.0973  0.0912
   16SAPS  H15X 2117   0.859   2.224   8.406 -1.4257 -1.4858  0.6877
   16SAPS  H15Y 2118   0.706   2.272   8.492  0.3785 -2.4831 -0.3705
   16SAPS  C316 2119   0.848   2.432   8.453  0.4667 -0.1914  0.6775
   16SAPS  H16X 2120   0.774   2.513   8.471  1.0094  0.1014  1.6862
   16SAPS  H16Y 2121   0.912   2.463   8.367 -0.5963 -0.1719 -0.1251
   16SAPS  C317 2122   0.932   2.409   8.577 -0.0161  0.3743  0.2159
   16SAPS  H17X 2123   1.008   2.490   8.592  0.0578  0.2794  0.3535
   16SAPS  H17Y 2124   0.988   2.313   8.571 -0.6091 -0.0361  1.1451
   16SAPS  C318 2125   0.851   2.407   8.708  0.0312  0.0656  0.4769
   16SAPS  H18X 2126   0.922   2.407   8.793 -1.2801  0.3315  1.6110
   16SAPS  H18Y 2127   0.781   2.321   8.707 -1.1952  1.0235  0.8484
   16SAPS  H18Z 2128   0.790   2.500   8.702 -2.0205 -1.2839 -0.7328
   17SAPC     N 2129   1.520   0.925  10.623 -0.6855  0.0136 -0.0085
   17SAPC   C12 2130   1.658   0.972  10.678 -0.2298 -0.4194 -0.5258
   17SAPC  H12A 2131   1.691   0.905  10.756 -0.2853 -1.0012 -0.9952
   17SAPC  H12B 2132   1.630   1.066  10.725  0.5650  0.3040 -1.4604
   17SAPC   C13 2133   1.538   0.787  10.584 -0.2892  0.1986  0.5284
   17SAPC  H13A 2134   1.618   0.777  10.511  2.4226 -1.7828  3.4734
   17SAPC  H13B 2135   1.564   0.725  10.668  3.4404  3.5009  2.1094
   17SAPC  H13C 2136   1.443   0.752  10.546 -1.1420  3.0714 -0.2124
   17SAPC   C14 2137   1.411   0.936  10.726  0.0922  0.8921 -0.2288
   17SAPC  H14A 2138   1.426   0.872  10.812  0.7511  2.0999  0.5867
   17SAPC  H14B 2139   1.405   1.037  10.764 -3.3877  0.8887 -0.3926
   17SAPC  H14C 2140   1.313   0.919  10.683  0.0023 -2.3636  0.9732
   17SAPC   C15 2141   1.471   1.004  10.500  0.6582  0.1754 -0.0014
   17SAPC  H15A 2142   1.444   1.107  10.516 -1.1584 -0.6507  2.9582
   17SAPC  H15B 2143   1.555   1.000  10.432 -0.2922 -3.1801 -1.1897
   17SAPC  H15C 2144   1.383   0.958  10.457  1.5739 -0.5506 -1.1619
   17SAPC   C11 2145   1.780   0.993  10.591  0.2735 -0.0467  0.5395
   17SAPC  H11A 2146   1.791   0.896  10.538 -0.0234  0.0565  0.2901
   17SAPC  H11B 2147   1.871   1.003  10.654  1.7078 -4.7208 -0.4342
   17SAPC     P 2148   1.777   1.241  10.548  0.1885  0.1285 -0.3731
   17SAPC   O13 2149   1.670   1.280  10.641  0.0863 -0.0059 -0.2846
   17SAPC   O14 2150   1.922   1.250  10.593 -0.5003 -0.2392  0.6837
   17SAPC   O12 2151   1.760   1.094  10.497 -0.6405 -0.1370 -0.1055
   17SAPC   O11 2152   1.749   1.325  10.415 -0.4897  0.7929 -0.1717
   17SAPC    C1 2153   1.796   1.289  10.284 -1.1751 -0.0294 -1.3330
   17SAPC    HA 2154   1.828   1.384  10.235  0.0735 -0.0209 -0.5656
   17SAPC    HB 2155   1.887   1.226  10.297 -0.0265  1.8098  0.2130
   17SAPC    C2 2156   1.682   1.227  10.199  0.2083 -0.8613  0.1305
   17SAPC    HS 2157   1.642   1.149  10.268 -2.2844  0.3280  0.1312
   17SAPC   O21 2158   1.730   1.178  10.075  0.0995 -0.1927  0.3975
   17SAPC   C21 2159   1.665   1.070  10.035 -0.0652  0.1686 -0.4778
   17SAPC   O22 2160   1.581   1.008  10.098 -0.1341  0.2541  0.3426
   17SAPC   C22 2161   1.730   1.023   9.902  0.3026  0.3902 -0.8213
   17SAPC   H2R 2162   1.758   1.112   9.843  2.9937 -0.0258 -0.3139
   17SAPC   H2S 2163   1.828   0.978   9.929 -1.3255 -3.7912 -1.0547
   17SAPC    C3 2164   1.566   1.334  10.186 -0.2409  0.3895 -0.4108
   17SAPC    HX 2165   1.556   1.372  10.289  1.2858  0.3504 -0.2205
   17SAPC    HY 2166   1.472   1.282  10.157  1.2320 -1.3251 -2.4645
   17SAPC   O31 2167   1.602   1.441  10.091  0.2787  0.3280  0.6651
   17SAPC   C31 2168   1.523   1.539  10.099 -0.3987  0.4299  0.6850
   17SAPC   O32 2169   1.439   1.554  10.186 -0.0376  0.2599 -0.6844
   17SAPC   C32 2170   1.554   1.631   9.987  0.6897  0.6906 -0.6157
   17SAPC   H2X 2171   1.612   1.719  10.022  0.4435  1.3727 -1.8721
   17SAPC   H2Y 2172   1.462   1.688   9.962  1.6987  2.7574  0.1027
   17SAPC   C23 2173   1.646   0.907   9.830 -0.7453 -0.2222  0.8922
   17SAPC   H3R 2174   1.543   0.947   9.824  0.4814  3.4828  1.7948
   17SAPC   H3S 2175   1.643   0.814   9.891 -1.3924  0.7816  2.4695
   17SAPC   C24 2176   1.691   0.874   9.693  0.2092 -0.0896  0.3914
   17SAPC   H4R 2177   1.646   0.775   9.669  0.0576 -0.3196  1.5997
   17SAPC   H4S 2178   1.797   0.839   9.696 -0.3897 -1.9486  1.3885
   17SAPC   C25 2179   1.675   0.977   9.588 -0.2975 -0.4686 -0.7997
   17SAPC   H5R 2180   1.712   1.073   9.625 -1.7024 -0.4103  0.5783
   17SAPC   C26 2181   1.608   0.968   9.474 -0.0251  0.5335  0.2134
   17SAPC   H6R 2182   1.608   1.054   9.405  1.6894  1.6240  1.4918
   17SAPC   C27 2183   1.543   0.843   9.432  0.5636  1.1916 -1.1129
   17SAPC   H7R 2184   1.439   0.837   9.469  0.4596 -0.9251 -1.6360
   17SAPC   H7S 2185   1.592   0.755   9.478 -1.1723  0.7267 -0.0652
   17SAPC   C28 2186   1.530   0.826   9.283  0.0571  0.1952  1.2148
   17SAPC   H8R 2187   1.512   0.915   9.221  0.4599  0.3974  1.3871
   17SAPC   C29 2188   1.528   0.699   9.224 -0.1448 -0.7792 -0.1664
   17SAPC   H9R 2189   1.515   0.689   9.116  0.2999 -0.2158 -0.2795
   17SAPC  C210 2190   1.537   0.564   9.295  0.2541 -0.5042  0.5262
   17SAPC  H10R 2191   1.441   0.510   9.281 -1.3134  2.2237  0.0884
   17SAPC  H10S 2192   1.538   0.577   9.405  0.1343  1.7291  0.3049
   17SAPC  C211 2193   1.665   0.494   9.261  0.2969 -0.0157  0.4726
   17SAPC  H11R 2194   1.749   0.503   9.331  0.6709  2.3845 -0.1879
   17SAPC  C212 2195   1.667   0.405   9.158  0.2146  0.5298  0.0197
   17SAPC  H12R 2196   1.767   0.365   9.136  0.1388 -0.2819  1.0567
   17SAPC  C213 2197   1.548   0.376   9.068  0.1790 -0.1695  0.6843
   17SAPC  H13R 2198   1.552   0.450   8.985 -2.2502 -1.0647 -0.3360
   17SAPC  H13S 2199   1.448   0.397   9.112 -1.1102 -2.2852 -1.0260
   17SAPC  C214 2200   1.555   0.229   9.032 -0.3122 -0.5222 -0.5726
   17SAPC  H14R 2201   1.648   0.208   8.977  0.5468  0.1166  0.6107
   17SAPC  C215 2202   1.476   0.120   9.061  0.4907 -0.5186  0.0238
   17SAPC  H15R 2203   1.520   0.027   9.021 -0.3587 -0.3779 -1.3241
   17SAPC  C216 2204   1.350   0.115   9.139  0.0963  0.1369  0.3535
   17SAPC  H16R 2205   1.265   0.105   9.069 -0.9050 -0.7057  1.6352
   17SAPC  H16S 2206   1.337   0.209   9.197 -1.1250  2.1016 -2.8343
   17SAPC  C217 2207   1.359  -0.008   9.226 -0.0213 -0.2088  0.0467
   17SAPC  H17R 2208   1.458  -0.015   9.277  0.8035 -1.3785 -1.5940
   17SAPC  H17S 2209   1.354  -0.096   9.159 -3.8904 -1.0781  1.2520
   17SAPC  C218 2210   1.248  -0.019   9.333 -0.3782  0.5471  0.1941
   17SAPC  H18R 2211   1.228  -0.126   9.354 -0.6389  0.3515 -1.0006
   17SAPC  H18S 2212   1.147   0.012   9.297 -2.2450 -2.5227  2.2445
   17SAPC  C219 2213   1.283   0.053   9.461  0.4256 -0.2618 -0.1488
   17SAPC  H19R 2214   1.316   0.157   9.439 -0.3804  0.2397  0.9380
   17SAPC  H19S 2215   1.373   0.004   9.506 -1.5647 -3.9068  0.2434
   17SAPC  C220 2216   1.166   0.057   9.563  0.2990 -0.2573  0.3460
   17SAPC  H20R 2217   1.184   0.140   9.634 -1.5221 -1.5597  2.4606
   17SAPC  H20S 2218   1.169  -0.035   9.625  0.0888  0.7413  1.8808
   17SAPC  H20T 2219   1.071   0.075   9.509  1.5423  0.5202 -1.7151
   17SAPC   C33 2220   1.605   1.569   9.851 -0.1424  0.5081 -0.6308
   17SAPC   H3X 2221   1.700   1.513   9.853 -0.7201 -0.5340 -1.3016
   17SAPC   H3Y 2222   1.635   1.648   9.778  0.9549 -0.9680 -1.8310
   17SAPC   C34 2223   1.495   1.480   9.790  0.4483  0.2217 -0.6479
   17SAPC   H4X 2224   1.393   1.522   9.801 -0.1234 -1.5904  1.8720
   17SAPC   H4Y 2225   1.493   1.392   9.857 -3.6056 -0.1139 -0.9845
   17SAPC   C35 2226   1.507   1.432   9.647 -0.4691 -0.0905  0.0399
   17SAPC   H5X 2227   1.410   1.382   9.626  0.2043 -1.4931  0.1503
   17SAPC   H5Y 2228   1.582   1.351   9.637 -1.3501 -0.6780 -2.3723
   17SAPC   C36 2229   1.521   1.544   9.543  0.4071 -0.5224  0.2711
   17SAPC   H6X 2230   1.625   1.583   9.539  1.0046 -2.1363 -2.2911
   17SAPC   H6Y 2231   1.454   1.631   9.561  0.8087 -0.1989  0.2133
   17SAPC   C37 2232   1.492   1.495   9.396 -0.5265 -0.2167 -0.5508
   17SAPC   H7X 2233   1.549   1.568   9.333  0.0990  0.3405  0.6242
   17SAPC   H7Y 2234   1.384   1.507   9.372  0.2853  0.0417 -4.8488
   17SAPC   C38 2235   1.544   1.360   9.357  0.0417 -0.2381  0.2177
   17SAPC   H8X 2236   1.485   1.277   9.402 -0.0044 -0.1361  0.3470
   17SAPC   H8Y 2237   1.647   1.331   9.386 -0.8407 -1.7840  2.0543
   17SAPC   C39 2238   1.536   1.342   9.206  0.4567 -0.5100 -0.4331
   17SAPC   H9X 2239   1.585   1.428   9.154 -1.6550  2.0664  1.5488
   17SAPC   H9Y 2240   1.429   1.343   9.176 -0.0954  3.3576  1.1057
   17SAPC  C310 2241   1.581   1.203   9.170  0.0812  0.2206 -0.0276
   17SAPC  H10X 2242   1.525   1.130   9.233  0.0983  0.3601  0.1506
   17SAPC  H10Y 2243   1.690   1.188   9.185  0.1285  0.5458 -0.0362
   17SAPC  C311 2244   1.564   1.175   9.019  0.1484 -0.3216  0.1042
   17SAPC  H11X 2245   1.621   1.083   8.995  1.0238  0.7967 -2.3819
   17SAPC  H11Y 2246   1.608   1.255   8.957  0.4766  0.7167  1.6198
   17SAPC  C312 2247   1.413   1.163   8.985 -0.0647  0.6316  0.4931
   17SAPC  H12X 2248   1.372   1.266   8.989  0.8760  0.9907  1.9474
   17SAPC  H12Y 2249   1.358   1.114   9.069 -1.7700  0.2220 -0.8034
   17SAPC  C313 2250   1.382   1.095   8.854  0.7172 -0.6467 -0.2765
   17SAPC  H13X 2251   1.274   1.097   8.827  0.3770  0.6447  1.0402
   17SAPC  H13Y 2252   1.416   0.991   8.874 -0.4424 -0.6460  1.9472
   17SAPC  C314 2253   1.452   1.153   8.730 -0.2621  0.0075  0.1086
   17SAPC  H14X 2254   1.559   1.145   8.760 -0.1799 -2.0963 -0.5707
   17SAPC  H14Y 2255   1.421   1.258   8.715 -0.8389 -0.2153 -0.2900
   17SAPC  C315 2256   1.428   1.075   8.600  0.3533  0.1492 -0.0954
   17SAPC  H15X 2257   1.319   1.089   8.582 -0.4155 -1.3149  2.8447
   17SAPC  H15Y 2258   1.438   0.966   8.619  0.9972  0.5807  2.2671
   17SAPC  C316 2259   1.519   1.121   8.485 -0.9205  0.1644 -0.9446
   17SAPC  H16X 2260   1.625   1.120   8.519 -1.4547 -0.0485  0.8637
   17SAPC  H16Y 2261   1.491   1.224   8.454 -0.8712  0.0859 -1.2534
   17SAPC  C317 2262   1.508   1.028   8.370  0.1169  0.3540  0.0442
   17SAPC  H17X 2263   1.558   1.069   8.280  1.1813 -0.9304  0.0180
   17SAPC  H17Y 2264   1.398   1.019   8.358 -0.0798 -0.0838  1.8999
   17SAPC  C318 2265   1.572   0.887   8.392  0.5007 -0.2363 -0.3919
   17SAPC  H18X 2266   1.517   0.816   8.327 -2.7900  1.2569  0.5358
   17SAPC  H18Y 2267   1.675   0.883   8.352  0.8259  1.8723  0.1164
   17SAPC  H18Z 2268   1.579   0.859   8.499  2.1178 -0.5473 -0.5634
   18SAPC     N 2269   4.239   1.360  10.682  0.5595 -0.0331  0.3194
   18SAPC   C12 2270   4.099   1.359  10.617  0.1437  0.3887 -0.0394
   18SAPC  H12A 2271   4.107   1.310  10.521  1.2113  0.5562 -0.0522
   18SAPC  H12B 2272   4.066   1.460  10.598  1.8077  1.2506  1.3589
   18SAPC   C13 2273   4.344   1.387  10.581 -0.0537 -0.0586  0.7356
   18SAPC  H13A 2274   4.335   1.487  10.540  0.8093 -0.7391 -1.2557
   18SAPC  H13B 2275   4.445   1.388  10.619 -0.1778  1.2851  1.0807
   18SAPC  H13C 2276   4.346   1.318  10.498  0.1533  1.6917 -0.8111
   18SAPC   C14 2277   4.256   1.445  10.803  0.3449 -0.5832 -0.8304
   18SAPC  H14A 2278   4.361   1.443  10.828  0.2442  5.8877  2.0868
   18SAPC  H14B 2279   4.227   1.549  10.798  2.0995  0.2455  2.9667
   18SAPC  H14C 2280   4.193   1.405  10.881 -0.2038  0.5219 -0.6846
   18SAPC   C15 2281   4.267   1.216  10.717 -0.2283 -0.3323  0.1693
   18SAPC  H15A 2282   4.264   1.163  10.623 -1.8812  0.8848 -0.5331
   18SAPC  H15B 2283   4.361   1.199  10.768  1.6578  3.0705 -1.8084
   18SAPC  H15C 2284   4.191   1.182  10.785 -0.3281  1.1370  0.8304
   18SAPC   C11 2285   3.984   1.293  10.702 -1.2637  0.5613  0.0439
   18SAPC  H11A 2286   3.891   1.324  10.649 -1.0852  0.4732 -0.3176
   18SAPC  H11B 2287   3.985   1.343  10.802  0.6330  1.4388 -0.3722
   18SAPC     P 2288   3.886   1.055  10.629 -0.2060 -0.3702 -0.3262
   18SAPC   O13 2289   3.920   0.914  10.668 -0.2996 -0.2138 -0.1948
   18SAPC   O14 2290   3.753   1.114  10.649 -0.1730  0.3295  0.0971
   18SAPC   O12 2291   3.993   1.150  10.709  0.0796  0.4578  0.0781
   18SAPC   O11 2292   3.926   1.082  10.479  0.2384 -0.4999  0.1848
   18SAPC    C1 2293   3.834   1.048  10.372 -0.0594  0.5476  0.1710
   18SAPC    HA 2294   3.735   1.099  10.375 -0.9222 -0.9117 -1.3264
   18SAPC    HB 2295   3.877   1.092  10.280 -0.8726  1.2079  0.0957
   18SAPC    C2 2296   3.820   0.896  10.335 -0.0504 -0.0861 -0.0146
   18SAPC    HS 2297   3.758   0.855  10.418  0.2113 -0.8547 -0.1958
   18SAPC   O21 2298   3.955   0.842  10.341  0.3864 -0.6097 -0.3783
   18SAPC   C21 2299   3.951   0.714  10.348  0.1009  0.0222 -0.5893
   18SAPC   O22 2300   3.849   0.645  10.356  0.1401  0.0512  0.2774
   18SAPC   C22 2301   4.094   0.660  10.315  0.6540  0.1850  0.2683
   18SAPC   H2R 2302   4.126   0.696  10.215  1.7883  0.4061  0.6948
   18SAPC   H2S 2303   4.153   0.698  10.401  1.5275 -0.6368  0.0593
   18SAPC    C3 2304   3.755   0.875  10.196 -0.1826 -0.2748 -0.8473
   18SAPC    HX 2305   3.650   0.912  10.199 -0.0643  0.1318 -1.5665
   18SAPC    HY 2306   3.744   0.767  10.173 -1.2797  0.0067 -1.7037
   18SAPC   O31 2307   3.826   0.947  10.087  0.1871 -0.0715  0.5936
   18SAPC   C31 2308   3.758   0.959   9.969  0.1928  0.2814 -0.5242
   18SAPC   O32 2309   3.641   0.924   9.954  0.1463 -0.3784 -1.2321
   18SAPC   C32 2310   3.841   1.019   9.854 -0.0276  0.6765  0.4589
   18SAPC   H2X 2311   3.901   0.938   9.807 -0.1753  1.4609 -1.1551
   18SAPC   H2Y 2312   3.919   1.090   9.888  2.0452 -1.0749 -0.4457
   18SAPC   C23 2313   4.098   0.505  10.324 -0.0603 -0.4202 -0.1018
   18SAPC   H3R 2314   4.061   0.482  10.426 -0.6940  1.2185  0.0613
   18SAPC   H3S 2315   4.203   0.475  10.301 -0.4138 -1.1574 -0.8032
   18SAPC   C24 2316   4.016   0.429  10.214  0.3135  0.2819  0.5757
   18SAPC   H4R 2317   3.907   0.450  10.224  1.0706  3.9197  3.3035
   18SAPC   H4S 2318   4.024   0.319  10.226 -0.9060 -0.0585 -1.3095
   18SAPC   C25 2319   4.056   0.473  10.072 -0.2377  0.1036  0.2159
   18SAPC   H5R 2320   4.164   0.484  10.055  0.5143 -3.3451  1.9934
   18SAPC   C26 2321   3.975   0.475   9.962  0.6050  0.0046 -0.4309
   18SAPC   H6R 2322   4.011   0.521   9.869 -2.7057 -1.0742 -2.3795
   18SAPC   C27 2323   3.821   0.440   9.956 -0.2854  0.0778 -0.0432
   18SAPC   H7R 2324   3.793   0.394  10.053 -1.7083  0.3217 -0.3199
   18SAPC   H7S 2325   3.820   0.357   9.883  1.8778  0.3960 -0.5187
   18SAPC   C28 2326   3.749   0.572   9.931 -0.4859  0.4797 -0.4126
   18SAPC   H8R 2327   3.720   0.627  10.022  2.9369  0.9389  0.5461
   18SAPC   C29 2328   3.734   0.637   9.813 -0.1943  0.0440  0.4562
   18SAPC   H9R 2329   3.653   0.712   9.815 -0.8066 -0.6055  1.0103
   18SAPC  C210 2330   3.777   0.593   9.675 -0.5667  0.0556 -0.4177
   18SAPC  H10R 2331   3.684   0.578   9.615 -2.3592  0.9532  1.9467
   18SAPC  H10S 2332   3.848   0.508   9.684 -0.8327  0.0061  1.9070
   18SAPC  C211 2333   3.868   0.709   9.630  1.0167  0.3194  0.0900
   18SAPC  H11R 2334   3.933   0.756   9.705 -1.0939  0.0361  2.2181
   18SAPC  C212 2335   3.874   0.754   9.502 -0.6205  0.0936 -0.2193
   18SAPC  H12R 2336   3.928   0.849   9.497 -0.6098  0.0759 -0.4646
   18SAPC  C213 2337   3.795   0.709   9.381  0.4323 -0.4519  0.3529
   18SAPC  H13R 2338   3.750   0.608   9.395 -0.9176  0.2332  1.0659
   18SAPC  H13S 2339   3.864   0.705   9.294  0.1865  1.7098  0.0175
   18SAPC  C214 2340   3.675   0.795   9.356  0.5108 -0.8232  0.3388
   18SAPC  H14R 2341   3.602   0.805   9.437 -0.2338 -0.1960 -0.4017
   18SAPC  C215 2342   3.658   0.861   9.238  0.1754 -0.2910 -0.4374
   18SAPC  H15R 2343   3.566   0.919   9.225 -0.0164  0.0125  1.8058
   18SAPC  C216 2344   3.748   0.855   9.111 -0.2195  0.3465  0.6442
   18SAPC  H16R 2345   3.735   0.751   9.076 -0.2332 -0.2881  2.4230
   18SAPC  H16S 2346   3.856   0.876   9.132  0.0931 -1.1162  0.6159
   18SAPC  C217 2347   3.708   0.966   9.004 -0.4168  0.0399  0.5860
   18SAPC  H17R 2348   3.723   1.070   9.043 -0.7673  0.1311  0.4786
   18SAPC  H17S 2349   3.604   0.955   8.967 -0.1003  1.3230 -0.7606
   18SAPC  C218 2350   3.798   0.953   8.880  0.3178 -0.5912  0.0037
   18SAPC  H18R 2351   3.770   0.866   8.818  0.2768  0.0337 -0.8721
   18SAPC  H18S 2352   3.899   0.944   8.925  0.3807 -0.6935 -0.1610
   18SAPC  C219 2353   3.790   1.068   8.776  0.6948 -0.2213  0.4188
   18SAPC  H19R 2354   3.683   1.093   8.757  0.7173 -0.0830  0.4743
   18SAPC  H19S 2355   3.837   1.025   8.685  1.2123  0.3050  0.4370
   18SAPC  C220 2356   3.868   1.203   8.816 -0.2097  0.2727  0.0980
   18SAPC  H20R 2357   3.969   1.172   8.851 -1.0968 -0.9449  1.7038
   18SAPC  H20S 2358   3.810   1.246   8.901 -0.7716  0.6732 -0.4814
   18SAPC  H20T 2359   3.871   1.280   8.737 -1.2488  0.1306 -0.0989
   18SAPC   C33 2360   3.745   1.083   9.754 -0.3497  0.8956  0.1455
   18SAPC   H3X 2361   3.712   1.181   9.795 -1.1781  0.0365  1.6257
   18SAPC   H3Y 2362   3.650   1.027   9.736 -0.2720  0.8023  0.0231
   18SAPC   C34 2363   3.808   1.110   9.622  0.2079  0.5759 -0.0664
   18SAPC   H4X 2364   3.824   1.017   9.562  0.9338  2.5823 -3.2085
   18SAPC   H4Y 2365   3.898   1.173   9.638 -0.9122  2.3627 -0.5222
   18SAPC   C35 2366   3.716   1.196   9.539  0.5734 -0.4610 -0.4021
   18SAPC   H5X 2367   3.709   1.291   9.596 -1.5897 -0.2017 -1.0042
   18SAPC   H5Y 2368   3.619   1.143   9.532  0.5303 -1.1678  3.3716
   18SAPC   C36 2369   3.758   1.230   9.394 -0.8344  0.3422  0.0409
   18SAPC   H6X 2370   3.702   1.318   9.354 -2.0806 -0.6025 -0.3411
   18SAPC   H6Y 2371   3.737   1.146   9.325  1.1907  0.9361 -1.3897
   18SAPC   C37 2372   3.906   1.255   9.380  0.0144 -0.1290  0.4038
   18SAPC   H7X 2373   3.974   1.171   9.406 -1.5570 -0.7369  2.9061
   18SAPC   H7Y 2374   3.934   1.318   9.467 -0.5396 -0.7338  1.0413
   18SAPC   C38 2375   3.944   1.316   9.245  0.0942 -0.3464  0.0769
   18SAPC   H8X 2376   3.899   1.416   9.228  2.0102  0.8041  1.3814
   18SAPC   H8Y 2377   3.925   1.244   9.162 -0.0053  0.3610 -0.5211
   18SAPC   C39 2378   4.098   1.343   9.255  0.5081 -1.0214  0.8666
   18SAPC   H9X 2379   4.147   1.256   9.303 -1.0296 -1.9297  0.8533
   18SAPC   H9Y 2380   4.110   1.443   9.303 -2.0744  1.4022 -3.0439
   18SAPC  C310 2381   4.170   1.368   9.116  0.3497  0.4513  0.2721
   18SAPC  H10X 2382   4.243   1.450   9.136  0.5699 -0.1948  2.2606
   18SAPC  H10Y 2383   4.103   1.408   9.037  0.2065 -0.9740 -0.3527
   18SAPC  C311 2384   4.244   1.244   9.065  0.0883 -0.5098  0.7472
   18SAPC  H11X 2385   4.166   1.165   9.055 -0.9417  0.5034  0.6483
   18SAPC  H11Y 2386   4.316   1.213   9.144 -0.6323 -2.9899  0.5258
   18SAPC  C312 2387   4.321   1.264   8.929 -0.4236 -0.1786  0.1523
   18SAPC  H12X 2388   4.361   1.163   8.906 -1.0637 -0.8083  1.6961
   18SAPC  H12Y 2389   4.400   1.342   8.931 -2.3580  1.9611 -1.4072
   18SAPC  C313 2390   4.239   1.301   8.806 -0.5322 -0.0655  0.7887
   18SAPC  H13X 2391   4.179   1.393   8.825 -0.1639  1.1506 -3.0982
   18SAPC  H13Y 2392   4.160   1.228   8.775 -2.7394  2.2007  0.6898
   18SAPC  C314 2393   4.312   1.345   8.679  0.4331 -0.5432 -0.1936
   18SAPC  H14X 2394   4.392   1.277   8.642 -0.7933 -0.9198 -2.3317
   18SAPC  H14Y 2395   4.364   1.443   8.696  0.1368 -0.3052 -0.6420
   18SAPC  C315 2396   4.217   1.352   8.565  1.5604 -0.1130  0.0263
   18SAPC  H15X 2397   4.174   1.249   8.562 -0.4620  0.7021 -0.8285
   18SAPC  H15Y 2398   4.260   1.365   8.464  2.4045 -0.7835  0.2887
   18SAPC  C316 2399   4.096   1.448   8.584 -0.1857 -0.7941 -0.4553
   18SAPC  H16X 2400   4.130   1.550   8.615 -0.4460 -0.7179 -0.4143
   18SAPC  H16Y 2401   4.029   1.421   8.668 -1.5294  0.9862 -0.8840
   18SAPC  C317 2402   4.021   1.466   8.453  0.1715 -0.8160 -0.1191
   18SAPC  H17X 2403   3.967   1.375   8.419 -0.1918 -0.5525 -0.2586
   18SAPC  H17Y 2404   4.097   1.492   8.376 -1.6852 -0.4501 -1.9262
   18SAPC  C318 2405   3.925   1.595   8.452  0.4685  0.0738 -0.3100
   18SAPC  H18X 2406   3.995   1.671   8.493 -0.2218 -0.0647  1.1759
   18SAPC  H18Y 2407   3.855   1.576   8.535  3.9538 -0.0499  2.8715
   18SAPC  H18Z 2408   3.888   1.629   8.353  0.5630  0.6721 -0.1465
   19SAPC     N 2409   5.175   2.359  10.911  0.1217 -0.3843 -0.2294
   19SAPC   C12 2410   5.213   2.371  10.760 -0.0089  0.3443 -0.4626
   19SAPC  H12A 2411   5.161   2.294  10.706  2.0565 -1.9143  0.6264
   19SAPC  H12B 2412   5.315   2.338  10.748  0.3519  0.8694  0.9574
   19SAPC   C13 2413   5.240   2.235  10.968  0.1777  0.3391  0.1455
   19SAPC  H13A 2414   5.212   2.237  11.073  0.3637 -0.3815  0.2194
   19SAPC  H13B 2415   5.198   2.143  10.929 -2.3672  1.8947 -1.1048
   19SAPC  H13C 2416   5.345   2.230  10.946 -0.1671  0.5899 -1.6924
   19SAPC   C14 2417   5.220   2.485  10.993  0.1652  0.2527 -0.3434
   19SAPC  H14A 2418   5.179   2.493  11.093 -0.8336  0.7069 -0.7827
   19SAPC  H14B 2419   5.326   2.473  11.011 -0.2463 -0.4857  1.8831
   19SAPC  H14C 2420   5.195   2.575  10.939 -1.1081 -1.5307 -2.8925
   19SAPC   C15 2421   5.028   2.348  10.929 -0.0689  0.5820 -0.7558
   19SAPC  H15A 2422   4.974   2.432  10.888 -0.9380  0.7172  0.6062
   19SAPC  H15B 2423   4.991   2.253  10.894  2.4414 -1.6691  2.1454
   19SAPC  H15C 2424   4.998   2.356  11.032 -0.8516 -0.0525 -0.9324
   19SAPC   C11 2425   5.204   2.511  10.689 -0.4906 -0.2036  0.2602
   19SAPC  H11A 2426   5.099   2.545  10.678 -0.1777  0.0337 -3.7542
   19SAPC  H11B 2427   5.228   2.486  10.583  1.5708  0.7660  0.4512
   19SAPC     P 2428   5.441   2.599  10.706  0.2064  0.3221 -0.0989
   19SAPC   O13 2429   5.508   2.720  10.752 -0.4096 -0.3083  0.0597
   19SAPC   O14 2430   5.496   2.471  10.758 -0.2977  0.5219  0.9097
   19SAPC   O12 2431   5.284   2.608  10.753  0.3122 -0.2532  0.5182
   19SAPC   O11 2432   5.437   2.605  10.548 -0.2607  1.4965  0.4661
   19SAPC    C1 2433   5.533   2.533  10.464 -0.1314  0.0045 -0.5714
   19SAPC    HA 2434   5.634   2.579  10.457  0.6368 -1.4218  0.6024
   19SAPC    HB 2435   5.544   2.432  10.509 -1.6650 -0.9003 -2.0949
   19SAPC    C2 2436   5.478   2.512  10.318  0.0278  0.3969  0.0126
   19SAPC    HS 2437   5.551   2.441  10.272 -1.1654 -0.0853 -1.2302
   19SAPC   O21 2438   5.477   2.640  10.247 -0.0909  0.2531  0.6380
   19SAPC   C21 2439   5.600   2.659  10.185  0.0398  0.5871 -0.4395
   19SAPC   O22 2440   5.673   2.573  10.141 -0.4283  0.4997  0.1020
   19SAPC   C22 2441   5.615   2.807  10.155  0.6293 -0.3557 -0.2729
   19SAPC   H2R 2442   5.531   2.862  10.203  1.7661  0.3473  0.9909
   19SAPC   H2S 2443   5.704   2.839  10.213  0.5673 -1.2286  0.3223
   19SAPC    C3 2444   5.344   2.434  10.315 -0.7940  0.8638  0.1139
   19SAPC    HX 2445   5.267   2.497  10.364 -1.6506 -1.7411  2.3809
   19SAPC    HY 2446   5.359   2.333  10.359 -1.4447  0.2191 -1.0913
   19SAPC   O31 2447   5.307   2.421  10.178  0.0072 -0.1588  0.0546
   19SAPC   C31 2448   5.348   2.313  10.108  0.2072 -0.5815 -0.4740
   19SAPC   O32 2449   5.416   2.226  10.159 -0.8362  0.0646 -0.1832
   19SAPC   C32 2450   5.313   2.306   9.957  0.0920  0.1184  0.3867
   19SAPC   H2X 2451   5.330   2.407   9.914  1.1524 -1.1487 -2.3890
   19SAPC   H2Y 2452   5.203   2.289   9.961  0.0414  0.5179  0.9388
   19SAPC   C23 2453   5.634   2.851  10.009 -0.3424  0.3727  0.1731
   19SAPC   H3R 2454   5.730   2.814   9.967  0.1498  0.5185  1.1657
   19SAPC   H3S 2455   5.631   2.960  10.029 -2.9315  0.1344  1.4129
   19SAPC   C24 2456   5.514   2.818   9.914 -0.0206 -0.1282 -0.2721
   19SAPC   H4R 2457   5.523   2.898   9.837 -0.2963 -0.4939 -0.6872
   19SAPC   H4S 2458   5.423   2.828   9.975  0.2778 -2.5267  0.6891
   19SAPC   C25 2459   5.531   2.681   9.852 -0.0529 -0.0876 -0.6718
   19SAPC   H5R 2460   5.542   2.599   9.925 -1.3312 -1.1642 -1.6218
   19SAPC   C26 2461   5.507   2.650   9.726 -0.1906  0.1501  0.1983
   19SAPC   H6R 2462   5.523   2.544   9.703 -0.4469  0.1908 -0.1680
   19SAPC   C27 2463   5.466   2.741   9.608 -0.1337  0.3384  0.5918
   19SAPC   H7R 2464   5.366   2.786   9.628 -0.5772 -0.1820 -0.4205
   19SAPC   H7S 2465   5.440   2.678   9.521  2.3298 -0.3695  0.2879
   19SAPC   C28 2466   5.565   2.851   9.579  0.2497 -0.3851 -0.4127
   19SAPC   H8R 2467   5.642   2.861   9.657  0.6416 -0.1477 -0.8223
   19SAPC   C29 2468   5.575   2.925   9.464  0.1204  1.2347 -0.4258
   19SAPC   H9R 2469   5.647   3.009   9.460  3.1177 -1.1710 -0.8606
   19SAPC  C210 2470   5.476   2.906   9.356 -0.4318  0.9668  0.4227
   19SAPC  H10R 2471   5.384   2.938   9.409  1.3781  1.5613  3.4112
   19SAPC  H10S 2472   5.462   2.798   9.335  1.3549  0.9161 -0.7391
   19SAPC  C211 2473   5.484   2.991   9.230  0.1465  0.2558  0.0066
   19SAPC  H11R 2474   5.451   3.096   9.238  1.4552  0.5478  2.2534
   19SAPC  C212 2475   5.541   2.959   9.111 -0.3045  0.4200 -0.0103
   19SAPC  H12R 2476   5.528   3.023   9.022 -0.0556  0.9469  0.3274
   19SAPC  C213 2477   5.587   2.817   9.070  0.5295 -0.0366  0.6650
   19SAPC  H13R 2478   5.565   2.798   8.963  0.2207 -0.6082  0.8293
   19SAPC  H13S 2479   5.527   2.745   9.129 -0.3768  0.0101 -0.1750
   19SAPC  C214 2480   5.730   2.798   9.107  0.6024 -0.0153 -0.4175
   19SAPC  H14R 2481   5.753   2.766   9.210  0.0077  0.6859 -0.0632
   19SAPC  C215 2482   5.833   2.793   9.015  0.0952 -0.4454 -0.6727
   19SAPC  H15R 2483   5.934   2.769   9.052  0.0789  0.0097 -0.3190
   19SAPC  C216 2484   5.809   2.802   8.863 -0.5029 -0.7686 -0.7107
   19SAPC  H16R 2485   5.800   2.909   8.835 -1.7220 -0.6870 -0.0944
   19SAPC  H16S 2486   5.716   2.749   8.832  0.9140 -3.6192 -0.3140
   19SAPC  C217 2487   5.921   2.747   8.765 -0.1280  0.2654 -0.0397
   19SAPC  H17R 2488   5.942   2.638   8.775  0.8313  0.4012 -0.4602
   19SAPC  H17S 2489   6.019   2.798   8.780  1.8302 -2.4071 -2.5149
   19SAPC  C218 2490   5.893   2.784   8.610  0.7970 -0.3245 -0.3541
   19SAPC  H18R 2491   5.852   2.885   8.590 -0.2078 -0.6811 -0.1868
   19SAPC  H18S 2492   5.812   2.711   8.589  0.9985  0.0040 -2.5047
   19SAPC  C219 2493   6.016   2.766   8.523  0.0607 -0.4567 -0.4388
   19SAPC  H19R 2494   6.059   2.664   8.523 -2.5424 -1.6164 -0.5934
   19SAPC  H19S 2495   6.093   2.838   8.558 -1.5961  1.3937 -0.4381
   19SAPC  C220 2496   5.999   2.803   8.372 -0.2881  0.9971  0.2690
   19SAPC  H20R 2497   6.096   2.810   8.317 -0.3209 -2.2533 -0.4541
   19SAPC  H20S 2498   5.948   2.901   8.378 -0.6535  0.7285  3.9469
   19SAPC  H20T 2499   5.942   2.729   8.312 -0.4277 -0.2478  1.8692
   19SAPC   C33 2500   5.385   2.194   9.882  0.0308 -0.3605  0.5110
   19SAPC   H3X 2501   5.371   2.100   9.940  0.2381  0.7290  2.4216
   19SAPC   H3Y 2502   5.492   2.222   9.879 -0.1506  0.2692 -0.8697
   19SAPC   C34 2503   5.329   2.183   9.740 -0.0988  0.0429  0.2273
   19SAPC   H4X 2504   5.219   2.198   9.739 -0.3695 -1.4743  1.8822
   19SAPC   H4Y 2505   5.343   2.079   9.703 -3.5613 -0.4120 -0.1632
   19SAPC   C35 2506   5.391   2.284   9.642  0.0444 -0.0373 -0.7919
   19SAPC   H5X 2507   5.502   2.281   9.650 -0.0349  0.1246  0.7367
   19SAPC   H5Y 2508   5.353   2.386   9.665 -0.0864 -0.1364 -0.5637
   19SAPC   C36 2509   5.363   2.258   9.490  0.6535  0.3167  0.1231
   19SAPC   H6X 2510   5.260   2.292   9.467  0.1543  0.3684  2.1702
   19SAPC   H6Y 2511   5.362   2.148   9.474  1.2186  0.0965  1.4650
   19SAPC   C37 2512   5.459   2.332   9.393 -0.4914  0.1636  0.1125
   19SAPC   H7X 2513   5.559   2.286   9.398 -1.4002 -2.2903 -1.9201
   19SAPC   H7Y 2514   5.465   2.440   9.418 -0.4314  0.2223 -0.1528
   19SAPC   C38 2515   5.410   2.333   9.241  0.1771  0.8603 -0.0687
   19SAPC   H8X 2516   5.306   2.373   9.235 -0.3331 -0.4990 -0.8314
   19SAPC   H8Y 2517   5.417   2.231   9.198 -0.5136  0.5206  0.5907
   19SAPC   C39 2518   5.507   2.410   9.140  0.4142 -0.0627 -0.4322
   19SAPC   H9X 2519   5.609   2.373   9.164  0.5059 -0.1250 -0.9030
   19SAPC   H9Y 2520   5.507   2.517   9.172 -1.1097 -0.1681 -0.0397
   19SAPC  C310 2521   5.473   2.385   8.992  0.2488 -0.0446  0.0995
   19SAPC  H10X 2522   5.363   2.385   8.974  0.1943  0.1463  0.4288
   19SAPC  H10Y 2523   5.490   2.277   8.972  1.1745  0.1105  0.0070
   19SAPC  C311 2524   5.559   2.465   8.895 -0.7185  0.4112 -0.4487
   19SAPC  H11X 2525   5.662   2.475   8.935 -0.9931  2.8006 -0.2172
   19SAPC  H11Y 2526   5.515   2.566   8.903 -3.3764 -0.7202  0.1819
   19SAPC  C312 2527   5.548   2.416   8.748 -0.0989 -0.3919 -0.7780
   19SAPC  H12X 2528   5.441   2.427   8.721 -0.2926  0.1558  0.1414
   19SAPC  H12Y 2529   5.583   2.312   8.733 -0.2355 -0.4797 -0.5027
   19SAPC  C313 2530   5.628   2.509   8.653  1.0238  0.0713 -0.5241
   19SAPC  H13X 2531   5.726   2.519   8.704 -0.4857 -1.3882  3.0048
   19SAPC  H13Y 2532   5.578   2.608   8.650  1.1427  0.1295 -0.5852
   19SAPC  C314 2533   5.634   2.471   8.500  0.6450 -0.0391  0.3916
   19SAPC  H14X 2534   5.709   2.539   8.453  0.4800  0.7226  1.1936
   19SAPC  H14Y 2535   5.539   2.508   8.456  1.4921  0.9579 -0.6656
   19SAPC  C315 2536   5.662   2.324   8.480  0.6911  0.2687 -0.2333
   19SAPC  H15X 2537   5.569   2.272   8.511  0.3651  1.3786  0.7455
   19SAPC  H15Y 2538   5.736   2.303   8.561  1.7890  1.6544 -0.8184
   19SAPC  C316 2539   5.724   2.283   8.345 -0.5178  0.6010 -0.2527
   19SAPC  H16X 2540   5.781   2.188   8.351  0.4547  1.2701  2.9299
   19SAPC  H16Y 2541   5.783   2.362   8.294 -1.9314  0.8045 -1.6724
   19SAPC  C317 2542   5.607   2.258   8.249 -0.3149 -0.6567  0.3144
   19SAPC  H17X 2543   5.559   2.358   8.251  0.0066 -0.5039  2.5635
   19SAPC  H17Y 2544   5.541   2.177   8.286 -0.0958 -0.1178  1.9610
   19SAPC  C318 2545   5.654   2.217   8.106 -1.1618  0.7095  0.3889
   19SAPC  H18X 2546   5.720   2.295   8.063 -0.0703 -0.8400 -0.8495
   19SAPC  H18Y 2547   5.568   2.225   8.037 -0.9889 -2.0401 -0.2704
   19SAPC  H18Z 2548   5.710   2.121   8.110 -1.1292  0.7320  0.5101
   20SAPC     N 2549   5.258   5.799  11.360 -0.5664  0.7570  0.7172
   20SAPC   C12 2550   5.144   5.884  11.302  1.0051  0.5799  0.1535
   20SAPC  H12A 2551   5.165   5.974  11.246  0.9611  1.4043  1.4212
   20SAPC  H12B 2552   5.086   5.908  11.389 -0.0474 -0.6944 -0.1508
   20SAPC   C13 2553   5.214   5.681  11.442 -0.3919 -0.6389  0.0487
   20SAPC  H13A 2554   5.302   5.639  11.488  1.2382  2.1177 -0.3784
   20SAPC  H13B 2555   5.151   5.710  11.525 -0.8848  0.3450 -0.6566
   20SAPC  H13C 2556   5.158   5.611  11.382 -1.5916 -1.2779  1.8208
   20SAPC   C14 2557   5.343   5.736  11.247 -0.5049 -0.0891 -0.4219
   20SAPC  H14A 2558   5.385   5.641  11.277 -1.8840 -0.4252  0.5244
   20SAPC  H14B 2559   5.284   5.718  11.158 -0.7362  3.1758 -1.0572
   20SAPC  H14C 2560   5.413   5.814  11.219 -1.5527  0.8301 -0.5701
   20SAPC   C15 2561   5.339   5.896  11.438  0.0217  0.3073 -0.1802
   20SAPC  H15A 2562   5.418   5.842  11.489 -1.5912 -0.5905  1.5050
   20SAPC  H15B 2563   5.376   5.983  11.385 -0.9414  1.8266  1.5195
   20SAPC  H15C 2564   5.274   5.945  11.509  1.0332  1.1465  0.1897
   20SAPC   C11 2565   5.039   5.819  11.204 -0.0325 -0.4966  0.5344
   20SAPC  H11A 2566   4.952   5.888  11.196 -0.4945 -0.8755  1.9150
   20SAPC  H11B 2567   4.991   5.732  11.255 -1.1088 -0.3039 -0.1194
   20SAPC     P 2568   5.164   5.879  10.983  0.0633 -0.5368 -0.4779
   20SAPC   O13 2569   5.191   6.007  11.050  0.0541 -0.4719  0.4911
   20SAPC   O14 2570   5.273   5.811  10.911 -0.4533  0.7167  0.5241
   20SAPC   O12 2571   5.098   5.778  11.078  0.1191 -0.2108 -0.6555
   20SAPC   O11 2572   5.038   5.906  10.880  0.0594  0.7989 -0.5979
   20SAPC    C1 2573   4.961   5.794  10.837 -0.0972  0.6400  0.6263
   20SAPC    HA 2574   4.966   5.709  10.908  0.2216 -0.2529 -0.4380
   20SAPC    HB 2575   4.853   5.818  10.827 -0.2977 -0.6678 -0.7187
   20SAPC    C2 2576   5.021   5.740  10.702  0.2149  1.1815  0.3754
   20SAPC    HS 2577   5.131   5.739  10.716  0.2083 -1.2828  0.5755
   20SAPC   O21 2578   4.978   5.831  10.595  0.0795 -0.1180  0.1161
   20SAPC   C21 2579   5.075   5.872  10.516 -0.2701 -0.1056 -0.2437
   20SAPC   O22 2580   5.192   5.844  10.533 -0.4808 -0.8159  0.1447
   20SAPC   C22 2581   5.017   5.948  10.397 -0.1418  0.1386 -0.3244
   20SAPC   H2R 2582   4.940   5.887  10.345 -1.1573  0.7450  0.4332
   20SAPC   H2S 2583   4.963   6.040  10.429 -1.2359  0.2000 -2.1973
   20SAPC    C3 2584   4.982   5.600  10.669  0.5534  0.4557 -0.1433
   20SAPC    HX 2585   4.873   5.580  10.682  0.9854 -0.8748  1.9272
   20SAPC    HY 2586   5.032   5.529  10.739  0.8304  0.0235 -0.7731
   20SAPC   O31 2587   5.032   5.565  10.537  0.2415 -0.1392  0.3125
   20SAPC   C31 2588   4.993   5.451  10.489  0.6798  0.0186 -0.3642
   20SAPC   O32 2589   4.905   5.377  10.538  0.3332 -0.2959 -0.0876
   20SAPC   C32 2590   5.060   5.424  10.359  0.4022  0.7616  0.2870
   20SAPC   H2X 2591   5.119   5.330  10.370 -2.0013 -1.3247 -2.9088
   20SAPC   H2Y 2592   5.134   5.502  10.329  0.8153  0.9937  1.8288
   20SAPC   C23 2593   5.120   5.989  10.295 -0.8935  0.2084 -0.0104
   20SAPC   H3R 2594   5.208   6.042  10.336 -0.5072  1.0532 -1.8270
   20SAPC   H3S 2595   5.075   6.053  10.216 -0.2931 -1.7411 -2.0472
   20SAPC   C24 2596   5.196   5.868  10.217  0.7752 -0.8978  0.0097
   20SAPC   H4R 2597   5.131   5.790  10.172  0.7282 -1.4959  1.0911
   20SAPC   H4S 2598   5.267   5.812  10.281  2.4743  1.1530  0.0261
   20SAPC   C25 2599   5.285   5.916  10.107  0.1921 -0.1887 -0.1632
   20SAPC   H5R 2600   5.374   5.964  10.149 -1.2537  1.9039  0.7010
   20SAPC   C26 2601   5.260   5.924   9.975 -0.3499  0.4008  0.6302
   20SAPC   H6R 2602   5.335   5.978   9.916  0.2167  1.2685  2.0731
   20SAPC   C27 2603   5.126   5.897   9.914  0.1553  0.0861  0.6127
   20SAPC   H7R 2604   5.086   5.995   9.882  1.9797  1.2889  1.8259
   20SAPC   H7S 2605   5.045   5.877   9.987 -2.7966  1.1820 -2.1148
   20SAPC   C28 2606   5.122   5.783   9.817 -0.0922 -0.4796  0.4740
   20SAPC   H8R 2607   5.140   5.684   9.861 -2.7306 -0.0438  2.7801
   20SAPC   C29 2608   5.110   5.809   9.686  0.2635 -0.7536 -0.8379
   20SAPC   H9R 2609   5.089   5.722   9.622 -1.3130 -0.9540 -0.0875
   20SAPC  C210 2610   5.099   5.941   9.617  0.3907  0.3037 -0.7588
   20SAPC  H10R 2611   5.107   6.022   9.692  0.9013 -1.4022  1.1317
   20SAPC  H10S 2612   5.003   5.942   9.562  0.2111 -0.0397 -0.4529
   20SAPC  C211 2613   5.212   5.960   9.520  0.5251  0.0405 -0.4199
   20SAPC  H11R 2614   5.305   5.996   9.567 -0.7870  1.3401  1.3286
   20SAPC  C212 2615   5.218   5.948   9.387  0.5767  0.0881  0.3285
   20SAPC  H12R 2616   5.317   5.954   9.340  0.5751  3.1256  0.4664
   20SAPC  C213 2617   5.100   5.903   9.300  0.3358 -0.0696  0.2758
   20SAPC  H13R 2618   5.104   5.958   9.204 -0.8402  0.5986  0.5869
   20SAPC  H13S 2619   5.003   5.928   9.348 -0.1551 -3.0300  1.0333
   20SAPC  C214 2620   5.100   5.751   9.278  0.3337 -0.3127 -0.0853
   20SAPC  H14R 2621   5.115   5.686   9.365 -1.1272 -0.4529  0.0912
   20SAPC  C215 2622   5.074   5.693   9.165  0.0083  0.2131  0.8166
   20SAPC  H15R 2623   5.091   5.585   9.160 -1.9589 -0.2706  2.6500
   20SAPC  C216 2624   5.045   5.758   9.029 -0.0183  0.0125  0.5015
   20SAPC  H16R 2625   5.050   5.869   9.032 -0.8900  0.1707 -1.7606
   20SAPC  H16S 2626   4.947   5.722   8.992  0.0490 -1.1428  1.3874
   20SAPC  C217 2627   5.154   5.723   8.919 -0.4140 -0.2560  0.0936
   20SAPC  H17R 2628   5.260   5.724   8.953 -0.7609 -0.6831  1.2089
   20SAPC  H17S 2629   5.141   5.803   8.842 -1.3818 -0.4963 -0.0023
   20SAPC  C218 2630   5.131   5.586   8.846 -0.6397 -0.2977  0.1947
   20SAPC  H18R 2631   5.024   5.582   8.818 -0.5707  1.6446 -0.5423
   20SAPC  H18S 2632   5.129   5.504   8.921 -1.1631  0.7316  1.3593
   20SAPC  C219 2633   5.226   5.565   8.732  0.1160  0.5511 -0.5312
   20SAPC  H19R 2634   5.327   5.542   8.773 -1.3089 -2.2936  1.7667
   20SAPC  H19S 2635   5.235   5.650   8.661  0.8319  1.4852  0.6418
   20SAPC  C220 2636   5.185   5.443   8.660 -0.0405  0.1575 -0.0127
   20SAPC  H20R 2637   5.162   5.365   8.735 -1.7045  0.1920 -0.4564
   20SAPC  H20S 2638   5.267   5.397   8.600  0.9015 -1.5292  2.4338
   20SAPC  H20T 2639   5.094   5.447   8.596  0.2553 -2.4690 -0.7110
   20SAPC   C33 2640   4.961   5.399  10.244 -0.2242 -0.5208  0.1285
   20SAPC   H3X 2641   4.885   5.480  10.244  1.8077  1.5166  1.6456
   20SAPC   H3Y 2642   4.930   5.292  10.248  0.0180 -0.7166 -1.9481
   20SAPC   C34 2643   5.034   5.412  10.119  0.4817 -0.1910  0.0017
   20SAPC   H4X 2644   5.126   5.351  10.133  0.1452 -0.0771  3.8511
   20SAPC   H4Y 2645   5.072   5.515  10.105  2.0786 -0.5723  1.2069
   20SAPC   C35 2646   4.945   5.346  10.008 -0.2342  0.4697  0.5741
   20SAPC   H5X 2647   4.847   5.398  10.006 -0.4323  0.0834 -1.0165
   20SAPC   H5Y 2648   4.932   5.243  10.047 -0.6180  1.2628  2.7092
   20SAPC   C36 2649   4.997   5.342   9.866 -0.8363 -0.3055 -0.4108
   20SAPC   H6X 2650   5.105   5.314   9.863  0.2620  3.2644  0.4509
   20SAPC   H6Y 2651   5.008   5.450   9.839 -0.5493  0.8876  3.7886
   20SAPC   C37 2652   4.922   5.272   9.757  0.4868  0.3403 -0.1059
   20SAPC   H7X 2653   4.821   5.317   9.748  0.9573  1.2909 -0.9054
   20SAPC   H7Y 2654   4.924   5.162   9.765 -0.1041  0.1178 -2.3702
   20SAPC   C38 2655   4.972   5.296   9.616 -0.5248  0.2367 -0.5342
   20SAPC   H8X 2656   5.067   5.239   9.610 -0.5341 -0.3731  2.9519
   20SAPC   H8Y 2657   4.995   5.404   9.605 -1.8614  0.5496 -0.4175
   20SAPC   C39 2658   4.882   5.273   9.491  0.0909 -0.5629  0.1343
   20SAPC   H9X 2659   4.786   5.323   9.517 -0.0393 -0.7515  0.0207
   20SAPC   H9Y 2660   4.866   5.163   9.497  0.7179 -0.6887 -0.3954
   20SAPC  C310 2661   4.940   5.316   9.358 -0.0867 -0.3560 -0.0322
   20SAPC  H10X 2662   5.046   5.287   9.343 -0.1391 -0.3309 -0.4660
   20SAPC  H10Y 2663   4.940   5.427   9.350  0.0823 -0.2544  1.2453
   20SAPC  C311 2664   4.849   5.268   9.246  1.0086 -0.1917  0.4067
   20SAPC  H11X 2665   4.746   5.306   9.262  1.4177  0.9339  0.4296
   20SAPC  H11Y 2666   4.842   5.157   9.256 -0.2351 -0.4359 -2.2266
   20SAPC  C312 2667   4.905   5.292   9.107  0.2564 -0.4106 -0.7986
   20SAPC  H12X 2668   5.000   5.234   9.104  1.3138  1.1735  0.4427
   20SAPC  H12Y 2669   4.934   5.399   9.093 -1.3417  0.2854  0.8327
   20SAPC  C313 2670   4.806   5.240   8.995 -0.3422  0.4198  0.3183
   20SAPC  H13X 2671   4.711   5.297   8.984 -0.9211 -0.7936 -1.4031
   20SAPC  H13Y 2672   4.788   5.133   9.018  0.5722  0.4225  1.1280
   20SAPC  C314 2673   4.864   5.254   8.850  0.3748  0.0457 -0.2140
   20SAPC  H14X 2674   4.950   5.185   8.847  0.8520  0.5373  1.4263
   20SAPC  H14Y 2675   4.905   5.357   8.836  0.8275 -0.2737 -1.4161
   20SAPC  C315 2676   4.764   5.205   8.745  0.3709 -0.8080 -0.1305
   20SAPC  H15X 2677   4.673   5.264   8.770  1.3606 -0.0352  1.8633
   20SAPC  H15Y 2678   4.741   5.098   8.764  0.7056 -0.6945  0.9430
   20SAPC  C316 2679   4.815   5.241   8.599 -0.2301 -0.0761  0.1267
   20SAPC  H16X 2680   4.845   5.347   8.586 -0.1936  0.1064  1.5824
   20SAPC  H16Y 2681   4.720   5.221   8.544 -2.3894 -0.4044  3.6838
   20SAPC  C317 2682   4.922   5.143   8.551 -0.0793 -0.4219  0.5922
   20SAPC  H17X 2683   4.886   5.044   8.586  1.5606 -1.3332 -0.1948
   20SAPC  H17Y 2684   5.018   5.180   8.594  0.5855  0.1217 -1.2689
   20SAPC  C318 2685   4.942   5.139   8.401  0.2891  0.7341 -0.1566
   20SAPC  H18X 2686   4.845   5.119   8.351  0.4631  1.7913 -0.9470
   20SAPC  H18Y 2687   5.008   5.056   8.367 -0.8107  0.0033 -0.5580
   20SAPC  H18Z 2688   4.997   5.228   8.363  2.5943 -0.7596 -0.5476
   21SAPC     N 2689   4.488   4.809  11.223  0.6016  0.3900  0.0692
   21SAPC   C12 2690   4.510   4.660  11.184 -0.2293 -0.3175  0.8707
   21SAPC  H12A 2691   4.498   4.654  11.077 -0.8822  0.0111  0.9239
   21SAPC  H12B 2692   4.440   4.594  11.234  1.2895 -1.8920  1.0418
   21SAPC   C13 2693   4.361   4.861  11.166  0.3735  0.0267  0.0777
   21SAPC  H13A 2694   4.363   4.865  11.058  1.2122  2.3602  0.1275
   21SAPC  H13B 2695   4.283   4.792  11.194  0.7818 -0.1918  0.6932
   21SAPC  H13C 2696   4.339   4.960  11.203  2.7753 -0.0756  2.0076
   21SAPC   C14 2697   4.470   4.820  11.375 -0.2509 -0.9391  0.0966
   21SAPC  H14A 2698   4.442   4.922  11.395 -0.3233 -1.0758  0.7247
   21SAPC  H14B 2699   4.383   4.762  11.404 -1.0029 -2.0133 -3.7998
   21SAPC  H14C 2700   4.553   4.789  11.437 -0.3613  0.4413  0.9752
   21SAPC   C15 2701   4.598   4.903  11.181 -1.0788 -0.5448  0.1373
   21SAPC  H15A 2702   4.603   4.923  11.075  0.4732  1.0241  0.4763
   21SAPC  H15B 2703   4.599   5.002  11.223  3.2592 -0.5065  0.3865
   21SAPC  H15C 2704   4.688   4.858  11.222 -0.0715  0.4538 -0.9384
   21SAPC   C11 2705   4.648   4.608  11.223 -0.4560  0.9335 -0.3435
   21SAPC  H11A 2706   4.648   4.498  11.239 -2.3426  0.9686  0.1454
   21SAPC  H11B 2707   4.671   4.659  11.319  1.4360  1.9468 -1.3050
   21SAPC     P 2708   4.775   4.559  11.007 -0.2455 -0.0165  0.2127
   21SAPC   O13 2709   4.861   4.445  11.047  0.6758  0.1930 -0.2462
   21SAPC   O14 2710   4.645   4.515  10.945 -0.1790  0.6626  0.1084
   21SAPC   O12 2711   4.749   4.652  11.133 -0.0245 -0.1196 -0.0058
   21SAPC   O11 2712   4.849   4.652  10.903 -0.1595 -0.7059 -0.1239
   21SAPC    C1 2713   4.819   4.796  10.908  0.3665 -0.8845 -0.4979
   21SAPC    HA 2714   4.709   4.815  10.905  0.5893  0.4038 -1.7513
   21SAPC    HB 2715   4.857   4.842  11.001  0.6135  0.7162 -1.3545
   21SAPC    C2 2716   4.880   4.879  10.791 -0.0216  0.0114  0.6232
   21SAPC    HS 2717   4.856   4.985  10.810 -0.0094  0.3269 -0.9611
   21SAPC   O21 2718   4.846   4.831  10.655  0.1317 -0.2633 -0.0369
   21SAPC   C21 2719   4.861   4.919  10.560 -0.6498 -0.1508  0.3578
   21SAPC   O22 2720   4.879   5.038  10.575  0.1127  0.1704  0.4272
   21SAPC   C22 2721   4.868   4.846  10.421  0.0303  0.3222 -0.3154
   21SAPC   H2R 2722   4.814   4.750  10.436  0.0504  0.4600  0.7042
   21SAPC   H2S 2723   4.822   4.919  10.352 -2.0397 -0.4884  0.1532
   21SAPC    C3 2724   5.038   4.873  10.807 -0.3294  0.1703 -0.0171
   21SAPC    HX 2725   5.065   4.768  10.786  1.1479  0.5517 -0.1537
   21SAPC    HY 2726   5.061   4.897  10.913  0.8583 -0.6326 -0.0837
   21SAPC   O31 2727   5.113   4.964  10.721  0.0772 -0.5186 -0.0394
   21SAPC   C31 2728   5.243   4.969  10.745  0.4227 -0.3124 -0.4318
   21SAPC   O32 2729   5.298   4.897  10.824 -1.1270  0.2966  0.2880
   21SAPC   C32 2730   5.314   5.076  10.661  0.2762 -0.0267  0.2247
   21SAPC   H2X 2731   5.378   5.131  10.733 -0.7826  0.5355  0.7804
   21SAPC   H2Y 2732   5.226   5.126  10.613  0.7313 -0.5652 -1.2270
   21SAPC   C23 2733   5.018   4.804  10.389  0.9034  0.6545 -0.2316
   21SAPC   H3R 2734   5.025   4.724  10.312  0.2833  0.0920  0.2902
   21SAPC   H3S 2735   5.076   4.778  10.480  1.1364 -0.9724 -0.8241
   21SAPC   C24 2736   5.092   4.927  10.313 -0.1272  0.0846  0.2259
   21SAPC   H4R 2737   5.195   4.887  10.305 -0.5817 -1.5295  1.6789
   21SAPC   H4S 2738   5.077   5.009  10.387  0.8858  2.5141 -2.1159
   21SAPC   C25 2739   5.020   4.973  10.185 -0.1943 -0.6031  0.1681
   21SAPC   H5R 2740   4.915   5.004  10.192 -0.4424 -1.6009  1.3356
   21SAPC   C26 2741   5.083   4.993  10.067  0.0079  0.3497  0.6795
   21SAPC   H6R 2742   5.025   5.026   9.980  1.1599  0.3779 -0.1072
   21SAPC   C27 2743   5.231   4.970  10.030 -0.4103  0.0030 -0.2564
   21SAPC   H7R 2744   5.294   4.943  10.117  0.9004  2.0262 -0.4929
   21SAPC   H7S 2745   5.272   5.071  10.005  0.0977  0.1783  1.2032
   21SAPC   C28 2746   5.255   4.858   9.939 -0.0306 -0.0010 -0.0071
   21SAPC   H8R 2747   5.227   4.760   9.982 -1.2308  1.3789  2.5534
   21SAPC   C29 2748   5.283   4.869   9.809 -0.2569  0.1047 -0.3808
   21SAPC   H9R 2749   5.283   4.772   9.756  0.6334 -0.5736  0.8082
   21SAPC  C210 2750   5.330   4.984   9.729  0.4475 -0.6315 -0.0306
   21SAPC  H10R 2751   5.430   5.027   9.754  0.5925 -0.2405 -1.1711
   21SAPC  H10S 2752   5.252   5.063   9.737  2.7049  1.8369 -0.4838
   21SAPC  C211 2753   5.355   4.948   9.582 -0.0003 -0.4031 -0.9394
   21SAPC  H11R 2754   5.461   4.927   9.563  0.4629  0.9666 -0.0227
   21SAPC  C212 2755   5.265   4.947   9.477 -0.3480  0.1402 -0.4536
   21SAPC  H12R 2756   5.298   4.903   9.382  0.5291 -2.0343  0.7938
   21SAPC  C213 2757   5.119   4.971   9.484  0.1888  0.3750  0.0549
   21SAPC  H13R 2758   5.100   5.055   9.414 -1.1429  0.2831  0.2779
   21SAPC  H13S 2759   5.085   5.000   9.586 -1.9347  1.2685 -0.8490
   21SAPC  C214 2760   5.044   4.849   9.445  0.0590 -0.1977 -0.4050
   21SAPC  H14R 2761   5.011   4.792   9.533  0.1263  0.5490  0.1081
   21SAPC  C215 2762   5.003   4.812   9.324 -0.3301  0.1276 -0.3766
   21SAPC  H15R 2763   4.941   4.722   9.319  0.2162 -0.2148 -1.3332
   21SAPC  C216 2764   5.023   4.886   9.189 -0.4969 -0.3137  0.8293
   21SAPC  H16R 2765   5.131   4.890   9.161 -1.2988 -2.2487 -3.3353
   21SAPC  H16S 2766   4.997   4.993   9.204 -1.7673 -0.4613 -0.1783
   21SAPC  C217 2767   4.956   4.828   9.066  0.1048 -0.7195 -1.1848
   21SAPC  H17R 2768   4.847   4.847   9.082  0.2963 -0.8628  0.3496
   21SAPC  H17S 2769   4.958   4.717   9.062 -2.9151 -1.0173  1.4759
   21SAPC  C218 2770   5.002   4.888   8.929  0.1918 -0.2913 -0.5454
   21SAPC  H18R 2771   5.058   4.973   8.973 -1.1003  0.5402 -0.4816
   21SAPC  H18S 2772   4.917   4.921   8.866 -0.5253  1.2699  1.1654
   21SAPC  C219 2773   5.105   4.800   8.859 -0.2274  0.1234 -0.5477
   21SAPC  H19R 2774   5.071   4.697   8.834  2.6633 -0.6383 -1.7664
   21SAPC  H19S 2775   5.192   4.788   8.928 -1.5390  1.0081  1.3515
   21SAPC  C220 2776   5.153   4.857   8.723  0.5460  0.1686  0.0474
   21SAPC  H20R 2777   5.225   4.790   8.672  0.0762 -0.9962  0.9011
   21SAPC  H20S 2778   5.209   4.953   8.734 -0.3608  0.6471  0.6711
   21SAPC  H20T 2779   5.066   4.872   8.655 -1.1343  1.6201  2.3580
   21SAPC   C33 2780   5.409   5.025  10.549 -0.2346  0.1884  0.3966
   21SAPC   H3X 2781   5.342   4.983  10.471 -2.1746  0.3565  1.9118
   21SAPC   H3Y 2782   5.463   4.943  10.602  1.2289  1.6019  1.1655
   21SAPC   C34 2783   5.497   5.128  10.479 -0.2781  0.2712  0.0521
   21SAPC   H4X 2784   5.555   5.082  10.396  0.2522 -0.2581  0.7002
   21SAPC   H4Y 2785   5.564   5.183  10.549 -0.7113 -1.5937  2.0749
   21SAPC   C35 2786   5.410   5.227  10.397 -0.2105  0.1567 -0.4993
   21SAPC   H5X 2787   5.362   5.287  10.477  1.0681 -0.0799  0.4791
   21SAPC   H5Y 2788   5.323   5.189  10.340 -0.6918 -0.7726  0.8192
   21SAPC   C36 2789   5.489   5.328  10.310 -0.2190  0.2073  0.3871
   21SAPC   H6X 2790   5.555   5.267  10.244 -1.2121  0.2168 -0.6556
   21SAPC   H6Y 2791   5.559   5.398  10.359  0.0294 -0.0346  0.3822
   21SAPC   C37 2792   5.393   5.404  10.215 -0.4424 -0.2398  0.5168
   21SAPC   H7X 2793   5.355   5.487  10.278  0.0665 -0.2546  0.8534
   21SAPC   H7Y 2794   5.313   5.331  10.192  0.6560 -1.4159  0.3382
   21SAPC   C38 2795   5.469   5.459  10.086 -0.7094  0.2061 -0.5056
   21SAPC   H8X 2796   5.527   5.370  10.054 -0.7662 -0.0101 -0.0309
   21SAPC   H8Y 2797   5.539   5.541  10.113 -0.0118 -0.3317 -0.6607
   21SAPC   C39 2798   5.361   5.503   9.981  0.6736  0.4284 -0.6284
   21SAPC   H9X 2799   5.295   5.582  10.023  0.1991  0.4747 -1.4358
   21SAPC   H9Y 2800   5.298   5.411   9.981 -1.6716  1.9235 -2.8537
   21SAPC  C310 2801   5.414   5.523   9.839  0.1888 -0.5828  0.1391
   21SAPC  H10X 2802   5.516   5.565   9.833 -0.2990  0.7879  0.9094
   21SAPC  H10Y 2803   5.347   5.597   9.791 -2.3294 -2.5997  0.3346
   21SAPC  C311 2804   5.412   5.395   9.756  0.2611  0.3065  1.2306
   21SAPC  H11X 2805   5.311   5.355   9.778 -1.5870  3.2992 -1.1392
   21SAPC  H11Y 2806   5.486   5.318   9.788 -1.7152 -2.0832  0.3488
   21SAPC  C312 2807   5.417   5.432   9.606  0.6313  0.2480 -0.4749
   21SAPC  H12X 2808   5.514   5.472   9.569  1.0178 -1.4350 -1.3900
   21SAPC  H12Y 2809   5.333   5.504   9.598  1.8917  1.9933  0.9873
   21SAPC  C313 2810   5.386   5.316   9.513 -0.8820  0.1309  0.5331
   21SAPC  H13X 2811   5.292   5.268   9.549 -0.2797 -1.0943  0.5267
   21SAPC  H13Y 2812   5.464   5.238   9.519 -2.1980 -1.2404  0.4110
   21SAPC  C314 2813   5.366   5.364   9.367  0.1734 -0.2837 -0.5069
   21SAPC  H14X 2814   5.445   5.437   9.339  0.4970 -0.3108  0.3128
   21SAPC  H14Y 2815   5.265   5.410   9.367 -0.7034 -2.0082  1.8110
   21SAPC  C315 2816   5.376   5.256   9.258 -0.0043  0.6759 -0.4128
   21SAPC  H15X 2817   5.311   5.168   9.278 -0.8346  0.7935 -2.4499
   21SAPC  H15Y 2818   5.481   5.220   9.265  0.5149  2.1981  0.0015
   21SAPC  C316 2819   5.342   5.302   9.119 -0.1137 -0.6263 -0.3440
   21SAPC  H16X 2820   5.404   5.390   9.092 -0.3138 -0.3951 -0.0529
   21SAPC  H16Y 2821   5.234   5.319   9.099  0.5831  2.0962 -2.3785
   21SAPC  C317 2822   5.368   5.191   9.025 -0.2908 -0.2169  0.0190
   21SAPC  H17X 2823   5.328   5.095   9.063 -0.9133  0.4740  1.1740
   21SAPC  H17Y 2824   5.476   5.166   9.022 -0.3121 -0.2883 -2.0833
   21SAPC  C318 2825   5.340   5.218   8.872  0.3718 -0.4335  0.5621
   21SAPC  H18X 2826   5.231   5.223   8.853  0.9212 -1.4362 -4.0738
   21SAPC  H18Y 2827   5.369   5.139   8.800 -1.4422  0.9896 -1.9123
   21SAPC  H18Z 2828   5.404   5.302   8.836  1.9795 -1.7609  0.2283
   22SAPC     N 2829   2.017   2.363  11.128  0.0630 -0.4095 -0.3609
   22SAPC   C12 2830   1.930   2.246  11.074 -0.6624  0.3202 -0.2719
   22SAPC  H12A 2831   1.824   2.257  11.086 -1.1923 -3.2934 -0.6483
   22SAPC  H12B 2832   1.955   2.166  11.142  0.9989  2.0882  1.3413
   22SAPC   C13 2833   2.021   2.371  11.278 -0.1896  0.1096  0.0591
   22SAPC  H13A 2834   2.035   2.273  11.320 -2.1426 -0.7269 -1.0977
   22SAPC  H13B 2835   2.087   2.442  11.326  2.0807 -0.8439 -1.5088
   22SAPC  H13C 2836   1.925   2.393  11.323  1.7049  2.6575  3.3388
   22SAPC   C14 2837   2.157   2.344  11.082 -0.0635 -0.4131 -0.2371
   22SAPC  H14A 2838   2.203   2.441  11.075  0.4451 -0.6666 -0.3889
   22SAPC  H14B 2839   2.207   2.277  11.151 -2.3783 -1.6296  0.3654
   22SAPC  H14C 2840   2.162   2.296  10.986 -1.1431 -1.0382 -0.0021
   22SAPC   C15 2841   1.955   2.487  11.069  0.1908  0.5027 -0.2075
   22SAPC  H15A 2842   2.014   2.572  11.098  2.0405 -0.2897 -1.4745
   22SAPC  H15B 2843   1.939   2.476  10.963 -2.0420  0.8291  0.0415
   22SAPC  H15C 2844   1.862   2.501  11.123  0.8924  2.6004  0.5682
   22SAPC   C11 2845   1.936   2.203  10.924 -0.5944 -0.4298  0.4582
   22SAPC  H11A 2846   1.909   2.296  10.869 -0.3686  0.5968  2.0212
   22SAPC  H11B 2847   1.857   2.125  10.923 -2.8713  1.7686  0.1163
   22SAPC     P 2848   2.096   2.052  10.776  0.6194  0.0465  0.2246
   22SAPC   O13 2849   2.119   1.918  10.835 -0.6711 -0.2359 -0.1221
   22SAPC   O14 2850   1.988   2.063  10.674 -0.5783  0.2000  0.6873
   22SAPC   O12 2851   2.064   2.154  10.892 -0.0035 -0.7040  0.3817
   22SAPC   O11 2852   2.238   2.096  10.714  0.2367 -0.2014 -0.0524
   22SAPC    C1 2853   2.272   2.235  10.724 -0.2236  0.1439  0.8909
   22SAPC    HA 2854   2.222   2.288  10.808  0.9502  1.3316  0.8873
   22SAPC    HB 2855   2.382   2.236  10.740 -0.3081  1.4899  1.5510
   22SAPC    C2 2856   2.250   2.301  10.589  0.0105  0.0358 -0.2583
   22SAPC    HS 2857   2.291   2.404  10.590 -0.9968  0.4439 -0.1351
   22SAPC   O21 2858   2.117   2.299  10.542 -0.2054  0.3909 -0.1358
   22SAPC   C21 2859   2.037   2.375  10.607  0.0719  0.2845  0.1529
   22SAPC   O22 2860   2.068   2.458  10.688 -0.0299  0.8992 -0.1327
   22SAPC   C22 2861   1.898   2.351  10.560 -0.1826 -0.1035  0.4686
   22SAPC   H2R 2862   1.886   2.246  10.528  0.8136 -0.4450  1.1887
   22SAPC   H2S 2863   1.830   2.379  10.643 -0.4134  1.5988 -0.2487
   22SAPC    C3 2864   2.341   2.241  10.480  1.1737  0.4902 -0.5150
   22SAPC    HX 2865   2.311   2.134  10.470  1.0450  0.4163  0.5604
   22SAPC    HY 2866   2.446   2.244  10.517  0.1312 -0.0974  2.8303
   22SAPC   O31 2867   2.326   2.301  10.349  0.1311  0.2840  0.2735
   22SAPC   C31 2868   2.431   2.355  10.290 -0.7685 -0.3124  0.2974
   22SAPC   O32 2869   2.546   2.358  10.336  0.0016 -0.2619  0.1190
   22SAPC   C32 2870   2.391   2.395  10.152  0.1825  0.0580  0.0963
   22SAPC   H2X 2871   2.287   2.435  10.152 -1.2266 -3.2520 -0.8084
   22SAPC   H2Y 2872   2.378   2.303  10.091 -0.9731 -0.9262  1.7469
   22SAPC   C23 2873   1.868   2.454  10.447  0.2469 -0.3697 -0.6500
   22SAPC   H3R 2874   1.921   2.549  10.469 -0.2668 -0.3762  0.7214
   22SAPC   H3S 2875   1.760   2.477  10.443  0.1133 -0.3104  1.8006
   22SAPC   C24 2876   1.891   2.390  10.306 -0.4455  0.0813  0.1185
   22SAPC   H4R 2877   1.827   2.300  10.310  2.2195 -1.8872  1.3507
   22SAPC   H4S 2878   1.995   2.354  10.297 -0.7888 -0.7706 -0.5838
   22SAPC   C25 2879   1.871   2.500  10.198 -0.2209  0.3287 -0.4070
   22SAPC   H5R 2880   1.880   2.599  10.243  0.9038  0.4538 -0.8890
   22SAPC   C26 2881   1.848   2.486  10.066 -0.3302 -0.4956  0.1969
   22SAPC   H6R 2882   1.838   2.580  10.011 -0.9151 -0.7029 -0.0559
   22SAPC   C27 2883   1.833   2.362   9.977 -0.1613 -0.0887  0.1992
   22SAPC   H7R 2884   1.757   2.294  10.021 -0.8169 -0.1386 -0.9897
   22SAPC   H7S 2885   1.935   2.318   9.987  0.2353  0.4432 -1.2479
   22SAPC   C28 2886   1.807   2.384   9.828  0.5882 -0.0673 -0.0026
   22SAPC   H8R 2887   1.707   2.353   9.795  1.5122 -0.6224 -2.4363
   22SAPC   C29 2888   1.890   2.445   9.740  0.2306 -0.3268  0.1711
   22SAPC   H9R 2889   1.847   2.467   9.641  0.2766  0.3101  0.2921
   22SAPC  C210 2890   2.026   2.495   9.771 -0.0561 -0.4693  0.2890
   22SAPC  H10R 2891   2.091   2.435   9.703 -2.2037 -0.0076 -2.3367
   22SAPC  H10S 2892   2.051   2.488   9.879  1.5017  0.6529  0.0360
   22SAPC  C211 2893   2.048   2.642   9.736 -0.0256  0.3366  0.0805
   22SAPC  H11R 2894   2.011   2.703   9.820 -0.5763 -0.9367  0.8063
   22SAPC  C212 2895   2.073   2.694   9.613  0.2469  0.5704  0.4084
   22SAPC  H12R 2896   2.095   2.801   9.599 -3.8141  1.5094 -0.0005
   22SAPC  C213 2897   2.088   2.618   9.482  0.1385  0.2579 -0.0061
   22SAPC  H13R 2898   1.989   2.595   9.437 -0.0747  0.2710  0.4548
   22SAPC  H13S 2899   2.121   2.515   9.505  1.4133  0.5983 -0.2270
   22SAPC  C214 2900   2.188   2.689   9.386  0.3066 -0.6791 -0.7139
   22SAPC  H14R 2901   2.294   2.662   9.395  0.8723  1.7799  1.0230
   22SAPC  C215 2902   2.148   2.783   9.297 -0.2282  0.8392 -0.1179
   22SAPC  H15R 2903   2.225   2.824   9.230  1.0127 -0.5813  0.3720
   22SAPC  C216 2904   2.007   2.822   9.280 -0.5825 -0.1969  0.4132
   22SAPC  H16R 2905   1.962   2.871   9.369  1.6031  1.3180  0.7322
   22SAPC  H16S 2906   1.944   2.733   9.258  0.3910 -0.7021 -0.4433
   22SAPC  C217 2907   1.977   2.915   9.157  0.6868  0.6143 -0.0375
   22SAPC  H17R 2908   2.037   3.007   9.168  1.4484  0.0287  0.8112
   22SAPC  H17S 2909   1.868   2.930   9.143 -0.3618 -3.0033  2.7174
   22SAPC  C218 2910   2.018   2.849   9.030 -0.1735 -0.3199  0.3345
   22SAPC  H18R 2911   2.009   2.739   9.037  0.7830 -0.5341 -1.2140
   22SAPC  H18S 2912   2.125   2.871   9.008  0.2693  0.8950  3.3308
   22SAPC  C219 2913   1.948   2.901   8.903  0.2357 -0.4425  0.1831
   22SAPC  H19R 2914   1.962   3.012   8.905  0.1305 -0.4331  1.1141
   22SAPC  H19S 2915   1.839   2.885   8.917  0.4442 -2.4981 -0.2758
   22SAPC  C220 2916   2.008   2.850   8.779 -0.4833 -0.0353 -0.6285
   22SAPC  H20R 2917   2.118   2.843   8.786 -0.4770  0.2416 -0.4629
   22SAPC  H20S 2918   1.988   2.910   8.688  0.4886 -1.4079 -1.7951
   22SAPC  H20T 2919   1.981   2.743   8.763  1.7657 -0.6547 -0.6091
   22SAPC   C33 2920   2.489   2.483  10.068 -0.3072 -0.4298 -0.3753
   22SAPC   H3X 2921   2.585   2.428  10.077 -0.1494 -0.5028 -2.0324
   22SAPC   H3Y 2922   2.503   2.583  10.114  1.6439  0.5120 -2.7572
   22SAPC   C34 2923   2.447   2.498   9.920  1.2106 -0.3446  0.3394
   22SAPC   H4X 2924   2.336   2.506   9.914  1.3095  0.2715 -0.8945
   22SAPC   H4Y 2925   2.463   2.407   9.860  1.6649  0.1032 -0.2291
   22SAPC   C35 2926   2.514   2.624   9.855  0.1491  0.1706  0.2463
   22SAPC   H5X 2927   2.625   2.627   9.859  0.2147  2.0538 -1.5626
   22SAPC   H5Y 2928   2.482   2.714   9.912  1.4288  0.3902  0.6571
   22SAPC   C36 2929   2.470   2.642   9.713  0.3374  0.3672 -0.1462
   22SAPC   H6X 2930   2.359   2.651   9.717  0.3474  0.2149  0.6485
   22SAPC   H6Y 2931   2.512   2.554   9.660  0.7657  1.1146 -1.0786
   22SAPC   C37 2932   2.531   2.764   9.653 -0.7277 -0.0859 -0.1682
   22SAPC   H7X 2933   2.529   2.753   9.543  0.1546  2.1392 -0.4424
   22SAPC   H7Y 2934   2.636   2.785   9.679 -1.2452  2.2739  0.2395
   22SAPC   C38 2935   2.466   2.890   9.696 -0.0822  0.0479 -0.1664
   22SAPC   H8X 2936   2.498   2.892   9.802  1.9096 -2.9888 -0.6043
   22SAPC   H8Y 2937   2.356   2.883   9.682 -0.1223  1.6079 -0.8300
   22SAPC   C39 2938   2.517   3.016   9.614  0.3379  0.8819 -0.6242
   22SAPC   H9X 2939   2.628   3.018   9.620  0.3121  0.7408 -0.0291
   22SAPC   H9Y 2940   2.483   3.106   9.670 -0.2989 -0.4724  1.2891
   22SAPC  C310 2941   2.465   3.036   9.474  0.1079  0.0868 -0.5905
   22SAPC  H10X 2942   2.360   3.071   9.480 -0.2511 -0.9438 -0.6962
   22SAPC  H10Y 2943   2.461   2.937   9.424 -3.3357 -1.0542  1.6133
   22SAPC  C311 2944   2.543   3.132   9.392  0.8714  0.2418  0.3904
   22SAPC  H11X 2945   2.649   3.098   9.394  1.2672  1.2238 -1.1735
   22SAPC  H11Y 2946   2.530   3.229   9.444 -0.2818 -0.2498  1.0429
   22SAPC  C312 2947   2.502   3.158   9.249 -0.1231  0.4816  0.1847
   22SAPC  H12X 2948   2.541   3.258   9.221  0.6717  0.0471 -0.2963
   22SAPC  H12Y 2949   2.392   3.166   9.242 -0.2455 -0.2016  1.1507
   22SAPC  C313 2950   2.569   3.055   9.156  0.1588  0.9400  0.6752
   22SAPC  H13X 2951   2.546   2.949   9.179 -1.4098  0.9703 -0.5740
   22SAPC  H13Y 2952   2.678   3.070   9.172  0.6185 -0.7365 -0.6196
   22SAPC  C314 2953   2.554   3.076   9.005  0.1072 -0.4183 -0.3013
   22SAPC  H14X 2954   2.626   3.003   8.963 -0.4451  0.1215 -2.3125
   22SAPC  H14Y 2955   2.580   3.181   8.981  0.3102 -0.4665 -0.2905
   22SAPC  C315 2956   2.409   3.045   8.958 -0.6841 -0.2220 -0.0180
   22SAPC  H15X 2957   2.332   3.105   9.012 -1.5366 -0.4393 -0.9676
   22SAPC  H15Y 2958   2.372   2.943   8.980 -0.6470 -0.5052 -1.2008
   22SAPC  C316 2959   2.392   3.070   8.807 -0.2929 -0.6583 -0.5608
   22SAPC  H16X 2960   2.431   3.171   8.782 -0.6677 -0.1637  0.7556
   22SAPC  H16Y 2961   2.283   3.066   8.785 -0.8001  0.5141  1.4273
   22SAPC  C317 2962   2.460   2.965   8.715 -0.1910 -0.1802  0.3937
   22SAPC  H17X 2963   2.413   2.864   8.720  3.2053 -1.8747  1.4398
   22SAPC  H17Y 2964   2.565   2.964   8.752 -0.8171 -0.6672  2.2820
   22SAPC  C318 2965   2.465   3.008   8.569 -1.1108 -0.0512  0.2508
   22SAPC  H18X 2966   2.512   3.104   8.541  1.8511 -1.5805 -0.4774
   22SAPC  H18Y 2967   2.362   3.024   8.530 -1.6926 -2.4526  0.6116
   22SAPC  H18Z 2968   2.520   2.935   8.506  2.1677  2.0026  0.5068
   23SAPC     N 2969   6.011   6.716  11.115 -0.0852 -0.2097  0.2128
   23SAPC   C12 2970   5.931   6.670  10.998 -0.7251 -0.0026  0.3018
   23SAPC  H12A 2971   5.887   6.760  10.956 -1.5230 -0.4896  0.0662
   23SAPC  H12B 2972   5.852   6.598  11.016 -0.1803 -0.3129  1.5638
   23SAPC   C13 2973   6.118   6.819  11.082 -0.1184  0.3186 -0.3149
   23SAPC  H13A 2974   6.183   6.847  11.163  1.8487  2.8643 -2.5668
   23SAPC  H13B 2975   6.190   6.777  11.013  0.6818 -1.9923  1.7641
   23SAPC  H13C 2976   6.073   6.910  11.045 -0.2165 -0.5747 -2.5883
   23SAPC   C14 2977   5.918   6.774  11.218 -0.1435  0.2380  0.5680
   23SAPC  H14A 2978   5.970   6.806  11.307  1.4481  0.7416 -0.5068
   23SAPC  H14B 2979   5.867   6.863  11.184 -0.2970  0.3563  1.0996
   23SAPC  H14C 2980   5.844   6.700  11.245  0.6126 -1.3208 -1.3794
   23SAPC   C15 2981   6.092   6.603  11.169 -0.3596  0.3299 -0.1124
   23SAPC  H15A 2982   6.045   6.506  11.166  0.8028 -0.5247  3.6082
   23SAPC  H15B 2983   6.180   6.588  11.108 -0.2499  2.5196 -0.5900
   23SAPC  H15C 2984   6.119   6.613  11.273 -0.0089  0.5855 -0.2269
   23SAPC   C11 2985   6.014   6.605  10.884  0.2120 -0.5454 -0.1988
   23SAPC  H11A 2986   6.109   6.662  10.868 -0.4079  0.8015  0.7328
   23SAPC  H11B 2987   5.953   6.597  10.792 -0.8734 -1.0780  0.5541
   23SAPC     P 2988   6.008   6.342  10.835 -0.1197  0.2342  0.1486
   23SAPC   O13 2989   6.089   6.232  10.877 -0.7662  0.1544 -0.2626
   23SAPC   O14 2990   5.857   6.338  10.868 -0.3168 -0.4210  0.5347
   23SAPC   O12 2991   6.058   6.467  10.914 -0.0447 -0.6807  0.6363
   23SAPC   O11 2992   6.047   6.380  10.687 -0.0195 -0.1411 -0.5462
   23SAPC    C1 2993   6.187   6.408  10.664  0.0169 -0.6813  0.4986
   23SAPC    HA 2994   6.253   6.440  10.747  2.1301  2.6195 -2.1754
   23SAPC    HB 2995   6.238   6.317  10.623 -0.1129 -0.5149 -0.0423
   23SAPC    C2 2996   6.213   6.521  10.563 -0.1959 -0.4234  0.3341
   23SAPC    HS 2997   6.147   6.602  10.600 -1.7355 -1.7762  0.6395
   23SAPC   O21 2998   6.187   6.466  10.428  0.8549 -0.1384  0.0822
   23SAPC   C21 2999   6.104   6.532  10.357 -0.3165  0.0261 -0.0558
   23SAPC   O22 3000   6.042   6.633  10.391 -0.2084  0.0466 -0.3572
   23SAPC   C22 3001   6.103   6.459  10.220  0.6146  0.0021  0.4040
   23SAPC   H2R 3002   6.200   6.487  10.175  0.8799 -1.6017 -0.0870
   23SAPC   H2S 3003   6.105   6.348  10.230 -1.0941 -0.3157 -1.9633
   23SAPC    C3 3004   6.358   6.571  10.561 -0.0703  0.4545 -0.0331
   23SAPC    HX 3005   6.412   6.483  10.521 -2.9031 -1.4474  0.0620
   23SAPC    HY 3006   6.401   6.593  10.661  0.3992 -1.5624  0.2446
   23SAPC   O31 3007   6.385   6.671  10.458 -0.1100 -0.0820  0.0732
   23SAPC   C31 3008   6.346   6.792  10.488 -0.4079  0.2682  0.0505
   23SAPC   O32 3009   6.292   6.815  10.595  0.1371 -0.0737 -0.8450
   23SAPC   C32 3010   6.374   6.892  10.369 -0.1203 -0.2370  0.2381
   23SAPC   H2X 3011   6.483   6.913  10.376  0.6377 -2.5113 -2.7548
   23SAPC   H2Y 3012   6.326   6.991  10.389 -1.0117 -0.5865 -0.0914
   23SAPC   C23 3013   5.978   6.509  10.150 -0.1423 -0.2703 -0.5981
   23SAPC   H3R 3014   5.991   6.599  10.085  0.3833 -0.1709 -0.3574
   23SAPC   H3S 3015   5.896   6.529  10.222 -0.9706 -0.6115 -1.4161
   23SAPC   C24 3016   5.920   6.404  10.047 -0.1083 -0.2505 -0.1226
   23SAPC   H4R 3017   5.909   6.306  10.099 -0.9788  1.4176  3.0976
   23SAPC   H4S 3018   5.998   6.394   9.969 -0.3976  0.4757 -0.5116
   23SAPC   C25 3019   5.784   6.438   9.990  0.6205  0.2469  0.0312
   23SAPC   H5R 3020   5.703   6.436  10.064 -2.7503 -1.1880 -3.3903
   23SAPC   C26 3021   5.759   6.455   9.859 -0.7803  0.3959 -0.2127
   23SAPC   H6R 3022   5.656   6.485   9.835 -1.1011 -0.9136 -0.5910
   23SAPC   C27 3023   5.849   6.446   9.737  0.3155 -0.9259  0.4146
   23SAPC   H7R 3024   5.957   6.457   9.763  0.4382  0.3890 -0.5189
   23SAPC   H7S 3025   5.822   6.541   9.687 -0.0784 -0.3181  1.7216
   23SAPC   C28 3026   5.809   6.326   9.655 -0.1711 -0.8646  0.6087
   23SAPC   H8R 3027   5.797   6.231   9.710 -1.4914 -1.5652 -0.8139
   23SAPC   C29 3028   5.801   6.328   9.517  0.4343  1.0197 -0.5893
   23SAPC   H9R 3029   5.756   6.239   9.470 -0.7766  2.3438 -2.0363
   23SAPC  C210 3030   5.827   6.434   9.418  0.3612  0.0509  0.5293
   23SAPC  H10R 3031   5.919   6.414   9.358  0.2150 -0.9188  0.6041
   23SAPC  H10S 3032   5.844   6.536   9.458  1.1381  1.2319 -2.5282
   23SAPC  C211 3033   5.713   6.440   9.315 -1.1343 -0.4779 -0.5717
   23SAPC  H11R 3034   5.613   6.441   9.360 -0.8315 -1.4651  0.1598
   23SAPC  C212 3035   5.724   6.448   9.181 -0.2369  0.3275  0.3831
   23SAPC  H12R 3036   5.629   6.455   9.126  0.4800  3.5951 -0.6338
   23SAPC  C213 3037   5.849   6.444   9.090  0.5476 -0.6297 -1.0274
   23SAPC  H13R 3038   5.886   6.343   9.119 -0.7586 -1.2376 -1.3743
   23SAPC  H13S 3039   5.926   6.517   9.121  0.6355 -1.2355  0.2721
   23SAPC  C214 3040   5.803   6.451   8.947  0.0816  0.1654 -0.3685
   23SAPC  H14R 3041   5.810   6.553   8.908  0.0142 -0.3167 -1.6774
   23SAPC  C215 3042   5.756   6.353   8.869  0.1637 -0.1425 -0.2867
   23SAPC  H15R 3043   5.718   6.382   8.770  1.3994  2.9411  0.0451
   23SAPC  C216 3044   5.742   6.216   8.909  0.2557 -0.1518 -0.2881
   23SAPC  H16R 3045   5.788   6.201   9.009 -0.4202 -1.2434 -0.1298
   23SAPC  H16S 3046   5.790   6.139   8.846  1.6584 -0.6010  1.2404
   23SAPC  C217 3047   5.594   6.193   8.915  0.7416 -0.0029 -0.3814
   23SAPC  H17R 3048   5.533   6.271   8.966  0.7808  1.6478 -2.7272
   23SAPC  H17S 3049   5.586   6.106   8.984 -0.7833  2.5947  3.0336
   23SAPC  C218 3050   5.521   6.163   8.773  0.1973 -0.2573 -0.6787
   23SAPC  H18R 3051   5.568   6.073   8.728 -1.9826 -1.7047 -0.2131
   23SAPC  H18S 3052   5.533   6.249   8.704  0.2493  1.9419  1.9057
   23SAPC  C219 3053   5.369   6.142   8.786  0.5949 -0.1197 -0.2536
   23SAPC  H19R 3054   5.329   6.094   8.695 -0.1314  0.4250 -0.2342
   23SAPC  H19S 3055   5.313   6.238   8.785  0.7386  0.0482  2.1228
   23SAPC  C220 3056   5.320   6.059   8.904 -0.4613  0.2453 -0.1457
   23SAPC  H20R 3057   5.341   5.951   8.887  1.9432  0.4431  1.0919
   23SAPC  H20S 3058   5.210   6.065   8.922 -0.7815  0.1980 -1.9195
   23SAPC  H20T 3059   5.360   6.098   9.000  0.1422  1.6003 -0.9103
   23SAPC   C33 3060   6.326   6.851  10.222 -0.1892 -0.6746 -0.5615
   23SAPC   H3X 3061   6.301   6.941  10.161 -2.2552  0.7221  2.1347
   23SAPC   H3Y 3062   6.222   6.811  10.225 -0.4568 -0.0343 -1.0641
   23SAPC   C34 3063   6.422   6.768  10.151  0.1191 -0.5402  0.7235
   23SAPC   H4X 3064   6.447   6.674  10.205 -0.0562 -0.9191  0.1542
   23SAPC   H4Y 3065   6.519   6.822  10.136 -0.0404 -0.0210  1.4743
   23SAPC   C35 3066   6.366   6.734  10.008  0.9295  0.1326 -0.1788
   23SAPC   H5X 3067   6.373   6.816   9.934  0.4635 -0.0719 -0.4565
   23SAPC   H5Y 3068   6.259   6.706  10.017  0.6666  1.5527  1.6911
   23SAPC   C36 3069   6.446   6.610   9.959  0.4115  0.1143 -0.0260
   23SAPC   H6X 3070   6.417   6.513  10.005 -0.5950  1.3090  1.9923
   23SAPC   H6Y 3071   6.552   6.624   9.991  0.0452  3.5338  0.0104
   23SAPC   C37 3072   6.424   6.583   9.814 -0.9658 -0.2543  0.3099
   23SAPC   H7X 3073   6.313   6.578   9.816 -0.9513 -1.0025 -0.1612
   23SAPC   H7Y 3074   6.455   6.478   9.792  0.4538  0.5049 -1.5911
   23SAPC   C38 3075   6.508   6.672   9.723 -0.4663  0.3067 -0.5986
   23SAPC   H8X 3076   6.616   6.669   9.750 -0.8872 -0.3359  1.1285
   23SAPC   H8Y 3077   6.468   6.775   9.737  2.0861  1.3604 -0.5012
   23SAPC   C39 3078   6.495   6.627   9.581 -0.0930 -0.9759  0.6213
   23SAPC   H9X 3079   6.391   6.654   9.553 -0.3960 -3.7494 -1.3194
   23SAPC   H9Y 3080   6.503   6.517   9.568 -0.6012 -0.7809 -1.7121
   23SAPC  C310 3081   6.590   6.705   9.488  0.2054 -0.1559  0.6513
   23SAPC  H10X 3082   6.586   6.816   9.493  1.1857 -0.1509  1.8126
   23SAPC  H10Y 3083   6.550   6.679   9.388 -0.4683 -0.5650  1.0176
   23SAPC  C311 3084   6.735   6.653   9.489  0.6217  0.9194  0.0115
   23SAPC  H11X 3085   6.740   6.560   9.428 -0.1367 -0.6497  2.2179
   23SAPC  H11Y 3086   6.765   6.647   9.596 -1.6611 -1.0909  0.6467
   23SAPC  C312 3087   6.844   6.725   9.419 -0.0044 -0.0664  0.1411
   23SAPC  H12X 3088   6.939   6.669   9.432  0.2153  0.5240  1.1924
   23SAPC  H12Y 3089   6.870   6.822   9.468  1.1168 -0.2311 -0.0989
   23SAPC  C313 3090   6.841   6.744   9.267 -0.7184 -0.7043  1.0442
   23SAPC  H13X 3091   6.748   6.798   9.237  0.7734  1.0605 -0.6208
   23SAPC  H13Y 3092   6.841   6.639   9.231  0.6946 -0.7008  1.0133
   23SAPC  C314 3093   6.956   6.826   9.200 -0.9230 -0.4380 -0.1166
   23SAPC  H14X 3094   7.054   6.781   9.228 -1.3216  0.5019  3.1646
   23SAPC  H14Y 3095   6.947   6.926   9.246 -1.4855 -0.9964  1.0263
   23SAPC  C315 3096   6.935   6.850   9.045 -0.0888 -0.0271  0.0937
   23SAPC  H15X 3097   7.018   6.918   9.017  0.5742 -0.2681  1.4266
   23SAPC  H15Y 3098   6.835   6.895   9.027  0.5351  0.4436 -2.6462
   23SAPC  C316 3099   6.942   6.726   8.952  0.0918  0.1813  0.1109
   23SAPC  H16X 3100   6.875   6.645   8.988 -0.4692  0.2770 -0.7027
   23SAPC  H16Y 3101   7.046   6.687   8.953  0.1858  0.4191  1.1048
   23SAPC  C317 3102   6.896   6.758   8.808 -0.5135 -0.1909 -0.4376
   23SAPC  H17X 3103   6.974   6.820   8.759  2.0637 -1.4769  1.7584
   23SAPC  H17Y 3104   6.798   6.810   8.806 -0.9436 -0.7756  1.8667
   23SAPC  C318 3105   6.871   6.628   8.729 -0.6336 -0.1187 -0.0058
   23SAPC  H18X 3106   6.961   6.564   8.741  0.0780  0.6491 -1.0515
   23SAPC  H18Y 3107   6.865   6.657   8.622 -0.4884 -1.3482 -0.3627
   23SAPC  H18Z 3108   6.775   6.585   8.764 -0.4439 -0.2610  0.3579
   24SAPC     N 3109   1.265   4.149  11.268 -0.3039  0.4213 -0.3510
   24SAPC   C12 3110   1.352   4.215  11.159  0.7376  0.4598  0.0224
   24SAPC  H12A 3111   1.362   4.154  11.071  0.0429  0.6211 -0.1796
   24SAPC  H12B 3112   1.454   4.232  11.190  0.3885  1.3365  0.7436
   24SAPC   C13 3113   1.118   4.166  11.237 -0.0908  0.2302  0.5550
   24SAPC  H13A 3114   1.088   4.132  11.139  0.5675  2.3851 -0.4709
   24SAPC  H13B 3115   1.063   4.124  11.319  0.2622 -0.3264  0.5106
   24SAPC  H13C 3116   1.092   4.271  11.244  0.0898  0.2971  0.2404
   24SAPC   C14 3117   1.298   4.006  11.270 -0.0311 -0.5546 -0.4466
   24SAPC  H14A 3118   1.294   3.963  11.171 -1.2471  0.1217 -0.7101
   24SAPC  H14B 3119   1.401   3.992  11.301 -0.1920 -0.1218  0.3206
   24SAPC  H14C 3120   1.233   3.952  11.338 -1.4502  0.4226 -0.9722
   24SAPC   C15 3121   1.283   4.201  11.408 -0.1613 -0.2063 -0.0488
   24SAPC  H15A 3122   1.261   4.307  11.414  1.7733  0.2015  0.4347
   24SAPC  H15B 3123   1.237   4.154  11.493  1.8439 -3.3923 -0.5743
   24SAPC  H15C 3124   1.390   4.196  11.422 -0.0878 -1.8533 -0.9640
   24SAPC   C11 3125   1.317   4.354  11.102 -0.8294 -0.1812  0.1597
   24SAPC  H11A 3126   1.222   4.343  11.046 -0.7518  0.1740 -0.0487
   24SAPC  H11B 3127   1.393   4.367  11.022 -0.3514 -0.9374  0.4705
   24SAPC     P 3128   1.443   4.522  11.253 -0.2585 -0.2476  0.1771
   24SAPC   O13 3129   1.424   4.655  11.316  0.4896 -0.3240 -0.4851
   24SAPC   O14 3130   1.513   4.423  11.332  0.0083 -0.0575 -0.1984
   24SAPC   O12 3131   1.307   4.459  11.198 -0.0239  0.4101 -0.0184
   24SAPC   O11 3132   1.530   4.542  11.119 -0.7722  0.3131  0.2747
   24SAPC    C1 3133   1.496   4.651  11.025  0.1675  1.4587 -0.4066
   24SAPC    HA 3134   1.385   4.657  11.011 -0.5343 -1.1164  2.8418
   24SAPC    HB 3135   1.516   4.751  11.069 -1.5340  1.4404  0.4974
   24SAPC    C2 3136   1.565   4.632  10.891 -0.1601 -0.1609  0.3919
   24SAPC    HS 3137   1.510   4.691  10.814 -0.7076 -1.6007 -0.3538
   24SAPC   O21 3138   1.565   4.502  10.838 -1.0890 -0.3028 -0.5060
   24SAPC   C21 3139   1.452   4.457  10.786  0.2873  0.4207  0.0224
   24SAPC   O22 3140   1.343   4.509  10.802 -0.0045  0.2624  0.0210
   24SAPC   C22 3141   1.474   4.321  10.721 -0.2445 -0.2924 -0.7933
   24SAPC   H2R 3142   1.585   4.311  10.721  0.1668  3.1013 -0.5125
   24SAPC   H2S 3143   1.434   4.242  10.789 -2.2772  2.4054  1.3916
   24SAPC    C3 3144   1.714   4.680  10.899  0.4192  0.6063 -0.2762
   24SAPC    HX 3145   1.772   4.604  10.956 -0.4928 -0.7720 -1.1169
   24SAPC    HY 3146   1.721   4.771  10.963  1.2035 -1.2714  2.4978
   24SAPC   O31 3147   1.772   4.704  10.771 -0.3313  0.6666 -0.0560
   24SAPC   C31 3148   1.762   4.827  10.722 -0.1562  0.0514 -0.3601
   24SAPC   O32 3149   1.694   4.916  10.768  0.0895 -0.9521 -0.1462
   24SAPC   C32 3150   1.865   4.840  10.603  1.0766 -0.1477 -0.7139
   24SAPC   H2X 3151   1.859   4.742  10.549 -0.5231  0.4215 -1.6478
   24SAPC   H2Y 3152   1.972   4.854  10.630  1.5243 -0.3082 -2.2822
   24SAPC   C23 3153   1.422   4.299  10.570 -0.3592  0.3564  0.2250
   24SAPC   H3R 3154   1.481   4.378  10.519  0.1112  0.9736  1.6850
   24SAPC   H3S 3155   1.316   4.322  10.545 -0.0954 -0.1890 -1.4953
   24SAPC   C24 3156   1.462   4.165  10.511  0.1272 -0.4311  0.0880
   24SAPC   H4R 3157   1.572   4.158  10.522  0.0897  1.2005  2.3495
   24SAPC   H4S 3158   1.429   4.166  10.405 -0.7490  3.9501  0.1929
   24SAPC   C25 3159   1.403   4.044  10.592 -0.7488 -0.1073 -0.7865
   24SAPC   H5R 3160   1.465   4.000  10.671 -1.7100 -0.0895  0.0026
   24SAPC   C26 3161   1.291   3.978  10.568 -0.0814 -0.5875  0.4155
   24SAPC   H6R 3162   1.253   3.899  10.634  2.1825 -0.4984  1.9245
   24SAPC   C27 3163   1.192   4.020  10.461 -0.8233  0.4966 -0.6293
   24SAPC   H7R 3164   1.227   4.117  10.419 -1.3693  0.7846 -0.4259
   24SAPC   H7S 3165   1.101   4.045  10.520  0.8501 -0.0218  2.4016
   24SAPC   C28 3166   1.172   3.924  10.347  1.3437  0.4738  0.4170
   24SAPC   H8R 3167   1.162   3.817  10.369  1.4125  0.2290 -0.6657
   24SAPC   C29 3168   1.160   3.961  10.218  0.0507 -0.9694  0.0793
   24SAPC   H9R 3169   1.147   3.882  10.143  1.5550 -1.6369  0.4915
   24SAPC  C210 3170   1.155   4.101  10.163  0.7600  0.0287 -0.8398
   24SAPC  H10R 3171   1.147   4.177  10.244  1.0286 -0.2072 -0.5880
   24SAPC  H10S 3172   1.069   4.113  10.094 -0.9186  1.3116  1.3568
   24SAPC  C211 3173   1.273   4.149  10.083 -0.8128  0.1549  0.6133
   24SAPC  H11R 3174   1.317   4.071  10.019  0.2224 -0.2803  1.7974
   24SAPC  C212 3175   1.318   4.273  10.075  0.3909 -0.1007  0.1197
   24SAPC  H12R 3176   1.405   4.286  10.009  0.2375 -2.1024 -0.5297
   24SAPC  C213 3177   1.268   4.406  10.142  0.6465 -0.4050  0.3302
   24SAPC  H13R 3178   1.344   4.482  10.113  1.6670 -1.6933 -0.5046
   24SAPC  H13S 3179   1.271   4.393  10.252  0.2414  0.7965  0.5036
   24SAPC  C214 3180   1.120   4.448  10.102 -0.4636  0.0042  0.0141
   24SAPC  H14R 3181   1.114   4.471   9.995  1.0716 -1.6504 -0.4740
   24SAPC  C215 3182   1.015   4.458  10.183  0.0261  0.1018  0.7321
   24SAPC  H15R 3183   0.917   4.487  10.140  0.4985  2.4769  1.1050
   24SAPC  C216 3184   1.021   4.442  10.331 -0.4426  0.0199  0.7052
   24SAPC  H16R 3185   1.016   4.544  10.375  0.1501  0.4446 -0.1795
   24SAPC  H16S 3186   1.116   4.389  10.354  1.1066  2.0095 -0.7636
   24SAPC  C217 3187   0.897   4.351  10.378 -0.4291 -0.2389 -0.2250
   24SAPC  H17R 3188   0.920   4.319  10.482 -0.0631 -0.4408 -0.3646
   24SAPC  H17S 3189   0.887   4.265  10.308 -0.2879 -1.9359  1.7337
   24SAPC  C218 3190   0.765   4.424  10.383 -0.4301  0.1691  0.2020
   24SAPC  H18R 3191   0.737   4.468  10.285  1.6761  0.1247 -0.4666
   24SAPC  H18S 3192   0.768   4.508  10.456 -2.6878  2.3726 -2.0486
   24SAPC  C219 3193   0.643   4.344  10.418  0.9569 -0.0966 -0.3074
   24SAPC  H19R 3194   0.611   4.282  10.331 -1.7889 -1.4590  1.5753
   24SAPC  H19S 3195   0.555   4.410  10.431  0.9022 -0.0303 -0.9630
   24SAPC  C220 3196   0.641   4.255  10.545 -0.9296 -0.1587 -0.1092
   24SAPC  H20R 3197   0.650   4.314  10.639 -2.5407  1.5357 -0.9608
   24SAPC  H20S 3198   0.723   4.179  10.552 -1.2284 -0.3327  2.1111
   24SAPC  H20T 3199   0.542   4.205  10.545 -1.0619 -0.0153  2.2179
   24SAPC   C33 3200   1.818   4.964  10.510  1.1230  0.5567  0.5283
   24SAPC   H3X 3201   1.886   4.961  10.422 -0.7775  0.6136 -1.0208
   24SAPC   H3Y 3202   1.826   5.059  10.568  2.2936 -0.7440  2.6327
   24SAPC   C34 3203   1.678   4.949  10.446 -0.5435 -0.7129  0.2638
   24SAPC   H4X 3204   1.604   4.957  10.528 -0.4687  1.2248  0.1880
   24SAPC   H4Y 3205   1.673   4.848  10.399 -0.0956 -0.8636  0.5345
   24SAPC   C35 3206   1.648   5.059  10.349 -0.6244 -0.4218 -0.1894
   24SAPC   H5X 3207   1.645   5.158  10.399  1.6774 -0.1571 -0.4447
   24SAPC   H5Y 3208   1.547   5.052  10.303 -0.8109 -1.5417  0.3676
   24SAPC   C36 3209   1.761   5.087  10.246 -0.3289 -0.7610  0.1044
   24SAPC   H6X 3210   1.789   5.001  10.182  0.4416  0.9291 -1.9427
   24SAPC   H6Y 3211   1.850   5.124  10.300  0.0401 -1.1445 -0.2379
   24SAPC   C37 3212   1.728   5.213  10.162 -0.1481  0.0493  0.0145
   24SAPC   H7X 3213   1.703   5.294  10.233 -1.3975 -1.2161  1.0683
   24SAPC   H7Y 3214   1.633   5.197  10.106 -0.8582 -0.2601  1.2852
   24SAPC   C38 3215   1.838   5.239  10.058 -0.1748  0.6233 -0.5737
   24SAPC   H8X 3216   1.839   5.162   9.977  2.0052 -0.2769  0.2065
   24SAPC   H8Y 3217   1.939   5.236  10.104 -0.0502  1.6910 -0.7554
   24SAPC   C39 3218   1.825   5.367   9.988 -0.6223  0.3127 -0.3057
   24SAPC   H9X 3219   1.874   5.447  10.046 -0.1411  0.2538 -0.6227
   24SAPC   H9Y 3220   1.721   5.404   9.980 -0.6280  0.0801 -1.6291
   24SAPC  C310 3221   1.891   5.364   9.847  0.1347  0.3226  0.1490
   24SAPC  H10X 3222   1.855   5.274   9.794  0.8269  0.0572  0.1123
   24SAPC  H10Y 3223   2.002   5.357   9.846  0.1017 -0.2003 -0.3766
   24SAPC  C311 3224   1.844   5.493   9.772  0.1137 -0.4781 -0.2486
   24SAPC  H11X 3225   1.906   5.580   9.803 -0.4601  0.5871 -1.9084
   24SAPC  H11Y 3226   1.748   5.530   9.814 -0.2429  0.5539 -1.8824
   24SAPC  C312 3227   1.838   5.483   9.623  0.2792  0.1954  0.0520
   24SAPC  H12X 3228   1.782   5.390   9.601  1.0793 -0.2755 -0.0218
   24SAPC  H12Y 3229   1.939   5.457   9.584  0.5622  0.8195  0.3386
   24SAPC  C313 3230   1.790   5.599   9.542 -0.3873 -0.4200  0.6346
   24SAPC  H13X 3231   1.831   5.696   9.575 -0.0774  0.0337 -1.0155
   24SAPC  H13Y 3232   1.681   5.616   9.552 -0.2279  0.6466  0.6690
   24SAPC  C314 3233   1.830   5.572   9.389  0.2537 -0.1689  0.5090
   24SAPC  H14X 3234   1.763   5.495   9.345  0.1815  1.6843 -3.0004
   24SAPC  H14Y 3235   1.933   5.530   9.391 -0.3211 -1.8553  4.7111
   24SAPC  C315 3236   1.824   5.704   9.304  0.4857 -0.0639  0.3645
   24SAPC  H15X 3237   1.728   5.759   9.309  0.1754 -0.7303  2.9850
   24SAPC  H15Y 3238   1.834   5.673   9.198 -1.8719  3.3168 -1.0499
   24SAPC  C316 3239   1.940   5.805   9.326 -0.5033 -0.3650 -0.3731
   24SAPC  H16X 3240   1.935   5.838   9.431 -0.3005  0.7193 -0.6906
   24SAPC  H16Y 3241   1.923   5.897   9.265  2.3928  1.4562  1.3190
   24SAPC  C317 3242   2.081   5.747   9.298 -0.6128 -0.0972  0.0385
   24SAPC  H17X 3243   2.081   5.725   9.189 -0.8081 -0.0055  0.0208
   24SAPC  H17Y 3244   2.082   5.656   9.362 -2.5782  0.1436  0.4802
   24SAPC  C318 3245   2.191   5.851   9.344  0.1663 -0.2198 -0.0585
   24SAPC  H18X 3246   2.181   5.892   9.447  0.3634  0.2730 -0.2344
   24SAPC  H18Y 3247   2.192   5.934   9.270  0.7529 -0.7563 -0.6687
   24SAPC  H18Z 3248   2.294   5.809   9.343  0.5157  0.6212 -1.0587
   25SAPC     N 3249   2.351   5.858   6.347 -0.0216  0.2229 -0.5901
   25SAPC   C12 3250   2.418   5.942   6.456  0.0091 -0.6794  0.3763
   25SAPC  H12A 3251   2.519   5.951   6.418  0.3512 -2.5221  0.7545
   25SAPC  H12B 3252   2.419   5.893   6.553  2.7959  0.2917  0.9328
   25SAPC   C13 3253   2.405   5.716   6.365  0.2917 -0.4744  0.0451
   25SAPC  H13A 3254   2.347   5.654   6.297  0.3594 -0.3727 -0.1058
   25SAPC  H13B 3255   2.509   5.707   6.338  0.6044  2.1703  0.1552
   25SAPC  H13C 3256   2.397   5.680   6.466  0.5787 -1.4867 -0.2791
   25SAPC   C14 3257   2.208   5.855   6.369 -0.9834  0.2350  0.3851
   25SAPC  H14A 3258   2.153   5.789   6.304 -1.8393 -0.9785  2.2405
   25SAPC  H14B 3259   2.185   5.827   6.471 -0.8313  0.0324  0.3644
   25SAPC  H14C 3260   2.176   5.956   6.350  0.3427  0.6321  0.2036
   25SAPC   C15 3261   2.381   5.908   6.217 -0.2770  0.2369  0.5532
   25SAPC  H15A 3262   2.345   6.008   6.197  0.9119  0.4071 -0.8489
   25SAPC  H15B 3263   2.485   5.904   6.189 -0.1665  0.7669  0.8633
   25SAPC  H15C 3264   2.330   5.850   6.142  0.0959 -0.4123  0.7984
   25SAPC   C11 3265   2.352   6.080   6.488 -0.1896 -0.4626  0.1656
   25SAPC  H11A 3266   2.411   6.131   6.567 -0.7803 -1.4286  1.2648
   25SAPC  H11B 3267   2.251   6.062   6.530  0.2090 -0.2074  1.2720
   25SAPC     P 3268   2.247   6.270   6.331 -1.0939 -0.7378  0.0153
   25SAPC   O13 3269   2.269   6.313   6.188  0.1326  0.6953  0.1950
   25SAPC   O14 3270   2.113   6.228   6.362 -0.9948  0.1131  0.2998
   25SAPC   O12 3271   2.347   6.158   6.368 -0.3372  0.0169 -1.0471
   25SAPC   O11 3272   2.284   6.380   6.432  0.2569 -0.3969  0.0113
   25SAPC    C1 3273   2.421   6.419   6.462  0.2426  0.2891 -0.2400
   25SAPC    HA 3274   2.492   6.339   6.491  2.4201  2.4613  0.7854
   25SAPC    HB 3275   2.467   6.472   6.376 -1.8385  1.7453 -0.5476
   25SAPC    C2 3276   2.413   6.517   6.581  0.0339 -0.6979  0.4924
   25SAPC    HS 3277   2.513   6.565   6.585 -1.1232  1.9052  0.2048
   25SAPC   O21 3278   2.362   6.459   6.705  0.2072 -0.3679  0.1706
   25SAPC   C21 3279   2.458   6.371   6.759  0.0198  0.1218 -0.7866
   25SAPC   O22 3280   2.565   6.352   6.702  0.5321 -0.6477 -0.6269
   25SAPC   C22 3281   2.406   6.299   6.893 -0.3054  0.2225 -0.1962
   25SAPC   H2R 3282   2.378   6.195   6.864  0.4775  0.1387 -0.7076
   25SAPC   H2S 3283   2.496   6.291   6.958  2.0734  1.8280 -3.0577
   25SAPC    C3 3284   2.308   6.628   6.551 -0.5716 -0.2809 -0.0507
   25SAPC    HX 3285   2.210   6.582   6.526  0.4066 -1.2536 -2.4422
   25SAPC    HY 3286   2.350   6.676   6.460 -2.2378 -1.5255 -1.5554
   25SAPC   O31 3287   2.297   6.734   6.652  0.0908 -0.2945 -0.0192
   25SAPC   C31 3288   2.209   6.715   6.749  0.1790  0.5542  0.4119
   25SAPC   O32 3289   2.124   6.629   6.746  0.3242 -0.5995  0.3472
   25SAPC   C32 3290   2.247   6.804   6.863 -0.4060 -0.4903  0.1417
   25SAPC   H2X 3291   2.219   6.909   6.840  2.0673 -0.2903 -2.5247
   25SAPC   H2Y 3292   2.356   6.784   6.876 -0.6582 -0.8764  1.8973
   25SAPC   C23 3293   2.275   6.344   6.959  0.2521 -0.1447 -0.2184
   25SAPC   H3R 3294   2.193   6.307   6.895 -0.5932  1.1962  0.0577
   25SAPC   H3S 3295   2.283   6.455   6.963 -3.5412  0.2073  0.9522
   25SAPC   C24 3296   2.243   6.298   7.099 -0.0323  0.0079  0.0204
   25SAPC   H4R 3297   2.319   6.342   7.166 -0.9561 -1.1942  1.9681
   25SAPC   H4S 3298   2.254   6.187   7.096  0.1285  0.0562 -2.0226
   25SAPC   C25 3299   2.104   6.324   7.158  0.5969  0.6047 -0.6002
   25SAPC   H5R 3300   2.029   6.306   7.080 -1.7096  0.7581  1.4610
   25SAPC   C26 3301   2.064   6.344   7.287 -0.3624 -0.1868 -0.1933
   25SAPC   H6R 3302   1.956   6.334   7.304 -0.2284 -2.6727 -0.4312
   25SAPC   C27 3303   2.167   6.347   7.401 -0.3834  0.4532  0.2127
   25SAPC   H7R 3304   2.272   6.322   7.372 -0.0095 -1.7316  3.0505
   25SAPC   H7S 3305   2.132   6.270   7.473 -0.3341  1.4936  1.3735
   25SAPC   C28 3306   2.177   6.475   7.479  0.0205 -0.3529 -0.4190
   25SAPC   H8R 3307   2.210   6.562   7.420  0.2791  0.9248  1.5182
   25SAPC   C29 3308   2.153   6.499   7.615  0.0508  0.3364 -0.8651
   25SAPC   H9R 3309   2.171   6.599   7.657 -1.7132 -0.3601  1.8044
   25SAPC  C210 3310   2.124   6.393   7.721  0.0827 -0.2101 -0.1852
   25SAPC  H10R 3311   2.216   6.342   7.755 -1.4399 -1.7790  1.8419
   25SAPC  H10S 3312   2.051   6.319   7.682 -1.5381  1.4141 -0.4274
   25SAPC  C211 3313   2.063   6.461   7.842 -0.7215 -0.2718 -0.1879
   25SAPC  H11R 3314   1.977   6.528   7.825 -1.2995 -0.6479  1.1473
   25SAPC  C212 3315   2.086   6.430   7.970  0.5760 -0.4040  0.6177
   25SAPC  H12R 3316   2.037   6.493   8.046 -1.2940 -0.0681 -0.7861
   25SAPC  C213 3317   2.184   6.333   8.018  0.8387  0.6226 -0.3487
   25SAPC  H13R 3318   2.280   6.387   8.031  0.8381  1.2682 -2.6556
   25SAPC  H13S 3319   2.203   6.258   7.938  0.3081  2.1035 -1.9348
   25SAPC  C214 3320   2.144   6.279   8.151 -0.8249  1.0814 -0.0227
   25SAPC  H14R 3321   2.077   6.193   8.133  0.7596 -0.3953  0.9101
   25SAPC  C215 3322   2.184   6.312   8.274 -0.1530  0.1269 -0.3661
   25SAPC  H15R 3323   2.142   6.260   8.361 -0.3306  2.4086  0.9870
   25SAPC  C216 3324   2.289   6.414   8.305 -0.0226 -0.1606  0.7197
   25SAPC  H16R 3325   2.342   6.440   8.210 -0.8621  0.5382  0.4165
   25SAPC  H16S 3326   2.356   6.359   8.374 -1.5092 -1.6691  1.0136
   25SAPC  C217 3327   2.243   6.548   8.366 -0.0653 -0.5735  0.4401
   25SAPC  H17R 3328   2.215   6.546   8.473  0.6849  1.6947  0.7124
   25SAPC  H17S 3329   2.152   6.585   8.313  0.3655  1.3385  0.9955
   25SAPC  C218 3330   2.351   6.657   8.345 -0.5708  0.3957  0.5116
   25SAPC  H18R 3331   2.371   6.659   8.235  2.8495 -3.4175  0.8341
   25SAPC  H18S 3332   2.437   6.604   8.392 -0.9890  0.1246  0.9725
   25SAPC  C219 3333   2.304   6.789   8.399 -0.2235  0.1654 -0.1176
   25SAPC  H19R 3334   2.245   6.765   8.490  0.1990 -0.4968 -0.0115
   25SAPC  H19S 3335   2.235   6.830   8.322 -0.4980  3.5818  1.7620
   25SAPC  C220 3336   2.411   6.886   8.445 -0.0577  0.8531  0.1612
   25SAPC  H20R 3337   2.460   6.943   8.363  0.1802 -1.0920 -1.1211
   25SAPC  H20S 3338   2.489   6.830   8.501  1.1097  1.4463 -0.8251
   25SAPC  H20T 3339   2.365   6.967   8.505 -1.4543 -0.5528  1.0673
   25SAPC   C33 3340   2.181   6.759   6.993  0.0644  0.6795  0.1695
   25SAPC   H3X 3341   2.178   6.649   7.006  0.4269  0.7782  1.1239
   25SAPC   H3Y 3342   2.073   6.788   6.986 -0.4972 -0.8989  1.7125
   25SAPC   C34 3343   2.251   6.807   7.111 -0.0852 -0.6538 -0.3629
   25SAPC   H4X 3344   2.292   6.909   7.096 -1.4828  0.1202  0.8494
   25SAPC   H4Y 3345   2.348   6.756   7.131  1.2492  1.3476 -1.4033
   25SAPC   C35 3346   2.163   6.813   7.240 -0.0030  0.1187  0.4696
   25SAPC   H5X 3347   2.127   6.708   7.248  0.1740 -0.0707 -1.0055
   25SAPC   H5Y 3348   2.074   6.877   7.224 -0.5010 -0.6196  0.2364
   25SAPC   C36 3349   2.247   6.857   7.350 -0.0409  0.0019  0.0419
   25SAPC   H6X 3350   2.311   6.945   7.327  1.7132 -1.2322 -0.0073
   25SAPC   H6Y 3351   2.324   6.778   7.359  1.1418  1.2875  2.2982
   25SAPC   C37 3352   2.176   6.873   7.490 -0.2573  0.8620 -0.0351
   25SAPC   H7X 3353   2.100   6.792   7.500 -2.8975  3.0052 -1.1795
   25SAPC   H7Y 3354   2.117   6.967   7.498 -0.3007  0.9936 -1.5073
   25SAPC   C38 3355   2.275   6.884   7.605 -0.2825  0.1771  0.0623
   25SAPC   H8X 3356   2.341   6.969   7.574 -1.1129 -0.4316 -3.8434
   25SAPC   H8Y 3357   2.332   6.790   7.620 -3.2025 -1.9588 -1.3634
   25SAPC   C39 3358   2.223   6.950   7.734 -0.7091  0.1001  0.4904
   25SAPC   H9X 3359   2.137   6.894   7.778  0.2682  0.0689  2.4507
   25SAPC   H9Y 3360   2.188   7.054   7.716 -1.8166 -0.2551  0.4762
   25SAPC  C310 3361   2.330   6.948   7.838  0.2561 -0.1011 -0.1751
   25SAPC  H10X 3362   2.434   6.949   7.800  0.1227  1.6156 -0.5938
   25SAPC  H10Y 3363   2.323   6.864   7.910  0.2178  0.0043 -0.0548
   25SAPC  C311 3364   2.325   7.074   7.933  0.6664 -0.0503  0.3832
   25SAPC  H11X 3365   2.242   7.070   8.007  0.4273  0.3183  0.1371
   25SAPC  H11Y 3366   2.304   7.171   7.883  1.2675 -0.4898 -0.7658
   25SAPC  C312 3367   2.460   7.079   8.017 -0.2101 -0.0576  0.0023
   25SAPC  H12X 3368   2.552   7.093   7.957  0.8309 -1.4325  1.2031
   25SAPC  H12Y 3369   2.484   6.990   8.079 -0.4122 -0.5767 -0.6533
   25SAPC  C313 3370   2.447   7.197   8.113  0.0212  0.4034 -0.4121
   25SAPC  H13X 3371   2.354   7.189   8.173  0.8553  0.8876  1.0016
   25SAPC  H13Y 3372   2.439   7.293   8.058  1.0441  0.0223 -1.2594
   25SAPC  C314 3373   2.568   7.204   8.203  0.1795 -0.0516 -0.0464
   25SAPC  H14X 3374   2.643   7.262   8.144 -2.6439  2.6533 -1.2320
   25SAPC  H14Y 3375   2.613   7.105   8.228 -0.8802 -0.4151  0.4688
   25SAPC  C315 3376   2.535   7.297   8.323  0.0485  0.4779 -0.3161
   25SAPC  H15X 3377   2.473   7.246   8.400  0.0971 -1.6368 -1.5751
   25SAPC  H15Y 3378   2.497   7.397   8.293 -1.3659  0.4245  1.1459
   25SAPC  C316 3379   2.674   7.325   8.402  0.1532  0.1331 -0.3010
   25SAPC  H16X 3380   2.760   7.325   8.332  1.9849  0.9842  1.8183
   25SAPC  H16Y 3381   2.699   7.230   8.454  0.5576 -0.2429 -1.1675
   25SAPC  C317 3382   2.664   7.446   8.493 -0.3412 -0.2777 -0.1959
   25SAPC  H17X 3383   2.610   7.419   8.586  0.5955 -2.4908 -0.2157
   25SAPC  H17Y 3384   2.612   7.536   8.456  0.8806  1.3045  1.7437
   25SAPC  C318 3385   2.804   7.482   8.555 -0.1260  0.2660 -0.4703
   25SAPC  H18X 3386   2.802   7.577   8.612 -0.5109 -0.0193  0.0046
   25SAPC  H18Y 3387   2.865   7.503   8.464 -0.3923  1.8972 -0.3031
   25SAPC  H18Z 3388   2.835   7.393   8.614 -0.4309  0.9886  0.7959
   26SAPC     N 3389   2.603   2.361   6.453 -0.0650 -0.3696  0.2305
   26SAPC   C12 3390   2.581   2.510   6.439 -0.0430 -0.7104  0.5464
   26SAPC  H12A 3391   2.563   2.518   6.333 -0.0016  0.1614  0.5971
   26SAPC  H12B 3392   2.675   2.556   6.463 -0.1644 -0.7121  1.0329
   26SAPC   C13 3393   2.482   2.273   6.440 -0.2936 -0.6318 -0.1417
   26SAPC  H13A 3394   2.509   2.168   6.438  3.0937  0.1460 -0.4501
   26SAPC  H13B 3395   2.413   2.286   6.522 -1.6605 -2.5038 -0.9043
   26SAPC  H13C 3396   2.426   2.296   6.351 -0.8920 -0.0542  0.3806
   26SAPC   C14 3397   2.706   2.328   6.353 -0.6296  0.5731  0.4107
   26SAPC  H14A 3398   2.675   2.331   6.250  1.6005  5.6074 -0.4001
   26SAPC  H14B 3399   2.787   2.399   6.367  0.9988 -1.1547  0.1842
   26SAPC  H14C 3400   2.744   2.231   6.382 -1.1090  0.8749  2.2007
   26SAPC   C15 3401   2.662   2.336   6.588 -0.1122  0.2065 -0.5967
   26SAPC  H15A 3402   2.697   2.235   6.600  1.7553  0.8905  0.0767
   26SAPC  H15B 3403   2.744   2.401   6.615  0.5805 -1.4346  1.5196
   26SAPC  H15C 3404   2.585   2.351   6.662 -0.4295  0.6032 -1.0014
   26SAPC   C11 3405   2.465   2.575   6.514 -0.3527  0.1100  0.4261
   26SAPC  H11A 3406   2.468   2.571   6.625 -0.1452 -1.3653  0.3852
   26SAPC  H11B 3407   2.372   2.521   6.489 -1.2309  2.4943 -1.8837
   26SAPC     P 3408   2.546   2.819   6.503 -0.4911 -0.2965  0.2812
   26SAPC   O13 3409   2.602   2.868   6.379  0.3480  0.1170 -0.2541
   26SAPC   O14 3410   2.479   2.921   6.587  0.3820  0.2784  0.2074
   26SAPC   O12 3411   2.440   2.709   6.469  0.7141  0.3898  0.2617
   26SAPC   O11 3412   2.655   2.735   6.587  0.2227 -0.3550 -0.6131
   26SAPC    C1 3413   2.759   2.784   6.672  0.0742 -0.4363  0.1071
   26SAPC    HA 3414   2.857   2.753   6.628 -0.0909  2.1510 -2.3786
   26SAPC    HB 3415   2.759   2.894   6.664 -1.4705 -0.4216  0.1106
   26SAPC    C2 3416   2.738   2.730   6.815  0.3924  0.5538  0.0630
   26SAPC    HS 3417   2.744   2.619   6.818 -0.1423  0.5178  2.7211
   26SAPC   O21 3418   2.613   2.786   6.863 -0.8180 -0.2505 -0.1425
   26SAPC   C21 3419   2.522   2.697   6.883  0.5860  0.5400  0.0706
   26SAPC   O22 3420   2.527   2.578   6.855 -0.0965 -0.1990  0.4966
   26SAPC   C22 3421   2.407   2.757   6.969  0.4314 -0.9584 -0.4460
   26SAPC   H2R 3422   2.448   2.839   7.032 -0.1364 -0.0751 -1.1894
   26SAPC   H2S 3423   2.331   2.794   6.896 -0.9950  0.5004  1.6444
   26SAPC    C3 3424   2.848   2.767   6.916 -0.9496  0.1874 -0.4948
   26SAPC    HX 3425   2.868   2.876   6.924 -1.3700  0.1684  1.1793
   26SAPC    HY 3426   2.947   2.739   6.873  0.2478  3.6787 -0.3841
   26SAPC   O31 3427   2.817   2.712   7.049 -0.0278 -0.0594 -0.5760
   26SAPC   C31 3428   2.893   2.620   7.098  0.6940 -0.0959  0.9833
   26SAPC   O32 3429   2.988   2.575   7.044  0.1399  0.5365 -0.4657
   26SAPC   C32 3430   2.847   2.581   7.236  0.2133  0.3890  0.2941
   26SAPC   H2X 3431   2.860   2.472   7.254 -0.3804  0.5133  1.6199
   26SAPC   H2Y 3432   2.739   2.602   7.256  0.0789 -1.1064  1.2523
   26SAPC   C23 3433   2.336   2.661   7.069  0.4588 -0.1237  0.2229
   26SAPC   H3R 3434   2.302   2.577   7.005 -2.1559  2.7647 -2.5337
   26SAPC   H3S 3435   2.253   2.710   7.124  0.3501 -2.3815  2.2253
   26SAPC   C24 3436   2.441   2.612   7.171  0.6974  0.2952 -0.5466
   26SAPC   H4R 3437   2.506   2.691   7.216  2.3962 -1.4314  0.1721
   26SAPC   H4S 3438   2.510   2.541   7.119 -0.2286 -0.4097 -0.8308
   26SAPC   C25 3439   2.388   2.524   7.288  1.0275 -0.5448  0.5234
   26SAPC   H5R 3440   2.315   2.451   7.250  2.7379 -2.6259  1.0085
   26SAPC   C26 3441   2.414   2.522   7.419 -0.0908 -0.3106 -0.1840
   26SAPC   H6R 3442   2.370   2.442   7.480  1.8978 -0.1548  1.5725
   26SAPC   C27 3443   2.524   2.603   7.483  0.2030 -0.1335 -0.2506
   26SAPC   H7R 3444   2.488   2.661   7.570  3.6096  1.6865  0.1214
   26SAPC   H7S 3445   2.566   2.671   7.406 -1.0352  0.6360 -0.2727
   26SAPC   C28 3446   2.629   2.503   7.527 -0.0810  0.0914 -0.1090
   26SAPC   H8R 3447   2.657   2.429   7.450  1.2156 -0.8866  1.2588
   26SAPC   C29 3448   2.691   2.486   7.649  0.2071 -0.2438  0.8768
   26SAPC   H9R 3449   2.764   2.404   7.657  0.0025 -0.6659 -1.1346
   26SAPC  C210 3450   2.672   2.569   7.772 -0.2459 -0.1841 -0.6340
   26SAPC  H10R 3451   2.706   2.524   7.868 -0.5802  1.1300  0.1181
   26SAPC  H10S 3452   2.562   2.580   7.787 -0.2454 -0.8411 -0.0837
   26SAPC  C211 3453   2.740   2.702   7.752  0.2276  0.2020 -0.0983
   26SAPC  H11R 3454   2.822   2.728   7.685  2.1222  4.9103  3.4445
   26SAPC  C212 3455   2.700   2.810   7.822  0.3909 -0.3326 -0.1166
   26SAPC  H12R 3456   2.735   2.908   7.787 -1.3211 -0.3039 -1.9171
   26SAPC  C213 3457   2.597   2.802   7.927 -0.0179 -0.2182  0.4805
   26SAPC  H13R 3458   2.581   2.697   7.958 -0.6240 -0.0990  0.5745
   26SAPC  H13S 3459   2.502   2.848   7.892  0.8345  2.4467  1.3582
   26SAPC  C214 3460   2.630   2.895   8.046  0.1940  0.5203 -1.2320
   26SAPC  H14R 3461   2.700   2.974   8.017  2.4056  0.1074  2.3885
   26SAPC  C215 3462   2.581   2.883   8.176 -0.7012  0.8149  0.7825
   26SAPC  H15R 3463   2.592   2.964   8.250  0.3483 -0.4643  2.0980
   26SAPC  C216 3464   2.493   2.777   8.234  0.5228  0.5343 -0.5972
   26SAPC  H16R 3465   2.428   2.723   8.161  0.9931  0.4902 -0.9924
   26SAPC  H16S 3466   2.431   2.809   8.321  1.0886 -2.3884  0.9888
   26SAPC  C217 3467   2.577   2.676   8.309 -0.0360 -0.3288 -0.7783
   26SAPC  H17R 3468   2.510   2.605   8.362  2.0224 -1.6746  0.1695
   26SAPC  H17S 3469   2.648   2.721   8.381  2.7879 -2.2203 -2.1767
   26SAPC  C218 3470   2.656   2.593   8.208 -0.3005 -0.3244 -0.1364
   26SAPC  H18R 3471   2.717   2.654   8.139 -1.2263  3.0079  1.7552
   26SAPC  H18S 3472   2.588   2.543   8.136 -1.0674 -0.6445  0.7734
   26SAPC  C219 3473   2.736   2.483   8.270  0.6839  0.6769 -0.1199
   26SAPC  H19R 3474   2.665   2.418   8.325  2.4631 -0.2829  1.1659
   26SAPC  H19S 3475   2.821   2.512   8.335  0.8544 -0.7059  0.3162
   26SAPC  C220 3476   2.802   2.394   8.167  0.6365  0.2442  0.0473
   26SAPC  H20R 3477   2.869   2.445   8.094 -0.0808  1.6467  0.3214
   26SAPC  H20S 3478   2.724   2.348   8.103  1.0360  0.5522 -0.6845
   26SAPC  H20T 3479   2.853   2.309   8.216  0.2332 -1.4996 -2.3775
   26SAPC   C33 3480   2.934   2.641   7.347 -0.3672  0.0842 -0.4208
   26SAPC   H3X 3481   2.889   2.639   7.448 -1.0246 -0.1584 -0.7104
   26SAPC   H3Y 3482   2.961   2.747   7.325 -0.2772  0.1595  0.0522
   26SAPC   C34 3483   3.066   2.560   7.360 -0.8254 -0.7952  0.3470
   26SAPC   H4X 3484   3.116   2.573   7.262 -1.6731 -0.5249 -0.0551
   26SAPC   H4Y 3485   3.061   2.449   7.360 -2.4213 -0.7439  0.0644
   26SAPC   C35 3486   3.151   2.620   7.471  0.1368 -0.3762  0.2957
   26SAPC   H5X 3487   3.092   2.615   7.565  0.3869 -0.5956  0.4428
   26SAPC   H5Y 3488   3.147   2.730   7.453 -4.5085 -0.3302  0.3273
   26SAPC   C36 3489   3.288   2.558   7.484 -0.4004  0.3135 -0.0077
   26SAPC   H6X 3490   3.330   2.569   7.382 -0.4316 -0.1092 -0.0684
   26SAPC   H6Y 3491   3.285   2.451   7.513  0.0338  0.4154  0.4314
   26SAPC   C37 3492   3.383   2.627   7.589 -0.8109 -0.2400  0.1004
   26SAPC   H7X 3493   3.348   2.590   7.687 -0.8883 -0.7565 -0.1197
   26SAPC   H7Y 3494   3.377   2.738   7.590  3.4882  0.1654 -0.7679
   26SAPC   C38 3495   3.530   2.592   7.572  0.5321 -0.3442  0.0546
   26SAPC   H8X 3496   3.569   2.657   7.491  2.4585 -0.4654  0.8274
   26SAPC   H8Y 3497   3.547   2.486   7.544  0.2833 -0.7667  1.4189
   26SAPC   C39 3498   3.612   2.629   7.698  0.1006 -0.5439  0.3187
   26SAPC   H9X 3499   3.573   2.728   7.731 -1.5709 -0.0681 -2.6914
   26SAPC   H9Y 3500   3.719   2.635   7.670  0.1846  0.9848  0.8430
   26SAPC  C310 3501   3.608   2.527   7.810 -1.0977  0.6454  0.1779
   26SAPC  H10X 3502   3.650   2.432   7.769 -0.8835  0.8183 -0.0061
   26SAPC  H10Y 3503   3.501   2.499   7.821 -1.2405  1.1232  0.0352
   26SAPC  C311 3504   3.669   2.588   7.938 -0.2474  0.0787 -0.2414
   26SAPC  H11X 3505   3.627   2.685   7.973  1.3849 -0.0386  2.3822
   26SAPC  H11Y 3506   3.777   2.606   7.915 -0.5389  1.6629 -0.4843
   26SAPC  C312 3507   3.669   2.488   8.059 -0.8023 -0.5749  0.9590
   26SAPC  H12X 3508   3.734   2.524   8.141  0.6106 -0.2332 -0.2655
   26SAPC  H12Y 3509   3.728   2.399   8.025 -1.9231 -0.7040 -0.8022
   26SAPC  C313 3510   3.541   2.473   8.115  0.0563 -0.0792  0.2487
   26SAPC  H13X 3511   3.478   2.414   8.045 -0.0862 -0.6263  0.8205
   26SAPC  H13Y 3512   3.497   2.574   8.125  2.2752  0.9471  0.2272
   26SAPC  C314 3513   3.531   2.408   8.252  0.1867 -0.1555  0.0477
   26SAPC  H14X 3514   3.606   2.440   8.328  0.3433 -0.0009 -0.1702
   26SAPC  H14Y 3515   3.552   2.302   8.227  1.9862  0.2626 -0.3833
   26SAPC  C315 3516   3.390   2.415   8.322 -0.7941  0.3403 -0.1774
   26SAPC  H15X 3517   3.361   2.321   8.373 -0.6788 -0.0702 -0.8506
   26SAPC  H15Y 3518   3.313   2.430   8.243 -1.0578  0.2605  0.0616
   26SAPC  C316 3519   3.379   2.537   8.416 -0.2129  0.8994  0.2665
   26SAPC  H16X 3520   3.399   2.634   8.366 -0.6430  1.0426  0.3678
   26SAPC  H16Y 3521   3.465   2.519   8.483  0.6368  1.2600 -0.7093
   26SAPC  C317 3522   3.240   2.536   8.483  0.4861  0.2838  0.2857
   26SAPC  H17X 3523   3.227   2.442   8.541 -0.3377 -0.0253 -0.3872
   26SAPC  H17Y 3524   3.160   2.539   8.406  1.6742  1.7831 -0.9430
   26SAPC  C318 3525   3.233   2.653   8.581 -0.7046 -0.4529  0.0622
   26SAPC  H18X 3526   3.291   2.621   8.670 -0.8730 -0.9786 -0.0163
   26SAPC  H18Y 3527   3.127   2.667   8.611 -0.5815 -0.3792  0.4637
   26SAPC  H18Z 3528   3.270   2.743   8.526  1.6771 -2.2087 -1.4520
   27SAPC     N 3529   0.960   4.367   6.619 -0.6935 -0.1446 -0.0763
   27SAPC   C12 3530   1.021   4.399   6.755 -0.7271  0.7797  0.1547
   27SAPC  H12A 3531   0.947   4.402   6.833  2.1119 -1.5730  3.2228
   27SAPC  H12B 3532   1.050   4.503   6.749 -0.9181  0.7768 -1.4475
   27SAPC   C13 3533   0.933   4.212   6.613  0.7448 -0.4729  0.4730
   27SAPC  H13A 3534   0.868   4.194   6.528 -0.7529  0.1618  1.4409
   27SAPC  H13B 3535   1.021   4.151   6.622  0.6132 -0.6731  0.4234
   27SAPC  H13C 3536   0.868   4.180   6.693  0.0287 -0.7769 -0.2132
   27SAPC   C14 3537   0.839   4.442   6.592  0.8118  1.3300 -0.4944
   27SAPC  H14A 3538   0.764   4.421   6.667 -0.6981  1.1791 -1.9809
   27SAPC  H14B 3539   0.848   4.547   6.570  1.6841  1.0065 -1.7979
   27SAPC  H14C 3540   0.797   4.404   6.499  2.2891  0.0937 -0.7012
   27SAPC   C15 3541   1.062   4.384   6.517 -0.1493 -0.5068 -0.0642
   27SAPC  H15A 3542   1.160   4.355   6.552 -1.1406 -1.9566  1.6530
   27SAPC  H15B 3543   1.042   4.336   6.422 -0.9333 -1.7666  0.7315
   27SAPC  H15C 3544   1.067   4.489   6.491 -0.0537 -0.7119 -0.9163
   27SAPC   C11 3545   1.128   4.306   6.820  0.4109  0.0385  0.0715
   27SAPC  H11A 3546   1.089   4.205   6.842 -1.0929  0.8489  1.3756
   27SAPC  H11B 3547   1.155   4.349   6.919  0.0685  1.1692 -0.3055
   27SAPC     P 3548   1.363   4.395   6.742 -0.4306 -0.1380  0.0345
   27SAPC   O13 3549   1.475   4.359   6.648  0.1781  0.1285  0.2561
   27SAPC   O14 3550   1.306   4.529   6.731 -0.6165 -0.1732  0.1866
   27SAPC   O12 3551   1.244   4.291   6.734 -0.5830  0.3576 -0.0495
   27SAPC   O11 3552   1.416   4.382   6.891  0.2002 -0.5357 -0.5613
   27SAPC    C1 3553   1.479   4.257   6.936  0.0948 -0.3974  0.3314
   27SAPC    HA 3554   1.410   4.175   6.907  1.2536 -1.4430  0.4587
   27SAPC    HB 3555   1.581   4.240   6.893  1.0089  0.3160  2.1298
   27SAPC    C2 3556   1.491   4.245   7.084 -0.4016  0.4934 -1.1672
   27SAPC    HS 3557   1.556   4.329   7.117  2.5803 -1.7443 -0.9182
   27SAPC   O21 3558   1.546   4.124   7.124  0.0387  0.1879  0.6129
   27SAPC   C21 3559   1.674   4.101   7.123 -0.2083 -0.2211 -0.4110
   27SAPC   O22 3560   1.761   4.182   7.091  0.5360 -0.1532 -0.3909
   27SAPC   C22 3561   1.702   3.958   7.166  0.0871 -0.0106  0.2922
   27SAPC   H2R 3562   1.631   3.932   7.247 -0.8728  0.5914 -0.3420
   27SAPC   H2S 3563   1.661   3.901   7.080  0.4715 -3.2381  2.0584
   27SAPC    C3 3564   1.352   4.265   7.151 -0.3746 -0.0731 -0.7091
   27SAPC    HX 3565   1.281   4.185   7.125  1.1225 -1.4039 -0.8685
   27SAPC    HY 3566   1.306   4.360   7.116 -0.1000  0.0442 -0.7600
   27SAPC   O31 3567   1.357   4.275   7.299 -0.7832  0.7132 -0.3141
   27SAPC   C31 3568   1.364   4.159   7.363  0.2721 -0.3442  0.7938
   27SAPC   O32 3569   1.343   4.044   7.318 -0.0891 -0.9790  0.0478
   27SAPC   C32 3570   1.353   4.193   7.508 -0.3689 -0.0051  0.1476
   27SAPC   H2X 3571   1.322   4.299   7.517 -0.8653  0.0070 -1.4085
   27SAPC   H2Y 3572   1.458   4.195   7.544  1.2201  3.2280 -3.8808
   27SAPC   C23 3573   1.845   3.926   7.196 -0.4519  0.0680 -0.2611
   27SAPC   H3R 3574   1.912   3.997   7.143  1.2904 -1.4640 -0.2079
   27SAPC   H3S 3575   1.860   3.823   7.157  0.2711  0.0140  0.1421
   27SAPC   C24 3576   1.868   3.922   7.342 -0.0331 -0.5183 -0.2583
   27SAPC   H4R 3577   1.976   3.896   7.348  0.2059  0.3771 -0.4831
   27SAPC   H4S 3578   1.821   3.849   7.411 -1.1617  2.7917  2.8101
   27SAPC   C25 3579   1.845   4.059   7.404  1.0486  0.3644  0.1434
   27SAPC   H5R 3580   1.891   4.145   7.354  0.4666 -1.5694 -4.2253
   27SAPC   C26 3581   1.770   4.084   7.517  0.2535 -0.0091 -0.8476
   27SAPC   H6R 3582   1.766   4.183   7.565  1.3775 -0.7548  0.8770
   27SAPC   C27 3583   1.693   3.982   7.606  0.0031  0.4064  0.7948
   27SAPC   H7R 3584   1.649   3.906   7.539 -0.5115  1.3174  0.0784
   27SAPC   H7S 3585   1.607   4.020   7.665  1.5466 -1.2804  4.4543
   27SAPC   C28 3586   1.784   3.917   7.714  0.1697 -0.3651 -0.6927
   27SAPC   H8R 3587   1.892   3.934   7.706  0.3086 -1.5054 -1.5327
   27SAPC   C29 3588   1.742   3.861   7.828  0.0916 -0.6187 -0.6592
   27SAPC   H9R 3589   1.813   3.814   7.898 -1.3040 -0.1991  1.0944
   27SAPC  C210 3590   1.596   3.850   7.871  0.0838  1.0179 -0.1920
   27SAPC  H10R 3591   1.550   3.797   7.785  1.7586  0.6174 -0.8964
   27SAPC  H10S 3592   1.547   3.949   7.878 -0.5072  0.6811  0.5653
   27SAPC  C211 3593   1.574   3.766   7.998 -0.2874  0.1988  0.4741
   27SAPC  H11R 3594   1.546   3.663   7.973 -1.8475  0.6890  0.0385
   27SAPC  C212 3595   1.583   3.822   8.126 -0.2979 -0.3307 -0.2023
   27SAPC  H12R 3596   1.544   3.762   8.211  0.3343 -0.1545  0.2210
   27SAPC  C213 3597   1.613   3.965   8.149  0.1527  0.3763 -0.2080
   27SAPC  H13R 3598   1.660   4.021   8.065 -2.4160  2.6414 -0.2629
   27SAPC  H13S 3599   1.686   3.978   8.232 -0.5650 -1.5844  0.7864
   27SAPC  C214 3600   1.494   4.044   8.183  0.2764 -0.0819  0.0637
   27SAPC  H14R 3601   1.436   4.088   8.100 -0.7172 -2.6412 -0.7000
   27SAPC  C215 3602   1.450   4.082   8.311  0.4753 -0.7424  0.8980
   27SAPC  H15R 3603   1.359   4.142   8.328  0.9738 -0.3776  2.5375
   27SAPC  C216 3604   1.515   4.041   8.442 -0.1978 -0.3872 -0.0388
   27SAPC  H16R 3605   1.597   4.108   8.476 -1.1024  0.6678  0.1209
   27SAPC  H16S 3606   1.561   3.939   8.434  0.4415 -0.2146  1.0782
   27SAPC  C217 3607   1.415   4.022   8.550  0.4338  0.2661 -0.4742
   27SAPC  H17R 3608   1.452   3.953   8.629 -1.9869  0.1650  0.6696
   27SAPC  H17S 3609   1.318   3.971   8.534  0.2645  1.1038 -2.3189
   27SAPC  C218 3610   1.397   4.155   8.618 -0.1931 -0.7711 -0.3808
   27SAPC  H18R 3611   1.341   4.212   8.542 -0.1718 -0.2652 -0.0222
   27SAPC  H18S 3612   1.496   4.206   8.622 -0.8436  0.5060 -0.2377
   27SAPC  C219 3613   1.320   4.142   8.756 -0.3304  0.2125 -0.4992
   27SAPC  H19R 3614   1.381   4.067   8.810  1.4967  4.1069  3.4156
   27SAPC  H19S 3615   1.215   4.114   8.733 -0.8730  1.6186  0.2074
   27SAPC  C220 3616   1.320   4.264   8.852  0.5880 -0.0612 -0.3571
   27SAPC  H20R 3617   1.273   4.351   8.802 -1.7735 -1.5185 -0.8478
   27SAPC  H20S 3618   1.415   4.287   8.903 -1.2362  0.6134  3.0144
   27SAPC  H20T 3619   1.255   4.236   8.938  0.3286 -0.6137 -0.7257
   27SAPC   C33 3620   1.255   4.104   7.594  0.0297 -0.0232  0.1690
   27SAPC   H3X 3621   1.292   4.000   7.580  3.9921  1.3058 -0.7298
   27SAPC   H3Y 3622   1.149   4.116   7.565 -0.1739  0.9643  1.2903
   27SAPC   C34 3623   1.262   4.138   7.740 -0.3888 -0.6539 -0.5135
   27SAPC   H4X 3624   1.245   4.247   7.755  0.8721 -0.1859 -2.1701
   27SAPC   H4Y 3625   1.363   4.123   7.783 -0.4235  0.3074 -0.0531
   27SAPC   C35 3626   1.164   4.062   7.816 -0.7571 -0.3852 -1.3698
   27SAPC   H5X 3627   1.153   3.960   7.772  2.5192 -1.1119 -0.7097
   27SAPC   H5Y 3628   1.059   4.099   7.805 -0.3794  0.3993 -2.4489
   27SAPC   C36 3629   1.195   4.044   7.965  0.2854  0.2433 -0.5912
   27SAPC   H6X 3630   1.202   4.138   8.023  0.4694  0.6216 -1.2257
   27SAPC   H6Y 3631   1.286   3.984   7.985  1.0163  2.0332  1.9661
   27SAPC   C37 3632   1.081   3.969   8.040  0.0953  0.8610 -0.6792
   27SAPC   H7X 3633   1.072   3.862   8.011  0.4942  1.0210 -1.4315
   27SAPC   H7Y 3634   0.984   4.021   8.026 -0.9735 -0.3157  1.7419
   27SAPC   C38 3635   1.109   3.976   8.195 -0.2416  0.5632  0.1097
   27SAPC   H8X 3636   1.132   4.078   8.232  3.4837 -0.2282  0.4194
   27SAPC   H8Y 3637   1.200   3.916   8.217 -1.7574 -2.2217 -0.6043
   27SAPC   C39 3638   0.986   3.928   8.265  0.0334 -0.2697  0.6281
   27SAPC   H9X 3639   0.962   3.830   8.219  0.1123  0.4800 -1.0531
   27SAPC   H9Y 3640   0.893   3.985   8.244 -1.6740 -1.7176  3.5663
   27SAPC  C310 3641   1.011   3.924   8.416  0.6247 -0.0117  0.0396
   27SAPC  H10X 3642   1.009   4.034   8.434 -2.2397 -0.0430  0.3806
   27SAPC  H10Y 3643   1.106   3.879   8.453  0.2296 -1.2088 -0.3724
   27SAPC  C311 3644   0.899   3.870   8.510  0.0741 -0.3041  1.0595
   27SAPC  H11X 3645   0.806   3.920   8.474  1.0246  1.3112  0.7306
   27SAPC  H11Y 3646   0.921   3.909   8.612 -0.6640  0.9551  0.7560
   27SAPC  C312 3647   0.907   3.720   8.515  0.0916 -0.6090  0.4731
   27SAPC  H12X 3648   1.003   3.695   8.563  1.7246  1.9620 -1.1966
   27SAPC  H12Y 3649   0.918   3.667   8.418  1.3699 -1.6812  1.1759
   27SAPC  C313 3650   0.783   3.659   8.572  0.2229  0.5191 -0.3994
   27SAPC  H13X 3651   0.782   3.548   8.562  0.1559  0.5880 -1.1834
   27SAPC  H13Y 3652   0.691   3.689   8.517  0.8432  1.7116 -0.8082
   27SAPC  C314 3653   0.755   3.686   8.722 -0.2319 -0.4828  0.4642
   27SAPC  H14X 3654   0.647   3.708   8.738 -0.4543 -0.5171 -0.9040
   27SAPC  H14Y 3655   0.812   3.773   8.761 -0.3953  0.9250 -2.2308
   27SAPC  C315 3656   0.804   3.568   8.808  0.2023  0.1767  0.3680
   27SAPC  H15X 3657   0.885   3.512   8.757  0.2534 -0.3013  0.9666
   27SAPC  H15Y 3658   0.733   3.485   8.825  0.6464 -0.1358  0.7359
   27SAPC  C316 3659   0.843   3.603   8.950  0.3871  0.0274  1.0955
   27SAPC  H16X 3660   0.756   3.646   9.003 -0.0470  1.3464 -0.6091
   27SAPC  H16Y 3661   0.913   3.689   8.953 -1.7386  1.9318 -0.4741
   27SAPC  C317 3662   0.900   3.493   9.046 -0.1483  0.1284  0.0752
   27SAPC  H17X 3663   0.928   3.539   9.143 -0.3267 -2.8686  1.6770
   27SAPC  H17Y 3664   0.985   3.449   8.991 -0.5473 -0.0944 -0.3722
   27SAPC  C318 3665   0.796   3.385   9.079 -0.5652 -0.3154 -0.4847
   27SAPC  H18X 3666   0.746   3.346   8.988  0.3121 -0.9290 -0.7148
   27SAPC  H18Y 3667   0.726   3.428   9.154  1.2526  0.0413  1.0883
   27SAPC  H18Z 3668   0.847   3.302   9.132 -1.8297 -0.2540  0.9020
   28SAPC     N 3669   6.176   3.782   6.064 -0.6711 -0.1289 -0.1903
   28SAPC   C12 3670   6.110   3.872   6.177 -0.3247  0.0422 -0.1088
   28SAPC  H12A 3671   6.013   3.907   6.146 -0.6330 -0.3299  0.4243
   28SAPC  H12B 3672   6.169   3.960   6.200 -3.5447  2.5947 -0.9829
   28SAPC   C13 3673   6.078   3.688   6.014  0.0406  0.1349  0.0707
   28SAPC  H13A 3674   6.126   3.614   5.951 -2.5743  0.6430 -2.7551
   28SAPC  H13B 3675   6.030   3.637   6.097  1.7575 -0.3942  0.7731
   28SAPC  H13C 3676   6.008   3.742   5.952  1.2171  0.5024 -0.9775
   28SAPC   C14 3677   6.219   3.864   5.942  0.0451  0.1415 -0.2090
   28SAPC  H14A 3678   6.278   3.951   5.965 -0.6466  0.8168 -0.9353
   28SAPC  H14B 3679   6.257   3.795   5.868 -1.5369  0.2011 -1.1048
   28SAPC  H14C 3680   6.130   3.905   5.898  0.0444  2.1093  1.4417
   28SAPC   C15 3681   6.293   3.709   6.122  0.0728 -0.6965  0.0054
   28SAPC  H15A 3682   6.346   3.648   6.050  0.6971 -0.7683  0.5213
   28SAPC  H15B 3683   6.363   3.779   6.166  0.5891  0.6542 -2.7615
   28SAPC  H15C 3684   6.267   3.643   6.203  0.2661 -1.0215 -0.1938
   28SAPC   C11 3685   6.086   3.816   6.314 -0.2765 -0.2250  0.0559
   28SAPC  H11A 3686   6.063   3.899   6.384  0.6079 -0.3015  0.4471
   28SAPC  H11B 3687   6.180   3.765   6.346  0.9894  1.7111 -0.3944
   28SAPC     P 3688   5.835   3.756   6.309 -0.5301  0.3269 -0.4010
   28SAPC   O13 3689   5.823   3.879   6.229  0.1751 -0.5772  0.1595
   28SAPC   O14 3690   5.762   3.639   6.253 -0.7001 -0.1094 -0.1237
   28SAPC   O12 3691   5.983   3.717   6.316 -0.8515  0.3640 -0.0307
   28SAPC   O11 3692   5.797   3.781   6.454  0.2719  0.3524 -0.3135
   28SAPC    C1 3693   5.818   3.683   6.557 -0.1799  0.0123 -0.2423
   28SAPC    HA 3694   5.730   3.617   6.573 -0.5100  0.3237 -0.7529
   28SAPC    HB 3695   5.899   3.611   6.529 -1.2164 -1.7850  1.1881
   28SAPC    C2 3696   5.866   3.737   6.694  0.0403  0.2010  0.8042
   28SAPC    HS 3697   5.853   3.652   6.765 -2.5805  2.0048  2.6922
   28SAPC   O21 3698   5.769   3.833   6.720  0.1066 -0.2812 -0.0175
   28SAPC   C21 3699   5.744   3.872   6.847 -0.2825 -0.2408 -0.0289
   28SAPC   O22 3700   5.789   3.807   6.944 -0.1897  0.1269 -0.5426
   28SAPC   C22 3701   5.678   4.003   6.857  0.1607  0.3837 -0.0077
   28SAPC   H2R 3702   5.729   4.084   6.802 -0.8966  1.3293  0.3538
   28SAPC   H2S 3703   5.576   4.000   6.813 -1.0575 -0.2143  2.6185
   28SAPC    C3 3704   6.018   3.799   6.698  0.4708 -0.3387 -0.0372
   28SAPC    HX 3705   5.989   3.892   6.644  0.0877 -0.5466 -0.1924
   28SAPC    HY 3706   6.085   3.731   6.641 -0.4346 -1.0542 -0.2584
   28SAPC   O31 3707   6.061   3.815   6.836 -0.5707 -0.5445 -0.0859
   28SAPC   C31 3708   6.075   3.940   6.877  0.9022  0.0739 -0.6480
   28SAPC   O32 3709   6.038   4.039   6.815 -0.3535 -0.1292  0.0593
   28SAPC   C32 3710   6.154   3.944   7.008 -0.3055  0.9684 -0.0475
   28SAPC   H2X 3711   6.262   3.941   6.980 -0.8332 -0.6583 -2.1426
   28SAPC   H2Y 3712   6.141   3.851   7.067  1.4262  0.3732 -0.5294
   28SAPC   C23 3713   5.650   4.038   7.009  0.4617 -0.2008 -0.5332
   28SAPC   H3R 3714   5.751   4.019   7.053  0.6593 -2.8363 -1.8970
   28SAPC   H3S 3715   5.567   3.979   7.053 -0.4834  1.0576 -0.6040
   28SAPC   C24 3716   5.593   4.177   7.037 -0.6721  0.0395 -0.4942
   28SAPC   H4R 3717   5.491   4.187   6.994 -0.6187  3.3363 -0.1138
   28SAPC   H4S 3718   5.582   4.182   7.147 -1.0050 -1.2763 -0.4552
   28SAPC   C25 3719   5.667   4.299   6.995 -0.7933 -0.8878 -0.1306
   28SAPC   H5R 3720   5.649   4.324   6.890 -0.2892 -1.3305 -0.3281
   28SAPC   C26 3721   5.744   4.378   7.069 -0.1618 -0.8715  0.4309
   28SAPC   H6R 3722   5.782   4.472   7.025  1.9180 -0.8133  2.1995
   28SAPC   C27 3723   5.778   4.364   7.216 -0.2161  0.4538 -0.3776
   28SAPC   H7R 3724   5.858   4.439   7.238  0.1554 -0.2868  0.8987
   28SAPC   H7S 3725   5.816   4.262   7.236 -1.3256 -0.1271 -1.1819
   28SAPC   C28 3726   5.664   4.391   7.311 -0.1372 -0.3010 -0.0617
   28SAPC   H8R 3727   5.571   4.417   7.257  0.1081 -2.5567 -1.6979
   28SAPC   C29 3728   5.656   4.390   7.444 -0.6778 -0.5480 -1.1824
   28SAPC   H9R 3729   5.563   4.430   7.487 -0.2534 -1.6572  0.9319
   28SAPC  C210 3730   5.763   4.378   7.549  0.2910 -0.0049  0.0991
   28SAPC  H10R 3731   5.793   4.480   7.581  0.0276 -0.1670  0.8725
   28SAPC  H10S 3732   5.855   4.334   7.505 -1.0191 -2.1163 -0.6476
   28SAPC  C211 3733   5.717   4.295   7.662 -0.2131 -0.1995  0.5616
   28SAPC  H11R 3734   5.703   4.188   7.641  0.1307  0.1198 -1.5330
   28SAPC  C212 3735   5.691   4.334   7.788 -0.1967  0.0710 -0.0597
   28SAPC  H12R 3736   5.648   4.256   7.853  0.9160 -2.5806 -2.2616
   28SAPC  C213 3737   5.707   4.470   7.854 -0.3616 -0.7165  0.3103
   28SAPC  H13R 3738   5.615   4.504   7.907 -0.4018 -0.2305 -0.0703
   28SAPC  H13S 3739   5.730   4.553   7.785  0.3317  1.1425  2.6435
   28SAPC  C214 3740   5.820   4.456   7.953  0.7600  0.1500  0.6637
   28SAPC  H14R 3741   5.920   4.441   7.910  0.9994  1.9336  0.5270
   28SAPC  C215 3742   5.816   4.484   8.083  0.0315 -0.2274 -0.1391
   28SAPC  H15R 3743   5.910   4.459   8.136  1.3000  1.0004 -1.7135
   28SAPC  C216 3744   5.697   4.527   8.160  0.0156  0.2027 -0.4035
   28SAPC  H16R 3745   5.612   4.457   8.152  0.7390 -1.2626  2.8287
   28SAPC  H16S 3746   5.671   4.628   8.121 -1.2516  0.5944  1.3042
   28SAPC  C217 3747   5.729   4.554   8.314  0.8630 -0.1309  0.2528
   28SAPC  H17R 3748   5.648   4.620   8.353  0.0141 -0.9300 -0.1229
   28SAPC  H17S 3749   5.822   4.614   8.325  0.3407  0.7076  0.2269
   28SAPC  C218 3750   5.737   4.421   8.393 -0.3767  0.3876 -0.5369
   28SAPC  H18R 3751   5.826   4.376   8.343  1.8907  3.3762  0.4918
   28SAPC  H18S 3752   5.645   4.360   8.382  0.1138 -0.6690  0.9945
   28SAPC  C219 3753   5.777   4.437   8.540  1.0212  0.2991  0.5864
   28SAPC  H19R 3754   5.879   4.481   8.532  0.1739  2.3936  0.5658
   28SAPC  H19S 3755   5.778   4.341   8.595  0.0217  0.3999  0.8075
   28SAPC  C220 3756   5.683   4.525   8.628  0.0037 -0.2315  0.3246
   28SAPC  H20R 3757   5.722   4.543   8.731 -1.2458  0.0472  0.7598
   28SAPC  H20S 3758   5.582   4.481   8.638  0.1405 -0.9983 -1.2357
   28SAPC  H20T 3759   5.679   4.624   8.579 -0.2897 -2.0538 -3.7427
   28SAPC   C33 3760   6.126   4.080   7.088  1.2262 -0.1535  0.6436
   28SAPC   H3X 3761   6.024   4.061   7.128  0.5389 -0.5535 -1.2296
   28SAPC   H3Y 3762   6.125   4.176   7.032 -2.5285  0.8292  2.0851
   28SAPC   C34 3763   6.226   4.087   7.202 -0.3666 -0.0457 -0.2291
   28SAPC   H4X 3764   6.293   4.166   7.162 -1.1303 -0.5037 -2.6059
   28SAPC   H4Y 3765   6.273   3.988   7.219 -2.3532 -0.8771  0.8427
   28SAPC   C35 3766   6.175   4.148   7.335 -0.0252  0.0369 -0.1438
   28SAPC   H5X 3767   6.136   4.251   7.320  1.5698  0.3471 -2.9539
   28SAPC   H5Y 3768   6.264   4.170   7.399  0.0324 -1.0805  0.1784
   28SAPC   C36 3769   6.078   4.048   7.409  0.2076  0.1033 -0.3906
   28SAPC   H6X 3770   6.121   3.946   7.401  0.8442  0.3527 -0.1781
   28SAPC   H6Y 3771   5.985   4.063   7.349 -0.2534  2.1537  0.7379
   28SAPC   C37 3772   6.062   4.080   7.557 -0.4647 -0.2711 -0.2245
   28SAPC   H7X 3773   6.036   4.188   7.564  1.1419  0.2615 -1.7908
   28SAPC   H7Y 3774   6.164   4.073   7.600 -0.8162 -2.1000  0.3709
   28SAPC   C38 3775   5.958   4.002   7.640 -0.4484 -0.3144 -0.2078
   28SAPC   H8X 3776   5.969   3.893   7.620 -1.4378 -0.7751  1.5453
   28SAPC   H8Y 3777   5.854   4.036   7.619 -0.7895  0.4888  2.4217
   28SAPC   C39 3778   5.986   4.026   7.793  0.2292  0.3111  0.3838
   28SAPC   H9X 3779   5.976   4.136   7.801 -0.3404  0.3377 -0.4872
   28SAPC   H9Y 3780   6.092   4.010   7.823 -0.4177 -1.8839  1.7531
   28SAPC  C310 3781   5.899   3.942   7.890  0.4751 -0.4475 -0.2788
   28SAPC  H10X 3782   5.908   3.833   7.871 -1.1510 -0.5034 -0.8604
   28SAPC  H10Y 3783   5.793   3.971   7.872  1.1281  2.4307 -0.0646
   28SAPC  C311 3784   5.928   3.967   8.041 -0.9617 -0.3131  0.6677
   28SAPC  H11X 3785   5.957   4.072   8.060  0.5828 -0.4495 -0.6962
   28SAPC  H11Y 3786   6.020   3.910   8.067 -1.7107 -1.6743  0.4283
   28SAPC  C312 3787   5.807   3.931   8.128 -0.4627  0.1260  0.2818
   28SAPC  H12X 3788   5.794   3.821   8.122 -0.8595  0.1704  0.2722
   28SAPC  H12Y 3789   5.720   3.976   8.075  0.0130  1.5787  0.6888
   28SAPC  C313 3790   5.809   3.995   8.268  0.7856  0.1246  0.5332
   28SAPC  H13X 3791   5.836   4.101   8.248 -1.9400  0.8587  0.3444
   28SAPC  H13Y 3792   5.892   3.933   8.307  0.0369  0.2950  2.5149
   28SAPC  C314 3793   5.677   3.979   8.336  0.9156  0.4479  1.0463
   28SAPC  H14X 3794   5.653   3.871   8.333  1.5892  0.1425  4.0372
   28SAPC  H14Y 3795   5.596   4.047   8.302  0.9831  0.7598  1.5005
   28SAPC  C315 3796   5.696   4.029   8.477  0.0432  0.6172  0.1505
   28SAPC  H15X 3797   5.740   4.132   8.473 -0.9112  1.0755  1.1159
   28SAPC  H15Y 3798   5.759   3.955   8.531 -0.8128 -1.0798 -1.0799
   28SAPC  C316 3799   5.574   4.023   8.565 -0.2564 -0.2768  0.4566
   28SAPC  H16X 3800   5.547   3.916   8.577 -0.0691 -0.1937  1.7210
   28SAPC  H16Y 3801   5.492   4.082   8.520 -1.4911 -1.9147  0.4952
   28SAPC  C317 3802   5.605   4.072   8.706 -0.0043 -0.0718 -0.4851
   28SAPC  H17X 3803   5.654   4.171   8.692 -0.7084  0.2387 -0.7721
   28SAPC  H17Y 3804   5.673   4.003   8.761  0.0237  0.4052  0.0866
   28SAPC  C318 3805   5.482   4.093   8.792  0.0630 -0.4785  0.7934
   28SAPC  H18X 3806   5.512   4.163   8.874  2.1721  0.2865 -0.5220
   28SAPC  H18Y 3807   5.434   3.997   8.819 -0.6632 -0.4365 -0.3000
   28SAPC  H18Z 3808   5.402   4.136   8.729  0.9702  1.3525  0.8030
   29SAPC     N 3809   2.334   3.917   6.393  0.7645  0.0424 -0.0888
   29SAPC   C12 3810   2.449   3.971   6.480  0.2720 -0.2676  0.2127
   29SAPC  H12A 3811   2.406   4.049   6.542 -0.7610 -1.3686  0.9514
   29SAPC  H12B 3812   2.518   4.020   6.414  0.9130  0.5374  1.4371
   29SAPC   C13 3813   2.226   3.852   6.481  0.1028  0.1162  0.1628
   29SAPC  H13A 3814   2.171   3.927   6.536  0.5190  2.3495 -2.2493
   29SAPC  H13B 3815   2.159   3.802   6.412 -0.8385  1.2885  0.2000
   29SAPC  H13C 3816   2.273   3.776   6.542 -1.1235 -1.5012 -0.8214
   29SAPC   C14 3817   2.261   4.024   6.312  0.0168 -0.6441 -0.0727
   29SAPC  H14A 3818   2.236   4.105   6.379  1.1669 -0.9316  0.7299
   29SAPC  H14B 3819   2.334   4.073   6.250  0.9861 -0.9070  0.8240
   29SAPC  H14C 3820   2.171   3.992   6.262 -0.9388  1.0879  0.4447
   29SAPC   C15 3821   2.386   3.819   6.292 -0.3520  0.2147 -0.0256
   29SAPC  H15A 3822   2.425   3.734   6.346 -0.9718  0.4138  0.7644
   29SAPC  H15B 3823   2.315   3.770   6.227 -0.1317 -1.6372  1.0523
   29SAPC  H15C 3824   2.465   3.861   6.232  0.3506 -1.0392  0.0004
   29SAPC   C11 3825   2.534   3.876   6.566  0.1322  0.1719  0.8300
   29SAPC  H11A 3826   2.462   3.829   6.636  1.5976  0.5890  2.6852
   29SAPC  H11B 3827   2.604   3.943   6.621  1.8649 -0.7100 -0.2082
   29SAPC     P 3828   2.632   3.626   6.505  0.3614 -0.1952 -0.0679
   29SAPC   O13 3829   2.494   3.575   6.530 -0.6160  0.0345  0.1698
   29SAPC   O14 3830   2.701   3.579   6.382 -0.3389  0.2341 -0.1636
   29SAPC   O12 3831   2.613   3.781   6.492  0.2907  0.4613  0.5555
   29SAPC   O11 3832   2.728   3.608   6.625  0.4380 -0.3938  0.0825
   29SAPC    C1 3833   2.687   3.650   6.755  0.3574 -0.2838 -0.3775
   29SAPC    HA 3834   2.596   3.714   6.755  0.4004 -0.2235 -0.6301
   29SAPC    HB 3835   2.659   3.560   6.814 -2.6979  0.4770 -0.5015
   29SAPC    C2 3836   2.804   3.720   6.828  0.6937 -0.0421 -0.0171
   29SAPC    HS 3837   2.885   3.646   6.846  1.6130  1.5445  2.9761
   29SAPC   O21 3838   2.744   3.778   6.945  0.5805 -0.0963  0.5111
   29SAPC   C21 3839   2.830   3.778   7.047  0.5303 -0.7786  0.0272
   29SAPC   O22 3840   2.940   3.728   7.045 -0.0045 -0.5724  0.7054
   29SAPC   C22 3841   2.771   3.861   7.167  0.4576 -0.5475  0.9529
   29SAPC   H2R 3842   2.756   3.967   7.138  0.2991 -1.1876 -1.5308
   29SAPC   H2S 3843   2.671   3.815   7.183  0.2634 -0.8184 -0.8303
   29SAPC    C3 3844   2.861   3.834   6.744  0.1190  0.3443 -0.3613
   29SAPC    HX 3845   2.783   3.914   6.741 -2.0438 -1.6865 -0.8032
   29SAPC    HY 3846   2.861   3.801   6.638 -2.4900 -0.1511 -0.2725
   29SAPC   O31 3847   2.984   3.884   6.793 -0.3341 -0.6564 -0.0491
   29SAPC   C31 3848   3.093   3.856   6.711 -0.7296 -0.3171  0.0185
   29SAPC   O32 3849   3.083   3.780   6.612  0.2924 -0.5410  0.0881
   29SAPC   C32 3850   3.223   3.924   6.762 -0.2983  0.0055 -0.2774
   29SAPC   H2X 3851   3.214   4.034   6.764  2.0311  0.2731  2.4049
   29SAPC   H2Y 3852   3.301   3.890   6.690 -1.3935  0.1325 -1.5624
   29SAPC   C23 3853   2.867   3.849   7.284  0.2143  0.4003  0.8416
   29SAPC   H3R 3854   2.855   3.939   7.349  0.6394 -0.5453  2.2782
   29SAPC   H3S 3855   2.977   3.851   7.269  0.2713 -1.3390  0.8559
   29SAPC   C24 3856   2.854   3.740   7.388  0.6016  0.0787  0.1873
   29SAPC   H4R 3857   2.946   3.749   7.449  0.1846  0.6437  0.7488
   29SAPC   H4S 3858   2.863   3.641   7.339 -1.0519 -0.4485  0.9012
   29SAPC   C25 3859   2.725   3.743   7.465 -0.9361 -0.0642 -0.1400
   29SAPC   H5R 3860   2.635   3.711   7.411 -1.4247  0.0188  0.6105
   29SAPC   C26 3861   2.718   3.797   7.589 -0.8403 -0.4788  0.2565
   29SAPC   H6R 3862   2.620   3.798   7.639 -0.8377  0.7561  0.2726
   29SAPC   C27 3863   2.822   3.865   7.678  0.2308  0.3670 -0.7215
   29SAPC   H7R 3864   2.919   3.876   7.625  0.3016  5.1430  0.0008
   29SAPC   H7S 3865   2.840   3.791   7.759 -0.0724  1.4338  0.3301
   29SAPC   C28 3866   2.786   3.995   7.742 -0.2914  0.5039  0.2871
   29SAPC   H8R 3867   2.822   4.073   7.672  0.3839 -0.2520 -0.2309
   29SAPC   C29 3868   2.711   4.017   7.850 -0.1958  0.1550 -0.1484
   29SAPC   H9R 3869   2.710   4.118   7.893  0.0713 -1.3694  3.8663
   29SAPC  C210 3870   2.649   3.914   7.941 -0.2208  0.3380  0.6594
   29SAPC  H10R 3871   2.636   3.820   7.883 -3.3370  1.5493 -0.8820
   29SAPC  H10S 3872   2.546   3.946   7.967 -0.1438  1.4353 -0.3099
   29SAPC  C211 3873   2.722   3.866   8.051 -0.5870 -0.3416 -0.7050
   29SAPC  H11R 3874   2.815   3.808   8.042 -0.0424  0.4041 -0.0679
   29SAPC  C212 3875   2.687   3.884   8.177 -0.5067  0.0342 -0.4826
   29SAPC  H12R 3876   2.764   3.851   8.248 -0.7690 -1.4254 -0.8550
   29SAPC  C213 3877   2.582   3.975   8.240  0.3268 -0.5164 -0.4677
   29SAPC  H13R 3878   2.541   4.055   8.174 -0.3424  1.0001  1.6422
   29SAPC  H13S 3879   2.635   4.039   8.315 -0.0002 -0.5489 -0.2079
   29SAPC  C214 3880   2.456   3.901   8.286 -0.0935  0.9718  0.9275
   29SAPC  H14R 3881   2.407   3.839   8.210  1.6661  1.0991 -0.3748
   29SAPC  C215 3882   2.403   3.891   8.408 -0.4894 -0.8572  0.2809
   29SAPC  H15R 3883   2.307   3.837   8.403 -0.5971 -0.5697 -1.5038
   29SAPC  C216 3884   2.458   3.945   8.540  0.2268 -0.0527 -0.4619
   29SAPC  H16R 3885   2.417   4.044   8.568 -0.6863 -1.4260  3.7676
   29SAPC  H16S 3886   2.565   3.976   8.536 -0.1252  1.3806  0.6679
   29SAPC  C217 3887   2.434   3.852   8.663  0.2882  0.3603  0.0005
   29SAPC  H17R 3888   2.512   3.872   8.739  0.2707 -1.5247  0.5438
   29SAPC  H17S 3889   2.462   3.748   8.639 -0.5247 -0.8028  3.5157
   29SAPC  C218 3890   2.290   3.847   8.713 -0.3053  0.0334 -0.1499
   29SAPC  H18R 3891   2.277   3.769   8.791  3.7465  0.3196  1.0667
   29SAPC  H18S 3892   2.220   3.816   8.632 -1.5634 -3.8197  2.1363
   29SAPC  C219 3893   2.237   3.975   8.776 -0.7380 -0.1244  0.2311
   29SAPC  H19R 3894   2.232   4.060   8.704  1.5036  1.9560  2.3558
   29SAPC  H19S 3895   2.302   4.005   8.861 -0.5021  1.1103 -0.3564
   29SAPC  C220 3896   2.093   3.952   8.823 -0.1355 -0.0837 -0.0478
   29SAPC  H20R 3897   2.029   3.909   8.743  0.0858 -0.7885  0.1429
   29SAPC  H20S 3898   2.059   4.050   8.863  1.9395  1.1792 -1.1889
   29SAPC  H20T 3899   2.100   3.881   8.908  1.3859  0.1925  0.0858
   29SAPC   C33 3900   3.264   3.868   6.909 -0.1930 -0.7669  0.1597
   29SAPC   H3X 3901   3.374   3.880   6.902 -0.2499 -0.0856  0.3353
   29SAPC   H3Y 3902   3.241   3.760   6.903 -0.1657 -0.6759 -3.3694
   29SAPC   C34 3903   3.214   3.952   7.024 -0.2011  0.1321 -0.6168
   29SAPC   H4X 3904   3.103   3.953   7.026 -0.1873  0.3815  0.4624
   29SAPC   H4Y 3905   3.255   4.054   7.006 -0.1184 -0.0344 -1.4526
   29SAPC   C35 3906   3.259   3.907   7.164  0.6940 -0.1129 -0.4025
   29SAPC   H5X 3907   3.368   3.889   7.178  0.4705 -0.7477  0.6607
   29SAPC   H5Y 3908   3.216   3.809   7.196  2.7683 -0.7454  0.6288
   29SAPC   C36 3909   3.206   4.009   7.264  0.7327 -0.5660  0.0027
   29SAPC   H6X 3910   3.096   4.014   7.250  0.6694 -0.9596  0.3315
   29SAPC   H6Y 3911   3.242   4.111   7.239  1.1429 -0.9810 -1.1900
   29SAPC   C37 3912   3.238   3.968   7.412 -0.7777 -0.1763  0.6286
   29SAPC   H7X 3913   3.349   3.972   7.416 -0.6063 -2.1030 -0.6901
   29SAPC   H7Y 3914   3.201   3.863   7.406 -1.7624  0.2162 -0.9581
   29SAPC   C38 3915   3.168   4.059   7.512  0.5940 -0.6770  0.1170
   29SAPC   H8X 3916   3.057   4.063   7.507  0.6562  0.7495 -0.6207
   29SAPC   H8Y 3917   3.197   4.165   7.497 -0.9534 -0.0584  1.1449
   29SAPC   C39 3918   3.202   4.022   7.656 -0.0243  0.4845 -1.2653
   29SAPC   H9X 3919   3.305   3.982   7.658 -0.2474 -0.1386  1.8798
   29SAPC   H9Y 3920   3.143   3.933   7.684  2.8420 -0.8256  1.1466
   29SAPC  C310 3921   3.187   4.130   7.762 -0.6992  0.4281 -0.1691
   29SAPC  H10X 3922   3.106   4.199   7.732  0.3361  1.5447 -0.4842
   29SAPC  H10Y 3923   3.283   4.186   7.757 -0.7525  0.7470  1.6113
   29SAPC  C311 3924   3.149   4.074   7.900 -0.2861 -0.5424  0.5243
   29SAPC  H11X 3925   3.209   3.982   7.915  2.1799  0.9634  0.3775
   29SAPC  H11Y 3926   3.048   4.028   7.894 -0.4952  0.1246 -1.7101
   29SAPC  C312 3927   3.149   4.159   8.020  0.1987 -0.4453 -0.6568
   29SAPC  H12X 3928   3.099   4.255   7.994  3.6740  1.5705 -0.5153
   29SAPC  H12Y 3929   3.250   4.201   8.041  0.4302 -0.9821 -0.6617
   29SAPC  C313 3930   3.083   4.101   8.153  0.2764 -0.7762  0.3175
   29SAPC  H13X 3931   3.122   4.004   8.190  2.3737 -0.1112 -0.0116
   29SAPC  H13Y 3932   2.982   4.082   8.111 -0.2995  2.3366  0.0425
   29SAPC  C314 3933   3.073   4.201   8.266 -0.0898  0.3326 -0.4146
   29SAPC  H14X 3934   3.058   4.302   8.220 -0.6814 -1.3071 -4.2597
   29SAPC  H14Y 3935   3.169   4.189   8.320 -0.7320 -2.3746  0.2514
   29SAPC  C315 3936   2.956   4.180   8.361  0.4807 -0.0907 -0.0105
   29SAPC  H15X 3937   2.865   4.193   8.300  1.5349 -1.3212 -1.9640
   29SAPC  H15Y 3938   2.968   4.264   8.432  1.5398  0.1658 -0.4791
   29SAPC  C316 3939   2.948   4.048   8.441 -1.0157 -0.0056 -0.6953
   29SAPC  H16X 3940   2.908   3.963   8.382 -0.9316 -0.7253  0.2603
   29SAPC  H16Y 3941   2.868   4.056   8.518  1.4322 -4.8311  2.9296
   29SAPC  C317 3942   3.076   3.996   8.513  0.4812  0.8472 -0.8649
   29SAPC  H17X 3943   3.122   4.073   8.578 -1.5238  0.9470  0.5532
   29SAPC  H17Y 3944   3.155   3.958   8.445  0.7962  0.4900 -0.3074
   29SAPC  C318 3945   3.042   3.874   8.604 -0.5366  0.8568  0.0553
   29SAPC  H18X 3946   3.130   3.809   8.622  0.2413  1.0416 -2.6847
   29SAPC  H18Y 3947   2.972   3.800   8.561 -0.4626 -0.0972  1.4928
   29SAPC  H18Z 3948   2.992   3.911   8.696  1.2276  1.4563  0.8270
   30SAPC     N 3949   4.905   3.710   5.783  0.0723 -0.3990  0.5231
   30SAPC   C12 3950   4.763   3.741   5.836 -0.1661 -0.0340  0.7029
   30SAPC  H12A 3951   4.680   3.701   5.779  0.3314 -0.1054  0.0198
   30SAPC  H12B 3952   4.739   3.846   5.831 -0.2495 -0.1127 -1.2120
   30SAPC   C13 3953   5.005   3.763   5.878 -0.4034  0.0324  0.7030
   30SAPC  H13A 3954   5.100   3.775   5.828 -1.3974  0.8703 -1.0606
   30SAPC  H13B 3955   4.991   3.865   5.909 -1.3069  0.6245 -1.4989
   30SAPC  H13C 3956   5.008   3.708   5.972 -0.6673  0.9696  1.2723
   30SAPC   C14 3957   4.924   3.563   5.780  0.2677  0.8001 -0.9470
   30SAPC  H14A 3958   4.913   3.528   5.882  1.0694  0.0076 -1.1265
   30SAPC  H14B 3959   4.841   3.516   5.729 -1.2728  0.4162  1.7279
   30SAPC  H14C 3960   5.021   3.533   5.745  0.7888 -2.7103  2.7282
   30SAPC   C15 3961   4.922   3.773   5.650  0.7537  0.2870 -0.5283
   30SAPC  H15A 3962   5.006   3.736   5.593  0.7531 -0.3681 -0.1107
   30SAPC  H15B 3963   4.833   3.753   5.593 -0.4613 -3.1249  2.2176
   30SAPC  H15C 3964   4.929   3.881   5.663  0.6445  0.0962  1.4185
   30SAPC   C11 3965   4.729   3.692   5.980 -0.6685  0.6726 -0.8044
   30SAPC  H11A 3966   4.621   3.708   5.996 -0.8604 -1.0465 -0.1533
   30SAPC  H11B 3967   4.775   3.756   6.059 -4.3729  1.9454  0.5216
   30SAPC     P 3968   4.818   3.490   6.137 -0.2154 -0.4373  0.0759
   30SAPC   O13 3969   4.718   3.488   6.247 -0.1199  0.2244  0.1513
   30SAPC   O14 3970   4.878   3.363   6.096  0.0885  0.0631 -0.6275
   30SAPC   O12 3971   4.748   3.548   6.009  0.0375 -0.0619  0.9267
   30SAPC   O11 3972   4.929   3.598   6.169  0.3369  0.3967  0.3709
   30SAPC    C1 3973   5.071   3.554   6.164  0.8043  0.2224  0.1458
   30SAPC    HA 3974   5.087   3.481   6.082 -1.9765  1.4505 -1.6650
   30SAPC    HB 3975   5.136   3.638   6.131  0.3579  0.2978 -0.5791
   30SAPC    C2 3976   5.118   3.517   6.303  0.2280 -0.0986 -0.9011
   30SAPC    HS 3977   5.078   3.416   6.324 -0.1187  0.0643 -0.7734
   30SAPC   O21 3978   5.080   3.620   6.395 -0.1432 -0.2127  0.3026
   30SAPC   C21 3979   5.043   3.563   6.505  0.5309 -0.2818  0.5402
   30SAPC   O22 3980   5.039   3.443   6.533 -0.6474  0.6950  0.2903
   30SAPC   C22 3981   5.014   3.678   6.606 -0.0875  0.3024  0.2523
   30SAPC   H2R 3982   4.942   3.751   6.564  1.4303  0.4011 -2.4304
   30SAPC   H2S 3983   4.953   3.629   6.684 -0.5081  1.1147  0.4456
   30SAPC    C3 3984   5.272   3.492   6.302  0.5209 -0.1805  0.0416
   30SAPC    HX 3985   5.315   3.592   6.282 -3.4353  1.8028  0.5598
   30SAPC    HY 3986   5.303   3.435   6.212 -1.1917 -0.9977 -0.0773
   30SAPC   O31 3987   5.327   3.420   6.415  0.1292 -0.0772 -0.6590
   30SAPC   C31 3988   5.374   3.486   6.511 -0.1298  0.0141  0.6465
   30SAPC   O32 3989   5.386   3.605   6.518  0.7338 -0.5093 -0.7747
   30SAPC   C32 3990   5.399   3.396   6.631  0.4720 -0.1039  0.0794
   30SAPC   H2X 3991   5.485   3.336   6.596  2.3834  0.2490  3.7176
   30SAPC   H2Y 3992   5.304   3.342   6.655 -0.1402  0.7412 -0.3718
   30SAPC   C23 3993   5.145   3.752   6.662  0.0918 -0.0508  0.4129
   30SAPC   H3R 3994   5.194   3.797   6.573  0.8852 -2.5991 -0.5490
   30SAPC   H3S 3995   5.216   3.678   6.704  0.1136 -1.1495 -1.4516
   30SAPC   C24 3996   5.106   3.864   6.761  0.2538  0.3280  0.1883
   30SAPC   H4R 3997   5.082   3.822   6.861  0.0711 -0.1060 -0.0348
   30SAPC   H4S 3998   5.014   3.919   6.731  1.4452  4.1946  2.8798
   30SAPC   C25 3999   5.215   3.966   6.769  0.2043 -0.4260  0.2313
   30SAPC   H5R 4000   5.270   3.997   6.679  2.1605  4.2149  2.6585
   30SAPC   C26 4001   5.270   4.011   6.886  0.9418  1.2429 -0.4350
   30SAPC   H6R 4002   5.342   4.095   6.882  2.0218  0.5596  2.2688
   30SAPC   C27 4003   5.226   3.965   7.024  0.1787  0.1738  0.0641
   30SAPC   H7R 4004   5.116   3.956   7.035  0.1812  1.7582  1.8317
   30SAPC   H7S 4005   5.241   4.053   7.090 -0.6541  1.2032 -1.0604
   30SAPC   C28 4006   5.293   3.841   7.072  0.1494  0.1067 -0.6297
   30SAPC   H8R 4007   5.323   3.773   6.991  0.5957  1.5414 -1.7227
   30SAPC   C29 4008   5.334   3.823   7.201 -0.0665  0.0162  0.7140
   30SAPC   H9R 4009   5.398   3.736   7.219  1.5348  1.3331  1.6270
   30SAPC  C210 4010   5.306   3.909   7.323  0.3485  0.3174 -0.6840
   30SAPC  H10R 4011   5.284   3.843   7.410 -1.0868 -0.2885 -1.4755
   30SAPC  H10S 4012   5.216   3.973   7.310  0.4286  1.2128  2.2652
   30SAPC  C211 4013   5.417   4.000   7.364 -0.5266  0.0001  0.8061
   30SAPC  H11R 4014   5.473   4.034   7.276 -0.3092  0.9754  1.3145
   30SAPC  C212 4015   5.453   4.036   7.483 -0.2043  0.1746 -0.8118
   30SAPC  H12R 4016   5.535   4.109   7.496 -0.2640 -0.0016  0.7190
   30SAPC  C213 4017   5.384   3.995   7.617 -0.1651  0.0088  0.2220
   30SAPC  H13R 4018   5.299   3.925   7.606 -0.5972  0.7519 -1.5743
   30SAPC  H13S 4019   5.341   4.079   7.676  2.6583 -0.7209  3.6375
   30SAPC  C214 4020   5.487   3.925   7.699 -0.1007  0.3792 -0.5772
   30SAPC  H14R 4021   5.541   3.846   7.645 -2.1554 -0.5927 -1.2966
   30SAPC  C215 4022   5.513   3.942   7.830 -0.6051  0.2305  0.5146
   30SAPC  H15R 4023   5.591   3.880   7.876 -2.1042  0.0550  2.9760
   30SAPC  C216 4024   5.452   4.046   7.931 -0.0390  1.4489 -0.6310
   30SAPC  H16R 4025   5.377   4.112   7.882 -0.3298  0.0029 -2.2551
   30SAPC  H16S 4026   5.531   4.118   7.963 -0.7818  1.4755  1.2652
   30SAPC  C217 4027   5.395   3.977   8.059 -0.2385 -0.2288  0.2605
   30SAPC  H17R 4028   5.478   3.941   8.123  0.1944  0.8683  0.3363
   30SAPC  H17S 4029   5.315   3.906   8.028 -1.7938  1.8172 -0.6083
   30SAPC  C218 4030   5.310   4.080   8.144 -0.2662 -0.9447  0.4318
   30SAPC  H18R 4031   5.217   4.098   8.087  0.6387 -1.7428 -1.4006
   30SAPC  H18S 4032   5.379   4.167   8.149 -0.8789 -0.1827 -2.3591
   30SAPC  C219 4033   5.274   4.015   8.280 -0.9614 -0.2338  0.4873
   30SAPC  H19R 4034   5.366   3.993   8.339  0.5615  2.7217 -0.5760
   30SAPC  H19S 4035   5.220   3.922   8.254 -0.5042 -0.2893 -0.2934
   30SAPC  C220 4036   5.194   4.097   8.385  0.1555  0.0035  0.1522
   30SAPC  H20R 4037   5.103   4.141   8.338  0.2397  0.2812  0.2520
   30SAPC  H20S 4038   5.252   4.186   8.416 -1.7557  1.2931  0.2435
   30SAPC  H20T 4039   5.152   4.040   8.471 -0.5471  1.3713  0.7482
   30SAPC   C33 4040   5.434   3.468   6.765  0.4028  0.1659  0.0390
   30SAPC   H3X 4041   5.341   3.521   6.796 -0.1307 -0.1162 -1.0178
   30SAPC   H3Y 4042   5.512   3.545   6.748  2.0007 -1.2488  0.6467
   30SAPC   C34 4043   5.471   3.371   6.879  0.5012 -0.3429 -0.1610
   30SAPC   H4X 4044   5.559   3.309   6.853 -2.1047 -3.8066 -1.5090
   30SAPC   H4Y 4045   5.395   3.291   6.892  0.7624 -0.6700 -0.6428
   30SAPC   C35 4046   5.497   3.445   7.015 -0.1810 -0.2941 -0.5319
   30SAPC   H5X 4047   5.500   3.356   7.081 -3.0501 -1.2026 -1.4485
   30SAPC   H5Y 4048   5.404   3.499   7.042 -0.1166 -0.6892  0.5121
   30SAPC   C36 4049   5.626   3.525   7.007  0.1851 -0.1509  0.5292
   30SAPC   H6X 4050   5.633   3.595   6.920  0.5837 -0.8272  0.0125
   30SAPC   H6Y 4051   5.717   3.462   6.998  0.9356  1.0977 -1.3373
   30SAPC   C37 4052   5.642   3.607   7.136 -0.7816 -0.3843 -0.1073
   30SAPC   H7X 4053   5.574   3.695   7.123 -0.5370 -0.1289  0.3182
   30SAPC   H7Y 4054   5.746   3.647   7.135  0.2283 -2.8486 -0.0061
   30SAPC   C38 4055   5.635   3.525   7.263 -0.4797  0.5990 -0.5150
   30SAPC   H8X 4056   5.699   3.434   7.252 -2.5230 -1.0072  0.2049
   30SAPC   H8Y 4057   5.534   3.487   7.289 -0.5508  0.0022 -1.6059
   30SAPC   C39 4058   5.677   3.597   7.394 -0.4436 -0.2499  0.6536
   30SAPC   H9X 4059   5.597   3.672   7.406 -0.0317  0.4647 -0.8194
   30SAPC   H9Y 4060   5.775   3.650   7.392 -1.0034  0.7894 -0.9458
   30SAPC  C310 4061   5.662   3.508   7.521 -0.1495 -0.4810  0.2944
   30SAPC  H10X 4062   5.738   3.427   7.521 -0.0041 -0.3770  1.9171
   30SAPC  H10Y 4063   5.555   3.476   7.523  0.3586 -2.2763  1.8925
   30SAPC  C311 4064   5.696   3.584   7.653  0.5279 -0.4548  0.1021
   30SAPC  H11X 4065   5.614   3.653   7.681  0.4048 -0.5870  0.0695
   30SAPC  H11Y 4066   5.781   3.651   7.627 -0.0241  0.3745  0.4169
   30SAPC  C312 4067   5.710   3.489   7.770 -0.2155  0.0146 -1.0366
   30SAPC  H12X 4068   5.804   3.436   7.743 -0.9489 -0.8911 -1.9020
   30SAPC  H12Y 4069   5.621   3.425   7.780  0.0686 -0.4170 -1.2350
   30SAPC  C313 4070   5.725   3.551   7.911  0.4438 -0.7624  0.8458
   30SAPC  H13X 4071   5.626   3.592   7.940 -0.7494 -2.2040 -0.9560
   30SAPC  H13Y 4072   5.805   3.627   7.918  0.1177 -0.3451  0.2059
   30SAPC  C314 4073   5.749   3.444   8.024 -0.2055  0.6967  0.2442
   30SAPC  H14X 4074   5.777   3.510   8.108 -0.5373  1.3162 -0.1310
   30SAPC  H14Y 4075   5.830   3.375   7.992  0.6287  1.5254  0.5500
   30SAPC  C315 4076   5.632   3.345   8.054 -0.0777  0.6646 -0.4904
   30SAPC  H15X 4077   5.617   3.278   7.967  1.2684  0.9505 -0.9640
   30SAPC  H15Y 4078   5.536   3.401   8.064 -1.5284 -1.9386  1.1255
   30SAPC  C316 4079   5.654   3.271   8.185  0.5244  0.8469 -0.6873
   30SAPC  H16X 4080   5.662   3.340   8.271  1.6342  0.2072 -0.2476
   30SAPC  H16Y 4081   5.750   3.216   8.168 -2.0194 -4.1025 -0.9168
   30SAPC  C317 4082   5.559   3.158   8.224 -0.3741 -0.4162 -0.2821
   30SAPC  H17X 4083   5.603   3.117   8.317  1.7609  1.5442 -0.3519
   30SAPC  H17Y 4084   5.562   3.081   8.144 -0.0880 -2.5133  1.6359
   30SAPC  C318 4085   5.422   3.204   8.262  0.0397  0.5429 -0.4851
   30SAPC  H18X 4086   5.369   3.115   8.304  0.0593 -0.7409 -3.0188
   30SAPC  H18Y 4087   5.374   3.260   8.179 -2.7765 -1.9022 -0.6768
   30SAPC  H18Z 4088   5.430   3.270   8.352  0.9991  0.1092 -0.2424
   31SAPC     N 4089   5.255   4.688   5.978 -0.6826  0.1191 -0.0423
   31SAPC   C12 4090   5.194   4.827   5.948 -0.0385  0.5278  0.3218
   31SAPC  H12A 4091   5.190   4.853   5.844 -2.5045  1.5264  0.5899
   31SAPC  H12B 4092   5.250   4.904   6.000 -0.5379  0.5383  0.8546
   31SAPC   C13 4093   5.183   4.587   5.892 -0.2190  0.4658  0.0431
   31SAPC  H13A 4094   5.226   4.488   5.883 -0.8229  0.0996  1.0203
   31SAPC  H13B 4095   5.079   4.581   5.922 -0.3261  2.3673  0.1771
   31SAPC  H13C 4096   5.167   4.626   5.792 -2.8944  0.4081  0.3647
   31SAPC   C14 4097   5.405   4.674   5.952  0.2028  0.6198  0.3513
   31SAPC  H14A 4098   5.418   4.569   5.974 -0.8873  0.1625 -1.0475
   31SAPC  H14B 4099   5.434   4.698   5.851  1.0998  1.0913  0.7119
   31SAPC  H14C 4100   5.470   4.734   6.014  2.8587 -0.4633 -1.2332
   31SAPC   C15 4101   5.235   4.642   6.116  0.0781  0.1324  0.4010
   31SAPC  H15A 4102   5.133   4.665   6.143 -0.2665 -1.9118  0.9439
   31SAPC  H15B 4103   5.244   4.535   6.122 -0.7338  0.0083 -0.3630
   31SAPC  H15C 4104   5.304   4.698   6.177  0.8288 -3.0396  2.6618
   31SAPC   C11 4105   5.045   4.849   5.991 -0.1387 -0.0046  0.7510
   31SAPC  H11A 4106   4.972   4.789   5.932  0.3242 -1.9959  2.0784
   31SAPC  H11B 4107   5.023   4.953   5.959  0.7171  0.1091  0.5091
   31SAPC     P 4108   4.926   4.883   6.223  0.2848  0.1498 -0.1830
   31SAPC   O13 4109   4.976   5.008   6.271  0.6395 -0.3801 -0.4391
   31SAPC   O14 4110   4.793   4.889   6.151 -0.0833 -0.0397 -0.3343
   31SAPC   O12 4111   5.025   4.818   6.130 -0.0763 -0.1899  0.2336
   31SAPC   O11 4112   4.919   4.774   6.338 -0.4040  0.2309  0.1959
   31SAPC    C1 4113   4.906   4.634   6.299 -0.3513 -0.4068 -0.4993
   31SAPC    HA 4114   4.854   4.616   6.203 -2.3403  2.1051  0.0167
   31SAPC    HB 4115   5.007   4.586   6.305  0.5932  1.6167  0.7728
   31SAPC    C2 4116   4.821   4.561   6.406 -0.3576  0.3364  1.1016
   31SAPC    HS 4117   4.720   4.605   6.388 -0.8747 -0.4999  1.8378
   31SAPC   O21 4118   4.868   4.603   6.534  0.1107 -0.5045 -0.3112
   31SAPC   C21 4119   4.773   4.617   6.628  0.4814 -0.2408  0.1093
   31SAPC   O22 4120   4.654   4.575   6.614 -1.1619 -0.2671  0.3193
   31SAPC   C22 4121   4.831   4.692   6.745 -0.5149 -0.9254 -0.3324
   31SAPC   H2R 4122   4.925   4.643   6.777 -1.6182 -2.6689  0.4229
   31SAPC   H2S 4123   4.864   4.788   6.700  0.7472 -0.1714  2.0398
   31SAPC    C3 4124   4.803   4.409   6.384  0.1697 -0.0020 -0.1341
   31SAPC    HX 4125   4.888   4.372   6.323  1.4731  1.7116  0.5507
   31SAPC    HY 4126   4.713   4.397   6.319 -0.2548 -0.2282  0.4874
   31SAPC   O31 4127   4.785   4.332   6.494  0.3863 -0.0232 -1.2210
   31SAPC   C31 4128   4.896   4.271   6.535  0.2153  0.6344  0.2429
   31SAPC   O32 4129   5.004   4.288   6.478 -0.2859  0.4327 -0.5531
   31SAPC   C32 4130   4.868   4.171   6.653 -0.1559 -0.6821  0.7284
   31SAPC   H2X 4131   4.947   4.094   6.638  2.8847  1.7652  2.9908
   31SAPC   H2Y 4132   4.766   4.133   6.630 -0.1594  0.5706 -1.6791
   31SAPC   C23 4133   4.723   4.706   6.857 -0.3908 -0.2266 -0.3506
   31SAPC   H3R 4134   4.629   4.750   6.817  0.2277 -0.1944 -1.8491
   31SAPC   H3S 4135   4.761   4.780   6.930 -0.3406 -0.7222  0.1369
   31SAPC   C24 4136   4.685   4.580   6.935  0.2055 -1.4675  0.4803
   31SAPC   H4R 4137   4.654   4.500   6.865 -0.4686 -0.5268 -0.3205
   31SAPC   H4S 4138   4.608   4.616   7.007  3.0045  1.7443  2.1942
   31SAPC   C25 4139   4.805   4.540   7.022 -0.5939  0.0498 -0.8871
   31SAPC   H5R 4140   4.899   4.527   6.966  0.4421 -3.7869  1.4543
   31SAPC   C26 4141   4.818   4.515   7.156  0.9595 -0.1600 -0.4956
   31SAPC   H6R 4142   4.922   4.495   7.182  1.6720  2.9399 -0.5769
   31SAPC   C27 4143   4.713   4.530   7.268 -0.2077 -0.2127  0.3293
   31SAPC   H7R 4144   4.681   4.431   7.307 -0.0230 -0.3470  0.1410
   31SAPC   H7S 4145   4.619   4.578   7.234  0.6858  1.8034  0.5602
   31SAPC   C28 4146   4.771   4.606   7.384  0.4581 -0.4180  0.0170
   31SAPC   H8R 4147   4.827   4.695   7.352  1.1369 -0.9273 -0.2371
   31SAPC   C29 4148   4.766   4.571   7.516 -0.1251  0.3870 -0.0794
   31SAPC   H9R 4149   4.811   4.643   7.587  2.1685 -0.4116 -0.6399
   31SAPC  C210 4150   4.700   4.451   7.585 -0.8571 -1.1624  0.1303
   31SAPC  H10R 4151   4.771   4.365   7.581 -1.1303 -1.3593 -0.9153
   31SAPC  H10S 4152   4.620   4.406   7.522 -0.9625  0.7002 -1.1393
   31SAPC  C211 4153   4.650   4.471   7.723 -0.0751  0.1868  1.0516
   31SAPC  H11R 4154   4.696   4.408   7.800  1.7530  0.6656  0.3970
   31SAPC  C212 4155   4.562   4.567   7.759  0.3435 -0.2776 -0.4090
   31SAPC  H12R 4156   4.541   4.580   7.867 -0.8376  0.9069 -0.7493
   31SAPC  C213 4157   4.483   4.669   7.672 -0.1660 -0.5161 -0.7231
   31SAPC  H13R 4158   4.383   4.630   7.643  0.5138 -0.0617 -4.1123
   31SAPC  H13S 4159   4.529   4.675   7.571 -1.0164  1.4221 -1.0435
   31SAPC  C214 4160   4.498   4.806   7.731 -0.6048  0.6492  0.1658
   31SAPC  H14R 4161   4.567   4.870   7.674  2.7176 -2.5755  0.2774
   31SAPC  C215 4162   4.446   4.863   7.842  0.0863 -0.0114  0.3147
   31SAPC  H15R 4163   4.472   4.968   7.860  1.2984  0.2074 -2.3949
   31SAPC  C216 4164   4.357   4.793   7.945  0.0829 -0.6071  0.3074
   31SAPC  H16R 4165   4.334   4.687   7.920 -1.6507 -1.0147  3.1617
   31SAPC  H16S 4166   4.258   4.839   7.961 -0.0419 -0.8620  0.2666
   31SAPC  C217 4167   4.413   4.794   8.086  0.0412 -0.1403  0.4222
   31SAPC  H17R 4168   4.508   4.738   8.093  1.2450  1.7181 -0.3053
   31SAPC  H17S 4169   4.340   4.755   8.160 -2.5188  0.6458 -1.5206
   31SAPC  C218 4170   4.453   4.932   8.141 -0.3114 -0.3718 -0.3479
   31SAPC  H18R 4171   4.371   5.007   8.131 -0.7908 -0.6513  1.1952
   31SAPC  H18S 4172   4.542   4.957   8.079  1.0622  0.7203  1.9586
   31SAPC  C219 4173   4.498   4.933   8.285 -0.2296 -0.0284  0.1120
   31SAPC  H19R 4174   4.565   4.845   8.284  0.2669  0.3494 -1.5462
   31SAPC  H19S 4175   4.418   4.930   8.362 -0.6714 -0.7777 -0.3673
   31SAPC  C220 4176   4.571   5.063   8.309 -0.2717 -0.1447  0.2226
   31SAPC  H20R 4177   4.651   5.091   8.237 -1.5024 -0.1768 -1.2009
   31SAPC  H20S 4178   4.626   5.064   8.406  1.4285 -0.6368 -0.6827
   31SAPC  H20T 4179   4.501   5.148   8.319 -2.4887 -1.6739 -1.4276
   31SAPC   C33 4180   4.870   4.237   6.789 -0.4622  0.8310 -0.1853
   31SAPC   H3X 4181   4.799   4.323   6.795 -1.3913  0.1094 -0.6043
   31SAPC   H3Y 4182   4.972   4.279   6.806 -1.3959  3.2177  0.0039
   31SAPC   C34 4183   4.844   4.130   6.897 -0.3804 -0.2804  0.6805
   31SAPC   H4X 4184   4.904   4.037   6.891 -0.4215 -0.3007  0.5784
   31SAPC   H4Y 4185   4.741   4.088   6.887  0.6518 -2.8592  0.2560
   31SAPC   C35 4186   4.869   4.176   7.043  0.0138 -0.2935  0.6261
   31SAPC   H5X 4187   4.796   4.255   7.071 -0.7413 -0.7012 -0.1597
   31SAPC   H5Y 4188   4.974   4.203   7.063  0.9776 -1.0698 -2.8213
   31SAPC   C36 4189   4.839   4.056   7.134  0.2226  0.1911  0.1067
   31SAPC   H6X 4190   4.905   3.971   7.107 -2.2275 -1.7099 -0.2903
   31SAPC   H6Y 4191   4.737   4.027   7.100  0.1366  2.0792 -1.4630
   31SAPC   C37 4192   4.858   4.098   7.280 -0.0048  0.0737 -0.6145
   31SAPC   H7X 4193   4.780   4.170   7.310  0.1383 -0.0021 -0.0476
   31SAPC   H7Y 4194   4.959   4.136   7.305 -0.7177  1.7708 -0.2196
   31SAPC   C38 4195   4.836   3.989   7.380  0.8281  0.2720  0.3159
   31SAPC   H8X 4196   4.899   3.900   7.357  0.9833  0.5558 -0.3687
   31SAPC   H8Y 4197   4.728   3.962   7.390  0.4019  1.9863  0.5307
   31SAPC   C39 4198   4.880   4.051   7.516 -0.1846  0.2373 -0.3277
   31SAPC   H9X 4199   4.816   4.142   7.521 -1.8026 -0.9053  3.3242
   31SAPC   H9Y 4200   4.984   4.091   7.520  0.4049 -1.2818  2.5800
   31SAPC  C310 4201   4.855   3.964   7.637 -0.3932  0.1479 -0.1809
   31SAPC  H10X 4202   4.937   3.889   7.641 -0.2780  0.1393 -2.1786
   31SAPC  H10Y 4203   4.757   3.913   7.625 -1.0149  1.2965 -0.1263
   31SAPC  C311 4204   4.855   4.036   7.779 -0.5326 -0.4874 -0.2696
   31SAPC  H11X 4205   4.880   3.961   7.857  0.3129  0.8102  0.7452
   31SAPC  H11Y 4206   4.753   4.076   7.797  0.1310  0.1770  2.4236
   31SAPC  C312 4207   4.957   4.156   7.783 -0.5123  0.9973 -0.2850
   31SAPC  H12X 4208   4.944   4.230   7.701 -2.6040 -1.0993 -1.9794
   31SAPC  H12Y 4209   5.056   4.107   7.776 -0.4949  1.2935 -4.6974
   31SAPC  C313 4210   4.953   4.226   7.922 -0.0346  0.3390  0.2799
   31SAPC  H13X 4211   4.992   4.154   7.997 -0.8278  1.6929  2.0797
   31SAPC  H13Y 4212   4.844   4.244   7.933  0.1045  1.2367  0.3333
   31SAPC  C314 4213   5.013   4.362   7.940 -0.0684 -0.3169  0.3108
   31SAPC  H14X 4214   4.960   4.437   7.877 -1.0286 -1.2331 -0.0105
   31SAPC  H14Y 4215   5.119   4.361   7.906 -0.7421  1.0047 -2.0829
   31SAPC  C315 4216   5.025   4.400   8.085  0.4039  0.1016  0.5053
   31SAPC  H15X 4217   5.082   4.495   8.087 -0.1038  0.4104  1.7246
   31SAPC  H15Y 4218   5.069   4.326   8.155 -0.2693  1.6931  2.7642
   31SAPC  C316 4219   4.880   4.424   8.140 -0.3241  0.3763 -0.4380
   31SAPC  H16X 4220   4.834   4.327   8.170  1.9741 -0.9008 -0.8172
   31SAPC  H16Y 4221   4.822   4.477   8.061  0.1458 -1.0446 -1.7932
   31SAPC  C317 4222   4.878   4.533   8.252 -0.3560 -0.1799 -0.2869
   31SAPC  H17X 4223   4.770   4.550   8.274 -0.7269 -2.6033  0.0443
   31SAPC  H17Y 4224   4.926   4.629   8.225 -1.4247  0.6024  0.4762
   31SAPC  C318 4225   4.952   4.494   8.390 -0.0149 -0.3876 -0.3626
   31SAPC  H18X 4226   4.893   4.415   8.443  1.6670 -0.0391  2.1911
   31SAPC  H18Y 4227   4.957   4.584   8.455 -2.8549  0.4325 -1.1342
   31SAPC  H18Z 4228   5.047   4.443   8.364 -0.6569 -1.6929 -0.2456
   32SAPC     N 4229   0.971   1.336   6.273  0.4003  0.0972 -0.3831
   32SAPC   C12 4230   1.089   1.322   6.369  0.4499 -0.2845  0.2807
   32SAPC  H12A 4231   1.162   1.246   6.344 -0.0239 -1.2220  1.6174
   32SAPC  H12B 4232   1.052   1.303   6.469 -0.9223 -0.2170 -0.1908
   32SAPC   C13 4233   1.013   1.367   6.140  0.0645  0.3661 -0.3979
   32SAPC  H13A 4234   1.097   1.307   6.109 -0.8203 -0.7875 -0.6056
   32SAPC  H13B 4235   0.929   1.339   6.079  1.4235 -1.1361 -1.6599
   32SAPC  H13C 4236   1.020   1.474   6.126 -1.5729  0.5084 -0.3564
   32SAPC   C14 4237   0.884   1.208   6.271 -0.2312  0.2218 -0.7488
   32SAPC  H14A 4238   0.820   1.209   6.358 -1.3863  0.0303 -1.5776
   32SAPC  H14B 4239   0.813   1.211   6.190 -1.4430  2.8219  0.3047
   32SAPC  H14C 4240   0.938   1.114   6.269 -2.4790 -1.2336  1.3732
   32SAPC   C15 4241   0.885   1.453   6.313  0.8040  0.1222  0.1237
   32SAPC  H15A 4242   0.953   1.535   6.329 -0.3663  1.6170 -2.0454
   32SAPC  H15B 4243   0.815   1.474   6.233  0.9772 -0.4578 -0.1886
   32SAPC  H15C 4244   0.829   1.427   6.401  1.1332 -0.0382  0.2862
   32SAPC   C11 4245   1.173   1.448   6.400 -0.2213  0.1760  0.4295
   32SAPC  H11A 4246   1.247   1.410   6.473  0.0416  1.2255  0.7373
   32SAPC  H11B 4247   1.105   1.523   6.446 -0.9919 -0.0708 -0.2792
   32SAPC     P 4248   1.380   1.421   6.243  0.1432  0.2147 -0.1857
   32SAPC   O13 4249   1.348   1.281   6.226  0.3712 -0.4005 -0.4146
   32SAPC   O14 4250   1.426   1.499   6.124 -0.5129  0.6657 -0.3188
   32SAPC   O12 4251   1.245   1.492   6.288 -0.6853 -0.1018 -0.2640
   32SAPC   O11 4252   1.472   1.434   6.372  0.0897 -0.1311 -0.0128
   32SAPC    C1 4253   1.505   1.567   6.418 -0.5258  0.0466 -0.5156
   32SAPC    HA 4254   1.597   1.606   6.369  0.0342  0.3621  0.7687
   32SAPC    HB 4255   1.425   1.640   6.395  0.5129  1.3493 -0.0960
   32SAPC    C2 4256   1.521   1.569   6.571 -0.0423 -0.4323  0.5000
   32SAPC    HS 4257   1.613   1.512   6.595 -0.3824 -2.0146 -1.6965
   32SAPC   O21 4258   1.400   1.516   6.634 -0.3011  0.0070 -0.1994
   32SAPC   C21 4259   1.425   1.424   6.731 -0.7051  0.7208  0.1351
   32SAPC   O22 4260   1.533   1.369   6.751 -0.2162  0.7623  0.4861
   32SAPC   C22 4261   1.303   1.412   6.820  0.1784  0.1907 -1.3103
   32SAPC   H2R 4262   1.295   1.515   6.861  0.6001 -1.4649  3.7059
   32SAPC   H2S 4263   1.210   1.405   6.760 -0.2943  0.2048 -0.6022
   32SAPC    C3 4264   1.528   1.719   6.626  0.0493  0.4692  0.2725
   32SAPC    HX 4265   1.429   1.765   6.607  0.6218  2.4139  1.7451
   32SAPC    HY 4266   1.591   1.783   6.561  0.5387 -1.9119 -1.7464
   32SAPC   O31 4267   1.560   1.726   6.766 -0.4211  0.0219 -0.0664
   32SAPC   C31 4268   1.663   1.796   6.801  0.4938 -0.3598  0.1384
   32SAPC   O32 4269   1.749   1.839   6.728 -0.1655  0.2783  0.0200
   32SAPC   C32 4270   1.653   1.792   6.953  0.0299 -0.4721 -0.2705
   32SAPC   H2X 4271   1.703   1.881   6.996 -0.9796 -1.1250  2.4788
   32SAPC   H2Y 4272   1.719   1.708   6.984 -0.3089 -0.5075  0.3706
   32SAPC   C23 4273   1.310   1.318   6.944 -0.2573  0.1236  0.1374
   32SAPC   H3R 4274   1.404   1.350   6.995  0.1196  0.6838 -0.8680
   32SAPC   H3S 4275   1.313   1.210   6.918 -1.0132  0.5820 -2.0097
   32SAPC   C24 4276   1.189   1.344   7.036 -0.9665 -0.1111  0.2336
   32SAPC   H4R 4277   1.090   1.306   7.004 -2.6099  3.4708  0.6603
   32SAPC   H4S 4278   1.188   1.455   7.035 -1.0597 -0.0869  1.4211
   32SAPC   C25 4279   1.217   1.281   7.168 -0.5762  0.8533 -0.3883
   32SAPC   H5R 4280   1.198   1.174   7.185 -0.6704  0.3148 -3.3555
   32SAPC   C26 4281   1.256   1.357   7.270  0.1798 -0.1567  0.3062
   32SAPC   H6R 4282   1.294   1.300   7.356  1.0807 -1.1400 -0.7000
   32SAPC   C27 4283   1.273   1.505   7.270  0.1135 -0.6147 -0.5880
   32SAPC   H7R 4284   1.325   1.541   7.178  4.1097  1.6068  2.2189
   32SAPC   H7S 4285   1.346   1.526   7.351  0.3114  2.6313 -1.4593
   32SAPC   C28 4286   1.142   1.585   7.280 -0.0444 -0.0965  0.3756
   32SAPC   H8R 4287   1.094   1.580   7.181 -0.9052 -1.8327  0.8353
   32SAPC   C29 4288   1.070   1.632   7.379  0.0821  0.1168 -0.3812
   32SAPC   H9R 4289   0.973   1.681   7.362 -0.5015 -1.2725 -1.2217
   32SAPC  C210 4290   1.112   1.609   7.525 -0.6206 -0.1472 -0.0065
   32SAPC  H10R 4291   1.144   1.502   7.535  0.1499 -0.0655 -1.3338
   32SAPC  H10S 4292   1.018   1.606   7.584 -0.4193 -1.8223  0.3007
   32SAPC  C211 4293   1.205   1.701   7.598  0.3216  0.0016 -0.5437
   32SAPC  H11R 4294   1.188   1.808   7.582 -3.2399 -0.2427  0.7434
   32SAPC  C212 4295   1.298   1.652   7.689  0.0506 -0.7456 -0.2064
   32SAPC  H12R 4296   1.364   1.728   7.734 -1.9758  0.1947  1.3113
   32SAPC  C213 4297   1.319   1.515   7.736 -0.3643 -0.1489 -0.1060
   32SAPC  H13R 4298   1.415   1.531   7.790 -0.8363  1.3093  0.3406
   32SAPC  H13S 4299   1.328   1.450   7.647  1.0626  0.5934 -0.5533
   32SAPC  C214 4300   1.221   1.462   7.832  0.2002  0.0508  0.2590
   32SAPC  H14R 4301   1.130   1.522   7.847 -0.7942 -1.4320  0.4094
   32SAPC  C215 4302   1.214   1.347   7.897 -0.0138  0.2856 -0.6281
   32SAPC  H15R 4303   1.131   1.322   7.965 -0.0385  0.7711 -0.4750
   32SAPC  C216 4304   1.330   1.241   7.893  0.6351  0.0363  1.0335
   32SAPC  H16R 4305   1.354   1.210   7.997 -0.2539  1.3000  1.6320
   32SAPC  H16S 4306   1.424   1.288   7.857  0.5248  0.2563  1.0367
   32SAPC  C217 4307   1.287   1.113   7.816  0.5402 -0.0509  0.6174
   32SAPC  H17R 4308   1.188   1.072   7.844  0.5164 -1.0020 -0.7374
   32SAPC  H17S 4309   1.357   1.029   7.837 -0.2922 -0.1101  3.5051
   32SAPC  C218 4310   1.293   1.132   7.662  0.5489  0.2880  0.0883
   32SAPC  H18R 4311   1.398   1.138   7.626  0.2920  3.4688 -0.3888
   32SAPC  H18S 4312   1.247   1.232   7.650 -1.0688 -0.3078  1.0024
   32SAPC  C219 4313   1.210   1.020   7.601 -0.2143  0.4513 -1.1025
   32SAPC  H19R 4314   1.116   1.010   7.658  0.8936 -2.6101  0.4088
   32SAPC  H19S 4315   1.260   0.921   7.608 -0.5790  0.3089 -0.4764
   32SAPC  C220 4316   1.176   1.068   7.459  0.2271 -0.2244  0.6669
   32SAPC  H20R 4317   1.105   1.000   7.409  1.0584  0.2076 -1.1794
   32SAPC  H20S 4318   1.264   1.069   7.390 -0.4151  1.9867 -0.1959
   32SAPC  H20T 4319   1.130   1.168   7.455 -1.4934 -0.9880  0.5945
   32SAPC   C33 4320   1.514   1.764   7.014 -0.4852  0.2382 -0.1491
   32SAPC   H3X 4321   1.496   1.655   7.021 -1.5421  0.4759  1.0753
   32SAPC   H3Y 4322   1.429   1.814   6.962 -0.6097  0.5054  0.3034
   32SAPC   C34 4323   1.503   1.825   7.158  0.3176 -0.1442 -0.3106
   32SAPC   H4X 4324   1.408   1.796   7.209  2.1693 -2.8955  1.8921
   32SAPC   H4Y 4325   1.499   1.935   7.145 -2.6281 -0.2729 -1.2335
   32SAPC   C35 4326   1.608   1.768   7.262 -0.1209  0.2085  0.9600
   32SAPC   H5X 4327   1.710   1.794   7.228 -0.3545  2.4556  1.7902
   32SAPC   H5Y 4328   1.597   1.658   7.272 -2.1708  0.2673 -0.0763
   32SAPC   C36 4329   1.586   1.825   7.401  0.1527 -0.9533  0.1115
   32SAPC   H6X 4330   1.480   1.856   7.413 -0.7205 -2.4409 -2.7512
   32SAPC   H6Y 4331   1.646   1.918   7.412  3.3412 -2.4449 -2.8610
   32SAPC   C37 4332   1.624   1.736   7.514  0.9084 -0.6936  0.0524
   32SAPC   H7X 4333   1.718   1.688   7.479  2.3955  2.4896 -0.6912
   32SAPC   H7Y 4334   1.545   1.659   7.527 -0.6725  0.9308  0.3874
   32SAPC   C38 4335   1.650   1.811   7.646 -0.7184  0.5185  0.3206
   32SAPC   H8X 4336   1.558   1.871   7.665 -0.1707  2.4666 -2.4562
   32SAPC   H8Y 4337   1.736   1.881   7.644 -1.1969  1.1486  1.0964
   32SAPC   C39 4338   1.684   1.722   7.767  0.0543 -0.7703 -0.9070
   32SAPC   H9X 4339   1.784   1.675   7.755  0.4698 -0.2238  0.3179
   32SAPC   H9Y 4340   1.606   1.643   7.769 -0.3896 -0.3614 -1.4730
   32SAPC  C310 4341   1.693   1.811   7.888 -0.0684 -0.5205 -0.4826
   32SAPC  H10X 4342   1.598   1.866   7.907 -0.5253 -0.2086 -3.2014
   32SAPC  H10Y 4343   1.777   1.883   7.878  0.2357 -0.8328 -0.2097
   32SAPC  C311 4344   1.728   1.727   8.017  0.4517 -0.5100  0.1490
   32SAPC  H11X 4345   1.821   1.672   7.991  0.2367 -2.2487  2.7340
   32SAPC  H11Y 4346   1.652   1.652   8.046 -0.6770 -0.8641 -3.2128
   32SAPC  C312 4347   1.758   1.825   8.126 -0.1553 -0.6157 -0.1481
   32SAPC  H12X 4348   1.675   1.896   8.144  0.2525 -0.0372 -0.5120
   32SAPC  H12Y 4349   1.847   1.885   8.098 -1.9512  1.8657 -0.8957
   32SAPC  C313 4350   1.790   1.753   8.261  1.2192  0.0661 -0.0591
   32SAPC  H13X 4351   1.857   1.665   8.251  0.3624 -0.6312  0.2611
   32SAPC  H13Y 4352   1.697   1.717   8.310 -0.4612  0.5370 -2.6853
   32SAPC  C314 4353   1.858   1.850   8.358 -0.2275 -0.0809 -0.0946
   32SAPC  H14X 4354   1.822   1.952   8.333  0.0473  0.3517  1.2129
   32SAPC  H14Y 4355   1.965   1.865   8.332 -0.0563 -2.5359 -1.1588
   32SAPC  C315 4356   1.834   1.822   8.509 -0.1683 -0.4381  0.2011
   32SAPC  H15X 4357   1.855   1.713   8.523  2.0980 -0.3160 -1.6634
   32SAPC  H15Y 4358   1.731   1.853   8.533 -1.3497 -3.8921  0.1999
   32SAPC  C316 4359   1.940   1.885   8.609  0.3974 -0.0227  0.3236
   32SAPC  H16X 4360   1.902   1.865   8.711 -0.8977  0.4936 -0.0311
   32SAPC  H16Y 4361   1.917   1.994   8.600 -2.5211 -0.6927 -1.8152
   32SAPC  C317 4362   2.087   1.846   8.587  0.0358  0.9172  0.0516
   32SAPC  H17X 4363   2.121   1.884   8.488 -0.9400 -1.3639 -1.2527
   32SAPC  H17Y 4364   2.090   1.735   8.589  1.4560  0.9394 -0.1824
   32SAPC  C318 4365   2.164   1.905   8.696 -0.2122 -0.6720 -0.9805
   32SAPC  H18X 4366   2.139   1.838   8.781 -3.4553  0.2874 -1.0300
   32SAPC  H18Y 4367   2.130   2.007   8.726  0.8773 -0.0233 -1.8478
   32SAPC  H18Z 4368   2.270   1.921   8.666 -0.1217 -0.9893 -0.8300
   33POPC     N 4369   2.683   0.209  10.754 -0.1103  0.0308 -0.9020
   33POPC   C12 4370   2.639   0.152  10.627 -0.4671 -0.4325  0.2838
   33POPC  H12A 4371   2.688   0.204  10.546 -0.3970  0.4540  0.8793
   33POPC  H12B 4372   2.539   0.181  10.600 -0.3007  1.0005  1.0982
   33POPC   C13 4373   2.821   0.172  10.789 -0.6213  0.2646  0.1761
   33POPC  H13A 4374   2.857   0.239  10.866 -0.9206  0.5279  0.0869
   33POPC  H13B 4375   2.830   0.074  10.833  0.8178  0.9247  1.4553
   33POPC  H13C 4376   2.891   0.193  10.710 -0.1023 -1.7690  0.0350
   33POPC   C14 4377   2.679   0.359  10.742  0.0776  0.3342 -0.0144
   33POPC  H14A 4378   2.720   0.406  10.830 -1.8026  0.7860  0.6716
   33POPC  H14B 4379   2.742   0.392  10.661 -2.0112 -0.1069 -1.9309
   33POPC  H14C 4380   2.574   0.385  10.748 -0.0025  0.0483 -0.1497
   33POPC   C15 4381   2.595   0.185  10.872 -0.9791 -0.3909 -0.1741
   33POPC  H15A 4382   2.579   0.080  10.889  1.5218 -0.9795 -0.9926
   33POPC  H15B 4383   2.501   0.233  10.849 -1.8588 -2.0818 -0.2338
   33POPC  H15C 4384   2.648   0.225  10.957  1.1389 -0.5870 -1.3234
   33POPC   C11 4385   2.637   0.006  10.607 -0.6430 -0.4342 -0.5109
   33POPC  H11A 4386   2.729  -0.043  10.645 -1.1363 -1.1300 -0.2198
   33POPC  H11B 4387   2.642   0.000  10.496  3.4020  0.7838 -0.5570
   33POPC     P 4388   2.381  -0.027  10.614 -0.3867  0.2245  0.0592
   33POPC   O13 4389   2.381   0.089  10.517 -0.2297 -0.1926 -0.5122
   33POPC   O14 4390   2.290   0.006  10.729 -0.0462  0.5838 -0.2044
   33POPC   O12 4391   2.529  -0.062  10.660  0.0678 -0.3958 -0.1833
   33POPC   O11 4392   2.337  -0.156  10.534 -0.0155 -0.4832 -0.3227
   33POPC    C1 4393   2.427  -0.222  10.440 -0.2774 -0.0757 -0.5927
   33POPC    HA 4394   2.518  -0.159  10.424  0.0933 -0.2832  0.5871
   33POPC    HB 4395   2.466  -0.317  10.482 -0.5895 -0.5892 -1.4335
   33POPC    C2 4396   2.360  -0.231  10.300  0.1228  0.2485 -0.0041
   33POPC    HS 4397   2.290  -0.148  10.278  0.5635 -0.0032 -2.7282
   33POPC   O21 4398   2.305  -0.365  10.300 -0.1561  0.3151  0.2955
   33POPC   C21 4399   2.186  -0.377  10.336  0.3693 -0.5196  0.2290
   33POPC   O22 4400   2.110  -0.287  10.367  0.2562  0.3504 -0.1257
   33POPC   C22 4401   2.145  -0.531  10.351 -0.2445 -0.4760 -0.4425
   33POPC   H2R 4402   2.035  -0.533  10.337 -0.2863 -2.3112 -0.1991
   33POPC   H2S 4403   2.169  -0.555  10.457  1.2618  0.0189 -0.6512
   33POPC    C3 4404   2.456  -0.219  10.180 -0.7756  0.0142 -0.4265
   33POPC    HX 4405   2.525  -0.306  10.176 -1.6814 -0.6819 -3.7785
   33POPC    HY 4406   2.514  -0.127  10.203 -1.1651  0.1349  0.0864
   33POPC   O31 4407   2.389  -0.210  10.053 -0.3217  0.5746  0.5670
   33POPC   C31 4408   2.359  -0.094  10.003 -0.0792  0.1760 -0.1816
   33POPC   O32 4409   2.376   0.014  10.063  0.5209  0.3253 -0.1911
   33POPC   C32 4410   2.311  -0.107   9.861 -0.0923 -0.0832  0.2121
   33POPC   H2X 4411   2.214  -0.161   9.858 -0.3103  0.3223 -0.2302
   33POPC   H2Y 4412   2.386  -0.164   9.801 -2.2211 -0.8295 -1.9179
   33POPC   C23 4413   2.214  -0.630  10.253  0.1667  0.3483  0.6468
   33POPC   H3R 4414   2.214  -0.735  10.288  0.5051  0.4145  0.8471
   33POPC   H3S 4415   2.322  -0.608  10.243  0.1464  0.0161 -0.3436
   33POPC   C24 4416   2.160  -0.645  10.105  0.7296 -0.0452 -0.4954
   33POPC   H4R 4417   2.051  -0.664  10.112  0.6965  0.9247  2.7473
   33POPC   H4S 4418   2.212  -0.727  10.051 -0.4834  0.0028 -1.7966
   33POPC   C25 4419   2.162  -0.518  10.017 -0.0683  0.4878 -1.1277
   33POPC   H5R 4420   2.268  -0.489   9.998  0.1671  0.4914  0.1315
   33POPC   H5S 4421   2.120  -0.431  10.071 -1.0609 -0.9355  0.4989
   33POPC   C26 4422   2.104  -0.536   9.879  0.7414 -0.2798 -0.0744
   33POPC   H6R 4423   1.996  -0.551   9.900  0.7832  0.6275  0.8696
   33POPC   H6S 4424   2.130  -0.635   9.835  1.4307 -0.5393  0.8903
   33POPC   C27 4425   2.130  -0.431   9.772 -0.9630 -0.2718  0.4385
   33POPC   H7R 4426   2.240  -0.426   9.751 -1.1795  1.1057 -0.5003
   33POPC   H7S 4427   2.082  -0.337   9.806 -2.3183 -0.5661 -0.5815
   33POPC   C28 4428   2.071  -0.463   9.633  0.1982 -0.6535 -0.2377
   33POPC   H8R 4429   2.081  -0.374   9.568  2.2728 -0.9920 -0.4597
   33POPC   H8S 4430   1.962  -0.480   9.644  0.3174 -1.5604 -0.3666
   33POPC   C29 4431   2.133  -0.581   9.566  0.8264  0.0929  0.1084
   33POPC   H91 4432   2.083  -0.677   9.583 -0.5512  1.0157  1.5013
   33POPC  C210 4433   2.235  -0.584   9.482 -0.1820  0.0637 -0.7380
   33POPC  H101 4434   2.286  -0.674   9.444 -0.6620  0.0167 -1.2894
   33POPC  C211 4435   2.317  -0.462   9.443  0.3971 -0.2667  0.2529
   33POPC  H11R 4436   2.418  -0.494   9.475 -0.0292  0.5773  2.6943
   33POPC  H11S 4437   2.288  -0.372   9.503 -0.8431  0.2473 -1.0670
   33POPC  C212 4438   2.295  -0.414   9.297 -0.4128 -0.6801  0.3638
   33POPC  H12R 4439   2.347  -0.320   9.270 -1.3530  0.0878  1.1879
   33POPC  H12S 4440   2.189  -0.387   9.279 -0.3650 -0.4032  0.5035
   33POPC  C213 4441   2.330  -0.522   9.187  0.5829  0.3720 -0.7246
   33POPC  H13R 4442   2.302  -0.619   9.234  1.1364  1.2019  1.4563
   33POPC  H13S 4443   2.438  -0.527   9.161  1.0583  1.8881  0.8065
   33POPC  C214 4444   2.259  -0.491   9.056  0.1204  0.9142 -0.0351
   33POPC  H14R 4445   2.154  -0.517   9.079  0.7255  0.4180  2.4444
   33POPC  H14S 4446   2.297  -0.573   8.991 -0.3648 -0.7734  1.7294
   33POPC  C215 4447   2.269  -0.359   8.982 -0.7401 -0.1933  0.2295
   33POPC  H15R 4448   2.365  -0.370   8.927 -0.8799 -1.9196  0.2550
   33POPC  H15S 4449   2.263  -0.281   9.061 -2.1129 -2.1448  2.1896
   33POPC  C216 4450   2.153  -0.333   8.882 -0.0409  1.0776 -0.2118
   33POPC  H16R 4451   2.069  -0.319   8.953  0.0419 -2.0050  0.6173
   33POPC  H16S 4452   2.129  -0.427   8.828  1.9447 -0.6507  1.7071
   33POPC  C217 4453   2.176  -0.222   8.781  0.2338 -0.5085  0.1527
   33POPC  H17R 4454   2.078  -0.224   8.728  0.4406  1.5723 -0.3994
   33POPC  H17S 4455   2.261  -0.242   8.712  0.5996  2.0206 -0.2479
   33POPC  C218 4456   2.181  -0.082   8.842 -0.7155 -0.8446 -0.1435
   33POPC  H18R 4457   2.172   0.000   8.768  3.2177 -1.4331 -1.5065
   33POPC  H18S 4458   2.278  -0.059   8.892 -0.3274  1.4140 -1.7860
   33POPC  H18T 4459   2.111  -0.068   8.927  2.4571 -1.8626  2.9031
   33POPC   C33 4460   2.293   0.034   9.794  0.4621  0.2268  0.1284
   33POPC   H3X 4461   2.395   0.068   9.769  0.6282  0.1290  0.6608
   33POPC   H3Y 4462   2.251   0.112   9.860  0.6765  2.8246 -2.5751
   33POPC   C34 4463   2.220   0.032   9.660 -0.2249 -0.6778 -0.6213
   33POPC   H4X 4464   2.219   0.131   9.609 -0.5086 -0.4477 -0.1672
   33POPC   H4Y 4465   2.121  -0.015   9.674 -0.5807 -0.1526 -1.2830
   33POPC   C35 4466   2.296  -0.056   9.553  0.8051  0.0093  0.3621
   33POPC   H5X 4467   2.228  -0.053   9.465  2.4493 -2.1964 -1.1036
   33POPC   H5Y 4468   2.292  -0.164   9.581 -0.0483  0.4237  1.9792
   33POPC   C36 4469   2.428  -0.001   9.491  0.0410  0.2424  0.1417
   33POPC   H6X 4470   2.494   0.026   9.577  0.9203  0.2547 -0.5278
   33POPC   H6Y 4471   2.404   0.096   9.443 -2.3791  0.0947  0.8992
   33POPC   C37 4472   2.510  -0.096   9.407  0.2560 -0.1902 -0.2625
   33POPC   H7X 4473   2.468  -0.198   9.422 -2.5029  0.8171 -0.5978
   33POPC   H7Y 4474   2.617  -0.099   9.439 -0.0818  0.0845  0.9696
   33POPC   C38 4475   2.509  -0.057   9.254  0.2386 -0.2578 -0.4727
   33POPC   H8X 4476   2.516   0.051   9.231 -0.2136 -0.6553 -2.7251
   33POPC   H8Y 4477   2.405  -0.083   9.225  0.1378 -0.0491 -0.3030
   33POPC   C39 4478   2.613  -0.133   9.169  0.5334 -0.3232  0.2537
   33POPC   H9X 4479   2.599  -0.241   9.188 -0.3064 -0.3839 -0.6130
   33POPC   H9Y 4480   2.713  -0.103   9.205  0.7386  0.2186 -0.7101
   33POPC  C310 4481   2.601  -0.104   9.021 -0.3024  0.4044  0.4776
   33POPC  H10X 4482   2.636  -0.000   9.003  0.4741  0.1064  0.2022
   33POPC  H10Y 4483   2.496  -0.100   8.984 -0.0745  1.7296 -0.0704
   33POPC  C311 4484   2.667  -0.206   8.925  0.2905 -0.4861  0.4042
   33POPC  H11X 4485   2.654  -0.179   8.818 -0.2597 -1.8324  0.0998
   33POPC  H11Y 4486   2.616  -0.304   8.942  1.2156 -1.0066  0.2933
   33POPC  C312 4487   2.819  -0.225   8.957  0.5476 -0.0199 -0.1323
   33POPC  H12X 4488   2.821  -0.258   9.062 -1.6769  1.3906  0.4240
   33POPC  H12Y 4489   2.872  -0.127   8.958  0.2216  0.1565  0.2452
   33POPC  C313 4490   2.891  -0.336   8.873  0.5483 -0.0377  0.0426
   33POPC  H13X 4491   2.824  -0.425   8.876 -0.4551  0.7143  1.1426
   33POPC  H13Y 4492   2.989  -0.367   8.913  1.1299 -1.1581 -2.0837
   33POPC  C314 4493   2.920  -0.281   8.727 -0.0926 -0.7218 -0.2674
   33POPC  H14X 4494   2.968  -0.182   8.739  0.0144 -0.5172 -2.1162
   33POPC  H14Y 4495   2.826  -0.255   8.674  0.1565 -2.4248 -1.6483
   33POPC  C315 4496   3.007  -0.372   8.634 -0.8072  0.3558 -0.1782
   33POPC  H15X 4497   2.958  -0.471   8.620 -0.9620  0.5671 -1.2598
   33POPC  H15Y 4498   3.103  -0.397   8.683 -1.2384 -2.4706 -0.5690
   33POPC  C316 4499   3.023  -0.302   8.497 -0.7297  0.2554 -1.0081
   33POPC  H16X 4500   3.116  -0.341   8.450  1.2895  4.0957 -0.6013
   33POPC  H16Y 4501   3.060  -0.199   8.516  1.3507 -0.3122 -1.8048
   33POPC  H16Z 4502   2.933  -0.317   8.433 -1.9906 -1.3254  1.0324
   34POPC     N 4503   4.350   2.818  10.585  0.3322  0.4884  0.7319
   34POPC   C12 4504   4.228   2.735  10.569 -0.1380  0.1451 -0.6812
   34POPC  H12A 4505   4.263   2.644  10.523  2.4056  0.6079  0.1611
   34POPC  H12B 4506   4.157   2.770  10.496  0.4261  0.4491 -1.0989
   34POPC   C13 4507   4.393   2.879  10.460  0.2395  0.0738  0.1587
   34POPC  H13A 4508   4.405   2.803  10.385 -0.4385 -1.6729  1.7321
   34POPC  H13B 4509   4.320   2.941  10.412  0.1841 -1.9135 -2.5152
   34POPC  H13C 4510   4.480   2.942  10.475  0.2495 -0.3206  2.0765
   34POPC   C14 4511   4.339   2.909  10.701 -0.1932 -0.7505 -0.3016
   34POPC  H14A 4512   4.430   2.966  10.716  0.5194 -2.5486  3.2558
   34POPC  H14B 4513   4.262   2.983  10.682 -0.4753 -1.0305 -0.2452
   34POPC  H14C 4514   4.330   2.851  10.791 -0.7131 -0.4652 -0.1683
   34POPC   C15 4515   4.463   2.726  10.627  0.0404  0.1994 -0.1280
   34POPC  H15A 4516   4.492   2.656  10.550  2.0058  0.5242  0.2662
   34POPC  H15B 4517   4.441   2.670  10.716 -1.1170  0.9422  0.0757
   34POPC  H15C 4518   4.561   2.772  10.618 -0.7250  1.9302 -0.0395
   34POPC   C11 4519   4.169   2.684  10.699  0.3548 -0.4430 -0.2961
   34POPC  H11A 4520   4.122   2.769  10.752  1.0449 -2.4069  3.9437
   34POPC  H11B 4521   4.246   2.644  10.769  1.6875  0.9703 -0.9122
   34POPC     P 4522   3.918   2.620  10.619 -0.0650  0.1449  0.2108
   34POPC   O13 4523   3.918   2.748  10.551 -0.1246 -0.1897  0.0371
   34POPC   O14 4524   3.827   2.601  10.729  0.1656  0.6645  0.2098
   34POPC   O12 4525   4.058   2.592  10.670  0.2469  0.8986 -0.1084
   34POPC   O11 4526   3.892   2.492  10.523 -0.1873 -0.2342 -0.4089
   34POPC    C1 4527   3.764   2.466  10.474  0.4398 -0.0307 -0.0404
   34POPC    HA 4528   3.688   2.456  10.554  0.5843  2.4049  0.4767
   34POPC    HB 4529   3.768   2.365  10.428 -1.2097  0.1336 -0.6038
   34POPC    C2 4530   3.721   2.552  10.355 -0.5808 -0.8082  0.2610
   34POPC    HS 4531   3.808   2.545  10.287 -1.1736  2.0315 -0.9525
   34POPC   O21 4532   3.694   2.687  10.397  0.2184 -0.2193 -0.0199
   34POPC   C21 4533   3.738   2.785  10.311  0.1121  0.1220 -0.0874
   34POPC   O22 4534   3.785   2.757  10.200  0.2237  0.0373 -0.5210
   34POPC   C22 4535   3.710   2.922  10.380 -0.5995  0.0596  0.3849
   34POPC   H2R 4536   3.757   2.930  10.481 -0.0478  1.0961  0.0656
   34POPC   H2S 4537   3.601   2.920  10.403 -0.7352  2.0112  0.0637
   34POPC    C3 4538   3.599   2.500  10.268 -0.2210 -0.4803  0.2068
   34POPC    HX 4539   3.502   2.523  10.316 -1.6097 -3.7324 -0.7477
   34POPC    HY 4540   3.596   2.389  10.268 -0.0656 -0.5066  2.0918
   34POPC   O31 4541   3.600   2.555  10.135  0.4397 -0.5168  0.1259
   34POPC   C31 4542   3.671   2.494  10.047 -0.6321  0.0057 -0.4479
   34POPC   O32 4543   3.712   2.380  10.055 -0.3275  0.0810  0.8573
   34POPC   C32 4544   3.684   2.575   9.917  0.1802 -0.1919  1.0232
   34POPC   H2X 4545   3.790   2.584   9.886  0.1364  1.0249  1.1634
   34POPC   H2Y 4546   3.650   2.681   9.928 -4.4210 -0.9552 -2.7966
   34POPC   C23 4547   3.751   3.050  10.296 -0.4087 -0.1833 -0.2285
   34POPC   H3R 4548   3.859   3.045  10.272 -0.4879  1.9189 -1.2455
   34POPC   H3S 4549   3.737   3.142  10.356 -2.3262 -1.0137  0.6758
   34POPC   C24 4550   3.674   3.065  10.163  0.4299  0.0491 -0.5988
   34POPC   H4R 4551   3.571   3.098  10.189  0.7567  0.1178  0.6746
   34POPC   H4S 4552   3.657   2.966  10.114 -1.1935 -0.7450  1.3885
   34POPC   C25 4553   3.751   3.151  10.068  0.3389 -0.0711  0.6645
   34POPC   H5R 4554   3.855   3.112  10.059  0.2403 -1.2345  3.5652
   34POPC   H5S 4555   3.768   3.253  10.109 -0.7122  0.7553 -0.8208
   34POPC   C26 4556   3.685   3.187   9.932 -0.4567  0.4764  0.4959
   34POPC   H6R 4557   3.665   3.089   9.883  0.1664 -0.2922  1.7203
   34POPC   H6S 4558   3.764   3.245   9.880 -0.3552 -0.1708 -0.0788
   34POPC   C27 4559   3.553   3.267   9.934 -0.0145  1.1087 -0.8016
   34POPC   H7R 4560   3.562   3.373   9.967  0.6843  0.0278  2.8910
   34POPC   H7S 4561   3.496   3.208  10.008 -0.6504 -1.0159 -2.8692
   34POPC   C28 4562   3.473   3.263   9.804 -0.3285 -0.0135 -0.3477
   34POPC   H8R 4563   3.384   3.328   9.816  0.7048  1.7756 -1.7488
   34POPC   H8S 4564   3.432   3.160   9.796 -1.7624  0.2098  2.7682
   34POPC   C29 4565   3.545   3.318   9.685  0.0230  0.4042  0.1678
   34POPC   H91 4566   3.641   3.368   9.704  0.2593 -0.3197  0.9619
   34POPC  C210 4567   3.485   3.322   9.564 -0.1075  0.3183 -0.0057
   34POPC  H101 4568   3.539   3.360   9.476  0.3053  0.3495  0.2596
   34POPC  C211 4569   3.355   3.259   9.523 -0.1289  0.5904  0.3632
   34POPC  H11R 4570   3.273   3.334   9.521 -2.6613 -1.9662  0.9034
   34POPC  H11S 4571   3.336   3.173   9.591  3.3399 -0.7735 -0.1995
   34POPC  C212 4572   3.363   3.190   9.382 -0.0099  0.2865 -0.6282
   34POPC  H12R 4573   3.257   3.161   9.361 -0.5702  1.3709  0.5981
   34POPC  H12S 4574   3.430   3.101   9.379 -0.9050 -0.3832 -1.8726
   34POPC  C213 4575   3.401   3.281   9.264  0.2044 -0.3031 -1.0300
   34POPC  H13R 4576   3.501   3.322   9.290 -0.2055  0.1433 -0.1238
   34POPC  H13S 4577   3.331   3.367   9.270 -1.0398 -1.3952  1.5402
   34POPC  C214 4578   3.399   3.225   9.125 -0.0953 -0.3702  0.0747
   34POPC  H14R 4579   3.406   3.303   9.046 -0.0467  0.2837  0.7056
   34POPC  H14S 4580   3.301   3.176   9.109  1.0245 -2.2265 -1.6651
   34POPC  C215 4581   3.508   3.120   9.093  0.0874  0.5076 -0.0447
   34POPC  H15R 4582   3.509   3.047   9.176 -0.8598  1.4418  0.8169
   34POPC  H15S 4583   3.606   3.170   9.112 -0.8153  2.8118 -1.1170
   34POPC  C216 4584   3.507   3.061   8.951 -0.1831 -1.1372  0.8885
   34POPC  H16R 4585   3.600   3.004   8.931  1.2259  0.8065  1.5589
   34POPC  H16S 4586   3.509   3.152   8.888  1.7881 -0.8084  1.3727
   34POPC  C217 4587   3.391   2.978   8.918 -0.1634 -0.8034 -0.2750
   34POPC  H17R 4588   3.308   3.051   8.906 -1.0067 -2.0101 -2.1464
   34POPC  H17S 4589   3.363   2.914   9.004 -2.3358 -0.9050 -0.9885
   34POPC  C218 4590   3.391   2.901   8.781 -0.2278  0.1451  0.0453
   34POPC  H18R 4591   3.285   2.891   8.749 -0.0028  0.9061 -0.9964
   34POPC  H18S 4592   3.438   2.800   8.789 -0.0924  0.0516 -1.5765
   34POPC  H18T 4593   3.440   2.965   8.705  0.7175  2.2959  2.3559
   34POPC   C33 4594   3.621   2.500   9.806 -0.5184  0.3958 -1.0619
   34POPC   H3X 4595   3.514   2.471   9.812 -0.1613 -1.1181 -1.6223
   34POPC   H3Y 4596   3.687   2.412   9.794  0.9743  0.8366  2.7690
   34POPC   C34 4597   3.624   2.577   9.673 -1.6556 -0.5628  0.2773
   34POPC   H4X 4598   3.732   2.579   9.646 -1.6101  0.8125  0.5031
   34POPC   H4Y 4599   3.580   2.678   9.685 -1.3914 -0.5545  1.2543
   34POPC   C35 4600   3.550   2.501   9.562  0.3039  0.0488  0.3758
   34POPC   H5X 4601   3.441   2.510   9.580  0.4027  3.9993 -0.0763
   34POPC   H5Y 4602   3.577   2.396   9.541 -0.0759  0.0760 -0.2835
   34POPC   C36 4603   3.552   2.566   9.424  0.1883  0.3347 -0.0939
   34POPC   H6X 4604   3.661   2.553   9.410 -0.0921 -4.7901  0.7975
   34POPC   H6Y 4605   3.531   2.674   9.443 -0.4130  0.0201  1.1712
   34POPC   C37 4606   3.455   2.511   9.327 -0.1308  0.2612 -0.2278
   34POPC   H7X 4607   3.363   2.486   9.385  1.2835  0.7390  2.3654
   34POPC   H7Y 4608   3.500   2.417   9.290 -0.3922  0.2881 -0.6175
   34POPC   C38 4609   3.419   2.601   9.207 -0.5566 -0.0282  0.1744
   34POPC   H8X 4610   3.513   2.615   9.149  0.2051  0.3448  1.4591
   34POPC   H8Y 4611   3.392   2.702   9.245 -1.3270  0.1269 -0.7573
   34POPC   C39 4612   3.307   2.551   9.114 -0.0620 -0.0927 -0.9277
   34POPC   H9X 4613   3.312   2.612   9.021  1.2137  0.1582 -0.7126
   34POPC   H9Y 4614   3.206   2.575   9.154 -0.2887  1.7354 -2.4353
   34POPC  C310 4615   3.326   2.402   9.077 -0.2376  0.4774  0.1217
   34POPC  H10X 4616   3.310   2.344   9.170  0.0605  1.9985  1.1551
   34POPC  H10Y 4617   3.428   2.379   9.039  0.1576 -1.0666  1.9832
   34POPC  C311 4618   3.234   2.354   8.967 -0.3904 -0.6913  0.8568
   34POPC  H11X 4619   3.257   2.253   8.925 -0.5667  0.2379 -1.6677
   34POPC  H11Y 4620   3.244   2.426   8.883 -1.1589 -1.7942 -0.2392
   34POPC  C312 4621   3.089   2.372   9.020  0.2917  0.2694 -0.2669
   34POPC  H12X 4622   3.058   2.477   9.037 -2.2147 -0.2235 -1.2730
   34POPC  H12Y 4623   3.084   2.326   9.122  0.8570  1.1020  0.1476
   34POPC  C313 4624   2.984   2.305   8.937  1.1382 -0.0154 -0.4797
   34POPC  H13X 4625   2.924   2.241   9.005  1.0035  3.1585  2.7054
   34POPC  H13Y 4626   3.033   2.251   8.854 -0.0045  2.2592 -2.7786
   34POPC  C314 4627   2.899   2.410   8.864  0.2934  0.9966  0.1144
   34POPC  H14X 4628   2.966   2.489   8.824  1.0529 -0.6601 -2.0686
   34POPC  H14Y 4629   2.819   2.437   8.936  1.7336  1.2438  1.6848
   34POPC  C315 4630   2.836   2.356   8.735 -0.4747  0.4696  0.3709
   34POPC  H15X 4631   2.767   2.273   8.761 -0.5858  0.1449 -0.9139
   34POPC  H15Y 4632   2.914   2.324   8.663 -2.2348  0.7582 -1.7488
   34POPC  C316 4633   2.767   2.470   8.653 -0.2977 -0.0782  0.1203
   34POPC  H16X 4634   2.753   2.430   8.550 -1.1219  0.3426  0.0579
   34POPC  H16Y 4635   2.828   2.561   8.632  0.2999 -1.1623 -3.6172
   34POPC  H16Z 4636   2.664   2.488   8.692 -0.0442  0.3378  0.6007
   35POPC     N 4637   3.002   4.112  10.920 -0.4818 -0.3275 -0.0397
   35POPC   C12 4638   2.890   4.108  10.821 -0.8217  0.3297  0.7080
   35POPC  H12A 4639   2.820   4.032  10.850 -0.9162  0.8401  1.8684
   35POPC  H12B 4640   2.937   4.074  10.730  1.2905 -0.8807  2.1498
   35POPC   C13 4641   3.114   4.204  10.869 -0.4119 -0.4484 -0.0744
   35POPC  H13A 4642   3.076   4.299  10.837  0.4985 -0.4738 -1.3084
   35POPC  H13B 4643   3.192   4.213  10.944 -1.8420  1.4085  1.2947
   35POPC  H13C 4644   3.159   4.168  10.777  2.1031  0.3024  0.7597
   35POPC   C14 4645   2.968   4.167  11.055 -0.2319  0.0815  0.3320
   35POPC  H14A 4646   2.925   4.081  11.104  0.4606  0.6543  2.0105
   35POPC  H14B 4647   3.052   4.210  11.108 -0.3541  1.9150 -0.8616
   35POPC  H14C 4648   2.899   4.249  11.047  0.1415  0.2686 -1.5650
   35POPC   C15 4649   3.053   3.972  10.940 -0.3070  0.6111 -0.2252
   35POPC  H15A 4650   2.987   3.905  10.992  0.9333  0.1791  0.8372
   35POPC  H15B 4651   3.140   3.970  11.003 -1.1667  0.1376  0.9890
   35POPC  H15C 4652   3.070   3.927  10.843 -0.1268  0.8797 -0.3212
   35POPC   C11 4653   2.805   4.233  10.799  0.0089  0.4221 -0.4976
   35POPC  H11A 4654   2.741   4.222  10.709 -0.0443  1.5121 -0.5970
   35POPC  H11B 4655   2.860   4.325  10.773 -0.3617  0.8981  0.3672
   35POPC     P 4656   2.598   4.185  10.962  0.3776 -0.1584  0.1647
   35POPC   O13 4657   2.549   4.239  11.092 -0.0620  0.5149  0.2755
   35POPC   O14 4658   2.617   4.039  10.948 -0.1698  0.5578 -0.1406
   35POPC   O12 4659   2.726   4.263  10.916  0.4858 -0.0567  0.5284
   35POPC   O11 4660   2.489   4.218  10.852 -0.1084 -0.0324 -0.5289
   35POPC    C1 4661   2.454   4.354  10.847  0.2779 -0.3031  0.0658
   35POPC    HA 4662   2.544   4.417  10.863  0.7583 -1.0568  0.3836
   35POPC    HB 4663   2.384   4.378  10.930  0.6351  3.9904 -0.6814
   35POPC    C2 4664   2.381   4.393  10.714  0.5738 -0.4635  0.7458
   35POPC    HS 4665   2.375   4.504  10.704  2.4668 -0.4218 -0.4008
   35POPC   O21 4666   2.258   4.326  10.697  0.3823  0.0769 -0.5330
   35POPC   C21 4667   2.155   4.384  10.760 -0.8881  0.7400 -0.2674
   35POPC   O22 4668   2.150   4.497  10.808 -0.0573 -0.5888 -0.7941
   35POPC   C22 4669   2.041   4.290  10.767  0.6135 -0.2410  0.5904
   35POPC   H2R 4670   2.011   4.279  10.874  0.5263  0.9586  0.7090
   35POPC   H2S 4671   2.060   4.188  10.730 -1.9646  0.0429 -1.8275
   35POPC    C3 4672   2.474   4.350  10.591 -0.2749 -0.0825 -0.9077
   35POPC    HX 4673   2.489   4.241  10.605  2.1257  0.3722  0.6158
   35POPC    HY 4674   2.573   4.400  10.594 -0.2294 -0.2043  0.3576
   35POPC   O31 4675   2.404   4.376  10.468  0.6171 -0.0835 -0.2706
   35POPC   C31 4676   2.393   4.504  10.430 -0.8572 -0.0345 -0.5447
   35POPC   O32 4677   2.446   4.605  10.489 -0.4055  0.1845 -0.2624
   35POPC   C32 4678   2.318   4.511  10.297  0.2319 -0.0255 -0.3119
   35POPC   H2X 4679   2.266   4.413  10.289  0.3781 -0.2309  0.9807
   35POPC   H2Y 4680   2.400   4.519  10.223 -0.0516  0.5893 -0.5654
   35POPC   C23 4681   1.916   4.342  10.685 -0.5889 -0.5374 -0.0140
   35POPC   H3R 4682   1.894   4.449  10.704 -1.4179 -0.6136 -0.5416
   35POPC   H3S 4683   1.825   4.285  10.714 -0.0130 -2.1855 -1.2713
   35POPC   C24 4684   1.941   4.321  10.536 -0.3440  0.8134 -0.5316
   35POPC   H4R 4685   1.962   4.214  10.518 -0.0896  0.7042  0.4036
   35POPC   H4S 4686   2.027   4.385  10.506  0.4938  0.2053  0.4982
   35POPC   C25 4687   1.822   4.361  10.454 -0.1229  1.1812  0.1996
   35POPC   H5R 4688   1.737   4.404  10.512 -0.9029 -0.9735  0.7924
   35POPC   H5S 4689   1.779   4.265  10.418  1.1904  0.6799 -0.0699
   35POPC   C26 4690   1.854   4.444  10.329 -0.1015 -0.5093  0.6144
   35POPC   H6R 4691   1.949   4.403  10.290 -0.1237  2.1895 -2.7162
   35POPC   H6S 4692   1.874   4.547  10.365 -2.5306 -0.0701  0.8964
   35POPC   C27 4693   1.744   4.448  10.222 -0.8067 -0.2219  0.1218
   35POPC   H7R 4694   1.647   4.465  10.273  0.1838  1.8336  1.4137
   35POPC   H7S 4695   1.740   4.351  10.166  1.5609 -0.3143  0.0266
   35POPC   C28 4696   1.774   4.565  10.123  0.1912  0.9602 -0.4544
   35POPC   H8R 4697   1.878   4.553  10.084  0.7306 -0.1350  1.2022
   35POPC   H8S 4698   1.771   4.665  10.171 -0.9148  1.8086 -2.1923
   35POPC   C29 4699   1.669   4.566  10.012 -0.3713  0.2762 -0.8973
   35POPC   H91 4700   1.591   4.643  10.022 -0.4524  0.0262  0.6677
   35POPC  C210 4701   1.652   4.482   9.911  0.5819  0.1535 -0.2851
   35POPC  H101 4702   1.571   4.517   9.845 -2.1422 -0.8184  2.2870
   35POPC  C211 4703   1.729   4.361   9.880 -0.2092 -0.2754  0.7777
   35POPC  H11R 4704   1.802   4.337   9.961  1.0943  0.0535 -0.2628
   35POPC  H11S 4705   1.795   4.378   9.793  1.4825  0.2646  2.0906
   35POPC  C212 4706   1.636   4.239   9.863 -0.1885  0.7620  0.0381
   35POPC  H12R 4707   1.586   4.212   9.958 -0.2133 -2.5812 -0.7922
   35POPC  H12S 4708   1.702   4.150   9.851 -1.1344 -0.0330  0.6330
   35POPC  C213 4709   1.537   4.247   9.743  0.0240  0.4604 -0.3256
   35POPC  H13R 4710   1.483   4.345   9.748  0.7969  0.9576 -1.3657
   35POPC  H13S 4711   1.464   4.163   9.745  2.0723 -1.3918 -0.8132
   35POPC  C214 4712   1.615   4.249   9.612 -0.1683 -0.0380  0.2146
   35POPC  H14R 4713   1.671   4.154   9.602  1.9973  1.3466 -2.0368
   35POPC  H14S 4714   1.693   4.329   9.614 -1.2513  1.0319  1.8239
   35POPC  C215 4715   1.545   4.275   9.477 -0.0418  0.5427 -0.1088
   35POPC  H15R 4716   1.505   4.379   9.471 -3.3648 -0.6202  0.2060
   35POPC  H15S 4717   1.453   4.214   9.470  0.1770  0.0604  1.0202
   35POPC  C216 4718   1.635   4.237   9.368 -0.5513 -0.4548  0.2432
   35POPC  H16R 4719   1.659   4.131   9.391 -2.9889 -0.8854  1.0985
   35POPC  H16S 4720   1.731   4.292   9.383 -0.2378 -0.4382 -1.6043
   35POPC  C217 4721   1.578   4.271   9.230 -0.2665  0.2346 -0.5189
   35POPC  H17R 4722   1.567   4.381   9.217  2.4439  0.5256 -0.8321
   35POPC  H17S 4723   1.472   4.240   9.222 -1.1540  2.5607  1.0568
   35POPC  C218 4724   1.653   4.218   9.106 -0.3216 -0.5353 -0.4857
   35POPC  H18R 4725   1.668   4.108   9.109 -0.8026 -0.6049  1.6330
   35POPC  H18S 4726   1.748   4.274   9.102 -1.7489  2.2374  0.9144
   35POPC  H18T 4727   1.597   4.223   9.010 -0.9687 -1.1775 -0.1516
   35POPC   C33 4728   2.218   4.626  10.282 -0.0805  0.3636  0.0260
   35POPC   H3X 4729   2.278   4.720  10.281  0.8464 -0.2034 -0.8074
   35POPC   H3Y 4730   2.157   4.620  10.374  0.7746 -3.6704  0.5274
   35POPC   C34 4731   2.132   4.602  10.162  0.9377 -0.3673 -0.0942
   35POPC   H4X 4732   2.055   4.682  10.168  0.8577 -0.5306  2.9536
   35POPC   H4Y 4733   2.081   4.503  10.164  2.2994 -1.1877  3.7674
   35POPC   C35 4734   2.206   4.615  10.024  0.3444  0.3047 -0.3791
   35POPC   H5X 4735   2.291   4.544  10.018  0.2934  0.3266 -1.6821
   35POPC   H5Y 4736   2.262   4.710  10.034  0.0202  0.2577  3.3175
   35POPC   C36 4737   2.119   4.619   9.906  0.3274  0.2531  0.5016
   35POPC   H6X 4738   2.036   4.692   9.917 -0.8238 -0.9181 -0.0339
   35POPC   H6Y 4739   2.068   4.522   9.887 -1.2362  1.0565  0.3563
   35POPC   C37 4740   2.193   4.667   9.777 -0.1032  0.7277 -0.2134
   35POPC   H7X 4741   2.268   4.589   9.749  1.8273  2.6736 -0.7651
   35POPC   H7Y 4742   2.250   4.761   9.794 -0.1755  0.6427  0.5613
   35POPC   C38 4743   2.099   4.699   9.670 -0.3601 -0.1002  0.0776
   35POPC   H8X 4744   2.134   4.761   9.585 -0.7335 -2.5249 -1.9764
   35POPC   H8Y 4745   2.022   4.766   9.714 -0.8168  1.1807 -2.4613
   35POPC   C39 4746   2.033   4.575   9.608 -0.0038  0.3476 -0.4441
   35POPC   H9X 4747   1.943   4.612   9.553  0.6046  1.2510 -0.8441
   35POPC   H9Y 4748   1.978   4.519   9.687  0.1897  2.8903  1.6438
   35POPC  C310 4749   2.119   4.490   9.516  0.2448 -0.5696 -0.7812
   35POPC  H10X 4750   2.209   4.467   9.576  0.3839  5.0474  1.8428
   35POPC  H10Y 4751   2.148   4.549   9.426  0.6773  0.6300  0.1187
   35POPC  C311 4752   2.039   4.367   9.473 -0.9260 -0.0871 -0.9000
   35POPC  H11X 4753   1.932   4.394   9.458 -0.8653  0.5458 -0.2501
   35POPC  H11Y 4754   2.031   4.297   9.559 -0.5520 -1.3448 -1.8618
   35POPC  C312 4755   2.102   4.287   9.362  0.6676 -0.4300  0.2949
   35POPC  H12X 4756   2.068   4.182   9.357 -0.3223 -0.1321  0.5480
   35POPC  H12Y 4757   2.213   4.281   9.365  0.6103 -1.6391  0.2305
   35POPC  C313 4758   2.069   4.350   9.223 -0.0720  0.8837 -0.2255
   35POPC  H13X 4759   2.114   4.451   9.218  0.5237  0.5584 -2.7575
   35POPC  H13Y 4760   1.959   4.366   9.224 -0.1209  0.5917  1.3710
   35POPC  C314 4761   2.115   4.263   9.106 -0.5793  0.3734  0.0462
   35POPC  H14X 4762   2.084   4.306   9.008  1.2768 -1.4451 -1.4386
   35POPC  H14Y 4763   2.062   4.166   9.113 -2.0164  1.2022  1.4498
   35POPC  C315 4764   2.263   4.242   9.102 -0.3296 -0.2497  0.0823
   35POPC  H15X 4765   2.290   4.174   9.019 -3.5740  0.1495 -1.4337
   35POPC  H15Y 4766   2.301   4.188   9.192  4.2077 -0.0586 -1.4471
   35POPC  C316 4767   2.338   4.374   9.084 -0.4775  0.5342  0.2477
   35POPC  H16X 4768   2.437   4.344   9.042 -0.5720 -0.0550  0.4331
   35POPC  H16Y 4769   2.344   4.424   9.183 -4.8976 -0.4915  1.2418
   35POPC  H16Z 4770   2.285   4.424   9.000 -2.2783 -1.0905  0.3433
   36POPC     N 4771   2.058   3.653  11.406 -0.5362  0.2052 -0.2761
   36POPC   C12 4772   2.145   3.779  11.408  0.1647  0.2190 -0.1874
   36POPC  H12A 4773   2.236   3.760  11.463 -0.8389 -0.2230  1.3810
   36POPC  H12B 4774   2.098   3.852  11.471 -0.4512 -0.3577  0.0286
   36POPC   C13 4775   1.928   3.695  11.339  0.3041 -0.3848 -0.4568
   36POPC  H13A 4776   1.951   3.737  11.242 -0.6052  0.2105 -0.4311
   36POPC  H13B 4777   1.868   3.606  11.326 -2.9333  1.7972 -1.9215
   36POPC  H13C 4778   1.872   3.765  11.400  0.2630 -2.1202  1.6291
   36POPC   C14 4779   2.131   3.545  11.331  0.2396 -0.3148 -0.4969
   36POPC  H14A 4780   2.221   3.532  11.389 -1.7532 -1.9938  2.5614
   36POPC  H14B 4781   2.078   3.450  11.332 -1.5854  0.5817 -2.9482
   36POPC  H14C 4782   2.164   3.564  11.230  0.5144 -2.4024 -0.8438
   36POPC   C15 4783   2.040   3.606  11.548 -0.7525  0.1774  0.5813
   36POPC  H15A 4784   2.014   3.502  11.547 -1.9570  0.4411 -1.4678
   36POPC  H15B 4785   1.971   3.677  11.590  0.9179  2.2136  0.0737
   36POPC  H15C 4786   2.137   3.615  11.596  0.1762 -0.6719 -1.0577
   36POPC   C11 4787   2.174   3.850  11.273 -0.1244 -0.2740  0.6841
   36POPC  H11A 4788   2.203   3.769  11.203 -2.6886 -1.8527  1.3161
   36POPC  H11B 4789   2.266   3.911  11.279 -0.1989 -0.2585  2.4349
   36POPC     P 4790   2.059   3.994  11.091  0.2264  0.2499 -0.3052
   36POPC   O13 4791   2.142   4.112  11.087  0.0266 -0.2369  0.5930
   36POPC   O14 4792   1.920   4.005  11.054 -0.1268  0.2888  0.1061
   36POPC   O12 4793   2.067   3.934  11.234  0.3041  0.8043  0.1366
   36POPC   O11 4794   2.124   3.886  10.995 -0.3286 -0.2395  0.0429
   36POPC    C1 4795   2.085   3.754  10.984  0.0359  0.1110  0.1540
   36POPC    HA 4796   2.017   3.720  11.064 -0.4436  2.6349  0.8801
   36POPC    HB 4797   2.180   3.697  10.994  1.6578  2.2751 -1.7809
   36POPC    C2 4798   2.028   3.727  10.844 -0.0877  0.3545  0.2665
   36POPC    HS 4799   1.933   3.784  10.835  0.2055  0.5539 -2.4018
   36POPC   O21 4800   2.001   3.583  10.835  0.6774  0.1493 -0.4246
   36POPC   C21 4801   1.898   3.550  10.756  0.1263 -0.3832  0.4747
   36POPC   O22 4802   1.835   3.626  10.689  0.0048 -0.4518 -0.0398
   36POPC   C22 4803   1.886   3.392  10.754 -0.4594 -0.2916 -0.3025
   36POPC   H2R 4804   1.791   3.377  10.697  0.2536  1.5470 -2.1058
   36POPC   H2S 4805   1.877   3.362  10.861 -0.6416  0.5109 -0.0854
   36POPC    C3 4806   2.133   3.763  10.740  0.3277 -0.3210 -0.3677
   36POPC    HX 4807   2.225   3.702  10.754  0.2165 -0.2118  0.9039
   36POPC    HY 4808   2.176   3.861  10.769  0.4699 -0.4158 -0.2526
   36POPC   O31 4809   2.090   3.768  10.604 -0.9341  0.2696  0.1452
   36POPC   C31 4810   1.994   3.861  10.578 -0.6253  0.2463  0.2910
   36POPC   O32 4811   1.953   3.950  10.655 -0.1975  0.7926 -0.6027
   36POPC   C32 4812   1.922   3.833  10.446  0.8257 -0.3457 -0.9250
   36POPC   H2X 4813   1.883   3.729  10.450 -2.5856  0.8559  1.2362
   36POPC   H2Y 4814   1.992   3.834  10.360  0.9499  1.8507 -0.8573
   36POPC   C23 4815   1.999   3.320  10.682  0.7466  0.3635  0.3694
   36POPC   H3R 4816   1.997   3.216  10.721  0.4354  0.3190  0.2442
   36POPC   H3S 4817   2.099   3.357  10.713  2.7719 -3.8023 -0.4799
   36POPC   C24 4818   1.982   3.298  10.532  0.1507 -0.4861  0.0142
   36POPC   H4R 4819   1.884   3.251  10.510 -0.9778  1.4550  0.6328
   36POPC   H4S 4820   2.062   3.229  10.496 -0.4780 -0.3001 -1.8486
   36POPC   C25 4821   1.995   3.421  10.443 -0.0180  0.2538 -0.3197
   36POPC   H5R 4822   2.097   3.463  10.444  0.1209 -0.0900  0.8410
   36POPC   H5S 4823   1.930   3.505  10.477  0.7583  1.4017 -1.5479
   36POPC   C26 4824   1.952   3.392  10.296  0.4225 -0.9305 -0.0887
   36POPC   H6R 4825   1.842   3.373  10.296  0.2794 -0.1725  0.8643
   36POPC   H6S 4826   1.993   3.295  10.260 -0.4031 -0.6548 -1.8630
   36POPC   C27 4827   1.992   3.506  10.198 -0.3414  0.3261  0.3746
   36POPC   H7R 4828   2.094   3.545  10.220 -1.2944  2.9810  0.3438
   36POPC   H7S 4829   1.925   3.590  10.222 -0.4687  1.3045 -2.9432
   36POPC   C28 4830   1.988   3.470  10.050  0.3018  0.4551  0.3584
   36POPC   H8R 4831   2.057   3.386  10.026  0.3344  0.7659 -0.6804
   36POPC   H8S 4832   2.023   3.560   9.995 -1.5089 -0.0483 -1.7808
   36POPC   C29 4833   1.856   3.424   9.990 -0.2464  0.6495  0.3946
   36POPC   H91 4834   1.787   3.371  10.057 -0.9442  0.2848 -0.5842
   36POPC  C210 4835   1.807   3.443   9.864  0.6231  0.5052 -0.2142
   36POPC  H101 4836   1.711   3.396   9.840  0.9050  0.8532 -2.2066
   36POPC  C211 4837   1.881   3.515   9.756  0.1253 -0.1467  0.2101
   36POPC  H11R 4838   1.991   3.507   9.771  0.3853  0.9787 -0.9807
   36POPC  H11S 4839   1.863   3.625   9.757  1.0680  0.0146  0.4223
   36POPC  C212 4840   1.850   3.468   9.620 -0.3300 -0.4363  0.0912
   36POPC  H12R 4841   1.902   3.373   9.596  1.5868  0.5974 -0.0315
   36POPC  H12S 4842   1.906   3.538   9.555 -1.2010 -0.7627 -1.0419
   36POPC  C213 4843   1.705   3.453   9.564 -0.2023 -0.1533 -0.0487
   36POPC  H13R 4844   1.647   3.548   9.559 -0.1701 -0.1281  0.0656
   36POPC  H13S 4845   1.639   3.392   9.629 -0.7778  0.0181 -0.4683
   36POPC  C214 4846   1.700   3.412   9.419 -0.2038  0.3208 -0.1585
   36POPC  H14R 4847   1.749   3.313   9.406  0.6674  0.8698 -1.2345
   36POPC  H14S 4848   1.758   3.482   9.356 -0.7760 -0.6522 -1.8316
   36POPC  C215 4849   1.556   3.418   9.364  0.2257 -0.2313 -0.1095
   36POPC  H15R 4850   1.507   3.513   9.398  1.0110  0.5717 -1.1735
   36POPC  H15S 4851   1.488   3.340   9.405  0.0044 -0.6506 -1.2528
   36POPC  C216 4852   1.554   3.423   9.212  0.5092  0.0228  0.6434
   36POPC  H16R 4853   1.612   3.337   9.171  0.8879  0.7831 -0.4414
   36POPC  H16S 4854   1.609   3.513   9.179 -0.1478  0.3768  0.5042
   36POPC  C217 4855   1.400   3.402   9.161  0.0243  0.7105 -0.0353
   36POPC  H17R 4856   1.351   3.320   9.217  3.0391  0.2850  2.2232
   36POPC  H17S 4857   1.411   3.357   9.060 -0.5787 -0.2679  0.3300
   36POPC  C218 4858   1.332   3.532   9.140  0.1120  0.9535  0.4320
   36POPC  H18R 4859   1.325   3.573   9.243 -0.5444  0.0692  0.7505
   36POPC  H18S 4860   1.230   3.508   9.104 -1.1582 -0.5983  4.5004
   36POPC  H18T 4861   1.391   3.598   9.073  0.7991  0.0066  0.0839
   36POPC   C33 4862   1.806   3.927  10.426  0.1906  0.2909  0.1988
   36POPC   H3X 4863   1.835   4.034  10.437 -3.0320  1.3975 -1.0709
   36POPC   H3Y 4864   1.718   3.905  10.490 -0.8833 -0.2767 -1.4079
   36POPC   C34 4865   1.746   3.922  10.286 -0.5198  0.7826 -0.4706
   36POPC   H4X 4866   1.831   3.898  10.218  1.1318  1.1384  1.3442
   36POPC   H4Y 4867   1.702   4.018  10.253  0.8431  1.0792 -1.5229
   36POPC   C35 4868   1.645   3.811  10.266 -0.2428  0.0210  0.7394
   36POPC   H5X 4869   1.540   3.833  10.295 -0.6708 -0.7662 -0.1592
   36POPC   H5Y 4870   1.658   3.730  10.341 -1.3518  1.3478  2.4426
   36POPC   C36 4871   1.638   3.755  10.119 -0.2446  0.6129  0.3570
   36POPC   H6X 4872   1.566   3.671  10.113 -1.0329  1.3362 -0.6993
   36POPC   H6Y 4873   1.737   3.708  10.099  0.1382  1.8915 -0.8353
   36POPC   C37 4874   1.611   3.858  10.017 -0.8561 -0.3020 -0.0618
   36POPC   H7X 4875   1.696   3.927  10.000 -0.5354  0.5131  3.9108
   36POPC   H7Y 4876   1.517   3.914  10.038  0.3501  1.2086  1.5167
   36POPC   C38 4877   1.585   3.781   9.887 -0.4471 -0.1204  0.5338
   36POPC   H8X 4878   1.500   3.710   9.900 -1.4878  0.9694 -0.0682
   36POPC   H8Y 4879   1.678   3.723   9.867 -1.1204 -0.1124 -3.3781
   36POPC   C39 4880   1.551   3.877   9.768 -0.8121  0.0450  0.4295
   36POPC   H9X 4881   1.634   3.949   9.754 -2.0431  1.9582  2.2226
   36POPC   H9Y 4882   1.461   3.936   9.797 -2.7194 -2.8325  0.8212
   36POPC  C310 4883   1.522   3.807   9.637  0.1739  0.5591  0.6546
   36POPC  H10X 4884   1.485   3.704   9.654  1.2275  0.0137 -0.2390
   36POPC  H10Y 4885   1.620   3.795   9.586  0.4897  2.8501  0.6300
   36POPC  C311 4886   1.418   3.887   9.551 -0.0660  0.0565 -0.5156
   36POPC  H11X 4887   1.445   3.994   9.563  1.6182 -0.5174  1.2539
   36POPC  H11Y 4888   1.316   3.866   9.590  0.4906 -0.1513  0.8479
   36POPC  C312 4889   1.401   3.835   9.405 -0.2676  0.6806  0.4520
   36POPC  H12X 4890   1.375   3.727   9.407  0.9068  0.3256 -1.2692
   36POPC  H12Y 4891   1.502   3.836   9.359 -0.9817 -1.6362 -1.3419
   36POPC  C313 4892   1.304   3.919   9.321  0.2457  0.1258  0.0914
   36POPC  H13X 4893   1.296   4.024   9.357 -2.0985  0.4515 -1.1785
   36POPC  H13Y 4894   1.201   3.879   9.333  0.7860 -0.9424  1.4808
   36POPC  C314 4895   1.345   3.911   9.173  0.0037 -0.3205  0.2475
   36POPC  H14X 4896   1.355   3.801   9.156 -0.6264 -0.4630  0.7361
   36POPC  H14Y 4897   1.442   3.962   9.158  0.0399 -0.2973  0.5453
   36POPC  C315 4898   1.236   3.974   9.087 -0.6015  0.2179 -1.3919
   36POPC  H15X 4899   1.276   3.994   8.985  0.2751 -1.1339 -1.3520
   36POPC  H15Y 4900   1.200   4.068   9.133 -0.4844 -0.8658  1.1192
   36POPC  C316 4901   1.118   3.879   9.078 -0.3615  0.6727  0.1342
   36POPC  H16X 4902   1.055   3.904   8.990  1.3913  2.9929 -0.5552
   36POPC  H16Y 4903   1.060   3.877   9.173  1.6794 -2.3231  1.4571
   36POPC  H16Z 4904   1.150   3.775   9.057  1.0004  0.9477  0.7429
   37POPC     N 4905   1.015   6.071   6.321  0.4778 -0.7448  0.3973
   37POPC   C12 4906   0.996   6.097   6.469 -0.3673 -0.3379 -0.0330
   37POPC  H12A 4907   0.889   6.088   6.486  0.0171 -1.3935  2.3144
   37POPC  H12B 4908   1.018   6.201   6.487 -0.6299 -0.2146 -0.4066
   37POPC   C13 4909   0.942   6.159   6.233  0.1195  0.1346  0.4443
   37POPC  H13A 4910   0.836   6.138   6.230 -0.4133  2.5160  0.1152
   37POPC  H13B 4911   0.947   6.260   6.272  0.5754 -0.7670  2.8985
   37POPC  H13C 4912   0.988   6.153   6.136 -1.6815 -0.7930 -0.4163
   37POPC   C14 4913   1.164   6.078   6.293 -0.4213  0.1531  1.2322
   37POPC  H14A 4914   1.199   6.065   6.192  0.8937 -0.5998  1.7405
   37POPC  H14B 4915   1.201   6.177   6.313 -1.0671  0.5640  0.4116
   37POPC  H14C 4916   1.213   6.011   6.363  1.0331 -1.1061 -0.8897
   37POPC   C15 4917   0.961   5.927   6.310 -1.4574 -0.2736  0.1026
   37POPC  H15A 4918   0.992   5.868   6.395  0.3112 -1.8146 -1.5226
   37POPC  H15B 4919   0.999   5.880   6.221 -1.0944 -0.9888  0.6281
   37POPC  H15C 4920   0.853   5.918   6.309 -1.2797 -3.6886  0.0635
   37POPC   C11 4921   1.066   6.034   6.590  0.5058 -0.3870 -0.4319
   37POPC  H11A 4922   1.057   5.924   6.575  1.3093 -0.3481 -1.3674
   37POPC  H11B 4923   1.027   6.070   6.687  0.6093 -2.0527  0.2742
   37POPC     P 4924   1.296   6.040   6.696  0.4601  0.5544 -0.2992
   37POPC   O13 4925   1.434   6.070   6.656  0.1742  0.3233  0.0616
   37POPC   O14 4926   1.283   5.900   6.751  0.3535  0.8127 -0.1128
   37POPC   O12 4927   1.200   6.076   6.583  0.3152  0.2325 -0.1190
   37POPC   O11 4928   1.253   6.141   6.805  0.2297 -0.0818 -0.4106
   37POPC    C1 4929   1.225   6.279   6.776 -1.0837  1.1134 -0.3254
   37POPC    HA 4930   1.166   6.300   6.684 -0.2277  0.8137 -0.9652
   37POPC    HB 4931   1.316   6.343   6.785 -0.4547  0.4847 -1.7558
   37POPC    C2 4932   1.136   6.331   6.896 -0.3866 -0.4815 -0.2354
   37POPC    HS 4933   1.131   6.442   6.889 -1.0162 -0.3923  1.3207
   37POPC   O21 4934   1.203   6.290   7.018 -0.2130 -0.2977  0.0538
   37POPC   C21 4935   1.296   6.369   7.065 -0.4304  0.1139 -0.7075
   37POPC   O22 4936   1.344   6.467   7.008  0.0223  0.0772 -0.0070
   37POPC   C22 4937   1.345   6.317   7.207  0.5788 -0.1029  0.2555
   37POPC   H2R 4938   1.429   6.387   7.227 -0.1173  1.1101 -0.8868
   37POPC   H2S 4939   1.396   6.220   7.188  1.3885  0.7102 -2.2205
   37POPC    C3 4940   0.987   6.287   6.876 -0.8128  0.4294 -0.0576
   37POPC    HX 4941   0.987   6.176   6.886  2.5386 -0.0275 -3.2909
   37POPC    HY 4942   0.951   6.306   6.773  0.4399  2.1684 -0.2186
   37POPC   O31 4943   0.901   6.352   6.971 -0.0591  0.1695 -0.3842
   37POPC   C31 4944   0.793   6.287   7.022 -0.0474 -0.5220  0.1360
   37POPC   O32 4945   0.764   6.168   7.015 -0.3670  0.1955 -0.3376
   37POPC   C32 4946   0.712   6.383   7.106  0.0415 -0.3542 -0.5297
   37POPC   H2X 4947   0.606   6.365   7.075 -0.7855  1.3504  1.0763
   37POPC   H2Y 4948   0.755   6.481   7.077  3.0512 -1.8146 -1.3313
   37POPC   C23 4949   1.231   6.320   7.312 -1.0456 -0.3722 -0.1912
   37POPC   H3R 4950   1.276   6.286   7.408  3.7891 -0.7520 -2.3036
   37POPC   H3S 4951   1.156   6.248   7.273  0.9138 -1.0806 -2.9284
   37POPC   C24 4952   1.174   6.467   7.341  0.0806  0.1860 -0.0545
   37POPC   H4R 4953   1.101   6.493   7.262 -1.5546  0.0550  1.3630
   37POPC   H4S 4954   1.252   6.547   7.341  0.9902 -0.6126  2.4626
   37POPC   C25 4955   1.113   6.481   7.477  0.1020 -0.9112  0.7365
   37POPC   H5R 4956   1.081   6.379   7.505 -4.0622  0.2105  0.7310
   37POPC   H5S 4957   1.023   6.547   7.475 -0.2253 -1.3641  0.4124
   37POPC   C26 4958   1.209   6.540   7.586  0.2865 -0.1685  0.0284
   37POPC   H6R 4959   1.213   6.649   7.567  1.5800 -0.4552 -1.6313
   37POPC   H6S 4960   1.312   6.502   7.568  0.2628 -0.0161 -0.4344
   37POPC   C27 4961   1.152   6.508   7.727  0.3636 -0.1145 -0.0766
   37POPC   H7R 4962   1.042   6.494   7.720  0.0709  1.9205  0.0883
   37POPC   H7S 4963   1.177   6.582   7.805  0.8486 -1.7558  1.3949
   37POPC   C28 4964   1.218   6.377   7.771  0.2433 -0.1310  0.6070
   37POPC   H8R 4965   1.328   6.396   7.766  0.1530  0.3015 -3.8994
   37POPC   H8S 4966   1.190   6.309   7.688  1.8959 -0.8844  0.6395
   37POPC   C29 4967   1.179   6.323   7.904  0.5132  0.2962 -0.6496
   37POPC   H91 4968   1.087   6.264   7.910  0.9987 -0.3776  1.0205
   37POPC  C210 4969   1.240   6.339   8.021  0.3204  0.1471 -0.1765
   37POPC  H101 4970   1.192   6.287   8.105 -1.4622  1.0777 -0.5616
   37POPC  C211 4971   1.365   6.420   8.043 -0.4601 -0.6049 -0.3172
   37POPC  H11R 4972   1.407   6.443   7.943  1.7966  0.6355  0.8308
   37POPC  H11S 4973   1.436   6.354   8.097 -1.6888 -0.5265  1.4839
   37POPC  C212 4974   1.343   6.552   8.115 -0.2835 -0.2517 -0.1809
   37POPC  H12R 4975   1.269   6.608   8.053  0.9350  1.3828 -0.2337
   37POPC  H12S 4976   1.442   6.603   8.116 -0.1337 -0.4224 -2.0627
   37POPC  C213 4977   1.307   6.537   8.268  0.3284  0.3161 -0.0146
   37POPC  H13R 4978   1.388   6.480   8.316  1.8250  1.6714 -0.8387
   37POPC  H13S 4979   1.215   6.475   8.276 -0.4724  1.1496 -1.9552
   37POPC  C214 4980   1.272   6.667   8.346  0.1289  0.4482  0.7522
   37POPC  H14R 4981   1.172   6.699   8.311  0.0797 -1.1357 -0.6976
   37POPC  H14S 4982   1.348   6.744   8.320 -0.5113  0.7994 -0.1302
   37POPC  C215 4983   1.263   6.646   8.498 -0.6911  0.1509  0.2129
   37POPC  H15R 4984   1.205   6.552   8.505 -0.5041 -0.0481 -0.8335
   37POPC  H15S 4985   1.213   6.729   8.552  0.7050  2.1290 -1.3663
   37POPC  C216 4986   1.396   6.630   8.583 -0.7061 -0.5691  0.5865
   37POPC  H16R 4987   1.447   6.728   8.574 -2.5348  0.3644  0.0165
   37POPC  H16S 4988   1.450   6.540   8.547 -1.2108 -1.0627  1.0433
   37POPC  C217 4989   1.353   6.616   8.728 -0.1776 -0.5193  0.2842
   37POPC  H17R 4990   1.305   6.517   8.743  0.2015 -0.8162 -0.4086
   37POPC  H17S 4991   1.272   6.688   8.750  0.7253  0.3830  0.6995
   37POPC  C218 4992   1.466   6.631   8.829  0.3789  0.2234  0.5069
   37POPC  H18R 4993   1.541   6.706   8.796  1.3008 -0.8594  0.0744
   37POPC  H18S 4994   1.525   6.539   8.851 -1.0060 -0.7168  0.4425
   37POPC  H18T 4995   1.433   6.668   8.929  2.3782  0.8209  0.9935
   37POPC   C33 4996   0.741   6.367   7.255  0.1356  0.4516 -0.1075
   37POPC   H3X 4997   0.714   6.455   7.317  1.8949  0.0840  1.2738
   37POPC   H3Y 4998   0.850   6.348   7.265  0.1684  0.9471  0.4993
   37POPC   C34 4999   0.655   6.245   7.316 -0.2244 -0.0594  0.3111
   37POPC   H4X 5000   0.714   6.155   7.340  0.0728  0.4055  1.3966
   37POPC   H4Y 5001   0.583   6.211   7.239  1.3603 -1.6013 -0.5384
   37POPC   C35 5002   0.577   6.289   7.442  0.1878  0.6152 -0.2474
   37POPC   H5X 5003   0.488   6.224   7.454  0.4993  0.1655 -0.3550
   37POPC   H5Y 5004   0.553   6.397   7.436  0.4472  0.7126  0.4471
   37POPC   C36 5005   0.665   6.281   7.566 -0.3966 -0.2268  0.6184
   37POPC   H6X 5006   0.748   6.355   7.560 -0.0001 -0.7522 -1.1465
   37POPC   H6Y 5007   0.718   6.183   7.565 -0.3123 -0.1829 -0.0999
   37POPC   C37 5008   0.593   6.276   7.703  0.0402  0.0927 -0.1531
   37POPC   H7X 5009   0.532   6.183   7.697  0.9977 -0.6056  0.5924
   37POPC   H7Y 5010   0.513   6.353   7.711 -0.2453 -0.2300  0.1501
   37POPC   C38 5011   0.693   6.267   7.821  0.8280  0.1580 -0.1398
   37POPC   H8X 5012   0.763   6.353   7.829 -0.1902  0.9464  0.5689
   37POPC   H8Y 5013   0.766   6.193   7.781  0.0263 -2.2562  2.5625
   37POPC   C39 5014   0.639   6.224   7.952  0.2050  0.8840  0.0946
   37POPC   H9X 5015   0.711   6.149   7.993 -1.0141 -0.6680 -0.4969
   37POPC   H9Y 5016   0.541   6.178   7.929 -0.3668  1.6233  0.9813
   37POPC  C310 5017   0.614   6.336   8.056 -0.2899 -0.4638  0.5695
   37POPC  H10X 5018   0.549   6.416   8.015 -1.0890 -0.5371  1.6359
   37POPC  H10Y 5019   0.714   6.383   8.067  0.4348 -1.1475 -2.2388
   37POPC  C311 5020   0.546   6.290   8.186  0.1700  0.4741 -0.0489
   37POPC  H11X 5021   0.454   6.238   8.153  1.8158 -0.8747 -2.9233
   37POPC  H11Y 5022   0.502   6.378   8.237 -1.9324 -0.7160  0.2902
   37POPC  C312 5023   0.658   6.222   8.276  0.4323 -0.5974  0.0625
   37POPC  H12X 5024   0.759   6.257   8.245  1.3243 -2.8550  0.2978
   37POPC  H12Y 5025   0.648   6.112   8.280 -2.2470 -0.4123  0.7984
   37POPC  C313 5026   0.633   6.247   8.428  0.2669 -0.8910  0.7286
   37POPC  H13X 5027   0.525   6.226   8.448 -0.1698  0.5712  0.0239
   37POPC  H13Y 5028   0.638   6.354   8.455  1.4566 -0.6680 -0.3344
   37POPC  C314 5029   0.721   6.160   8.512 -0.3589  0.0949 -0.4333
   37POPC  H14X 5030   0.827   6.186   8.495 -0.6090  1.9930  0.6220
   37POPC  H14Y 5031   0.698   6.053   8.497  0.3167 -0.4419  1.8863
   37POPC  C315 5032   0.696   6.192   8.671  0.2192 -0.1772  0.0204
   37POPC  H15X 5033   0.594   6.150   8.690  1.4490 -2.3294  2.6195
   37POPC  H15Y 5034   0.684   6.299   8.696 -1.3777  0.0335 -1.4739
   37POPC  C316 5035   0.789   6.122   8.770 -0.1551 -0.4150 -0.4025
   37POPC  H16X 5036   0.779   6.012   8.777  0.8140 -0.4322  1.4988
   37POPC  H16Y 5037   0.761   6.160   8.871 -0.7524  0.4382 -0.8778
   37POPC  H16Z 5038   0.896   6.149   8.752 -0.2136 -0.4614 -0.8295
   38POPC     N 5039   1.967   2.302   6.109  0.3463 -0.6945  0.2037
   38POPC   C12 5040   1.958   2.291   6.258 -0.1673 -0.3781 -0.2304
   38POPC  H12A 5041   1.986   2.190   6.284  1.8790  0.8548  2.8891
   38POPC  H12B 5042   1.853   2.285   6.284 -0.1372 -0.4213 -0.1178
   38POPC   C13 5043   2.112   2.320   6.078 -0.2139 -0.1081 -0.8469
   38POPC  H13A 5044   2.131   2.333   5.972  1.9979 -3.2895 -0.9559
   38POPC  H13B 5045   2.158   2.395   6.140  0.4319  0.0409 -1.4850
   38POPC  H13C 5046   2.163   2.229   6.106 -0.0087 -0.2492 -1.6554
   38POPC   C14 5047   1.908   2.176   6.044  0.0447 -0.2396  0.2475
   38POPC  H14A 5048   1.805   2.186   6.015  0.5669  0.5238 -1.4989
   38POPC  H14B 5049   1.960   2.149   5.953 -1.3157 -2.0611 -0.0640
   38POPC  H14C 5050   1.918   2.086   6.103  2.5248 -0.2284 -0.0175
   38POPC   C15 5051   1.902   2.424   6.050 -0.4909 -0.0526 -0.7531
   38POPC  H15A 5052   1.920   2.431   5.944  0.6070 -0.4213 -0.5990
   38POPC  H15B 5053   1.926   2.519   6.095 -1.7366  0.5033 -1.2003
   38POPC  H15C 5054   1.794   2.418   6.050 -0.7003  2.1826  1.3534
   38POPC   C11 5055   2.030   2.397   6.343 -0.5468  0.3248  0.0596
   38POPC  H11A 5056   2.139   2.377   6.355  0.0202  1.4299 -2.6295
   38POPC  H11B 5057   2.003   2.380   6.450  1.2633  3.0582  1.0688
   38POPC     P 5058   1.898   2.614   6.387  0.0710 -0.2363  0.0902
   38POPC   O13 5059   1.814   2.512   6.463 -0.1726 -0.2508  0.0777
   38POPC   O14 5060   1.827   2.701   6.288  0.0097  0.3454  0.1603
   38POPC   O12 5061   2.018   2.538   6.312  0.3292 -0.2309  0.1251
   38POPC   O11 5062   1.963   2.713   6.493  0.5253  0.0136  0.1599
   38POPC    C1 5063   2.096   2.686   6.529  0.3140  0.3438 -0.6353
   38POPC    HA 5064   2.162   2.721   6.447  1.5993 -0.3371  0.0844
   38POPC    HB 5065   2.109   2.577   6.547 -0.1277  0.3366 -0.3269
   38POPC    C2 5066   2.125   2.757   6.666  0.3699  0.5182 -0.1358
   38POPC    HS 5067   2.215   2.717   6.716 -0.1127 -0.4904 -0.0512
   38POPC   O21 5068   2.013   2.744   6.758 -0.1505 -0.0836  0.1062
   38POPC   C21 5069   1.996   2.626   6.818 -0.2005 -0.3470 -0.6773
   38POPC   O22 5070   2.066   2.527   6.810 -0.2963  0.0866 -0.2956
   38POPC   C22 5071   1.870   2.641   6.911 -0.1492  0.4258  0.7520
   38POPC   H2R 5072   1.813   2.546   6.897  0.3296  0.2263  0.1310
   38POPC   H2S 5073   1.804   2.727   6.886 -0.4334 -0.0121 -0.0678
   38POPC    C3 5074   2.157   2.910   6.647  0.0368 -0.2886  0.2926
   38POPC    HX 5075   2.063   2.960   6.617 -0.7997 -2.2431 -0.5054
   38POPC    HY 5076   2.228   2.925   6.563  1.7888  2.5581  2.0868
   38POPC   O31 5077   2.217   2.961   6.762  0.4590  0.1476  0.1841
   38POPC   C31 5078   2.148   3.054   6.821 -0.9058  0.5067 -0.2919
   38POPC   O32 5079   2.037   3.098   6.788 -0.1333 -0.1780  0.4158
   38POPC   C32 5080   2.233   3.112   6.933  0.0488 -0.4498 -0.0714
   38POPC   H2X 5081   2.212   3.221   6.920  2.2939  0.0596  0.1777
   38POPC   H2Y 5082   2.342   3.092   6.932  0.6299  2.2482 -2.2785
   38POPC   C23 5083   1.912   2.649   7.053 -0.1292  0.1467 -0.2528
   38POPC   H3R 5084   1.999   2.584   7.075  0.9267  1.2577 -1.0254
   38POPC   H3S 5085   1.832   2.618   7.123  1.3558  0.6596  1.7769
   38POPC   C24 5086   1.944   2.788   7.106 -0.1790  0.1362 -0.1878
   38POPC   H4R 5087   1.869   2.865   7.079  1.3268  1.4629 -0.7416
   38POPC   H4S 5088   2.039   2.807   7.051 -0.7548  1.0665 -0.8963
   38POPC   C25 5089   1.958   2.790   7.257 -0.3040 -0.0321 -0.6698
   38POPC   H5R 5090   1.870   2.742   7.306 -1.3652  3.4661  1.1587
   38POPC   H5S 5091   1.981   2.891   7.296  0.1203 -0.9145  1.5256
   38POPC   C26 5092   2.069   2.699   7.316 -0.1836  0.3790 -0.3607
   38POPC   H6R 5093   2.173   2.726   7.290  0.4564  0.3521  1.9806
   38POPC   H6S 5094   2.045   2.596   7.282 -0.9715  0.1010  0.9569
   38POPC   C27 5095   2.056   2.708   7.469 -0.1995 -0.2737 -0.5481
   38POPC   H7R 5096   2.127   2.634   7.511 -0.8454 -0.0221  1.0517
   38POPC   H7S 5097   1.954   2.682   7.502 -0.5326  0.5139 -0.9283
   38POPC   C28 5098   2.097   2.842   7.533  0.4913 -0.1441  0.1481
   38POPC   H8R 5099   2.037   2.918   7.479  0.8308  0.1645  0.2022
   38POPC   H8S 5100   2.206   2.849   7.511  0.7826 -0.2688  1.4805
   38POPC   C29 5101   2.080   2.839   7.684  0.1687 -0.1732 -0.2126
   38POPC   H91 5102   1.996   2.888   7.735  0.4047 -0.6006  0.5952
   38POPC  C210 5103   2.159   2.769   7.770 -0.3966  0.9478  0.1215
   38POPC  H101 5104   2.139   2.779   7.878 -2.9080  0.6244 -0.2462
   38POPC  C211 5105   2.279   2.688   7.737  0.1795  0.1524 -0.5732
   38POPC  H11R 5106   2.361   2.739   7.792 -0.5637  0.1727  0.5566
   38POPC  H11S 5107   2.300   2.686   7.628  0.8349 -3.1626 -0.5080
   38POPC  C212 5108   2.285   2.543   7.790  0.5397 -0.3522 -0.1177
   38POPC  H12R 5109   2.380   2.499   7.753 -0.5058 -2.9336  0.0635
   38POPC  H12S 5110   2.209   2.484   7.736  1.0880 -2.0114  0.8282
   38POPC  C213 5111   2.290   2.527   7.945  0.0657 -0.5857  0.3742
   38POPC  H13R 5112   2.198   2.561   7.997 -0.9934  0.4000 -1.9624
   38POPC  H13S 5113   2.377   2.580   7.989 -0.6171 -0.6474  1.8317
   38POPC  C214 5114   2.312   2.380   7.974 -0.0771  0.1720  0.2162
   38POPC  H14R 5115   2.384   2.331   7.905  0.3488  2.0778 -0.7402
   38POPC  H14S 5116   2.216   2.331   7.945 -0.7395  1.3160  0.4505
   38POPC  C215 5117   2.360   2.361   8.123 -0.0875 -0.6670  0.5478
   38POPC  H15R 5118   2.303   2.431   8.187 -2.7018 -2.0051 -0.1761
   38POPC  H15S 5119   2.467   2.389   8.129 -0.2491 -0.2614  1.9477
   38POPC  C216 5120   2.320   2.228   8.186  0.3564  0.6668  0.1156
   38POPC  H16R 5121   2.388   2.152   8.141 -1.9812 -1.2319 -0.3799
   38POPC  H16S 5122   2.216   2.199   8.161  0.5628  0.2179 -0.2321
   38POPC  C217 5123   2.328   2.222   8.333 -1.0542  0.2290  0.3762
   38POPC  H17R 5124   2.244   2.286   8.368 -3.4501 -3.4133  1.8439
   38POPC  H17S 5125   2.428   2.263   8.362 -1.1596  1.8988 -1.3628
   38POPC  C218 5126   2.300   2.080   8.383  0.7146  0.0476  0.1695
   38POPC  H18R 5127   2.320   2.077   8.492  3.0480  0.5329 -0.2085
   38POPC  H18S 5128   2.366   2.003   8.339  0.9597  0.4434 -0.1713
   38POPC  H18T 5129   2.191   2.065   8.365  0.7157  1.6200 -1.4722
   38POPC   C33 5130   2.179   3.046   7.065  0.8348  0.4453  0.3335
   38POPC   H3X 5131   2.234   2.949   7.066  0.8548  0.4596  1.3733
   38POPC   H3Y 5132   2.071   3.027   7.050  1.3516 -0.8125 -2.5979
   38POPC   C34 5133   2.207   3.113   7.197 -0.5121 -0.0446 -0.1058
   38POPC   H4X 5134   2.309   3.157   7.199 -0.7130  0.4110  0.2009
   38POPC   H4Y 5135   2.204   3.034   7.275 -0.6211 -1.6383 -1.6591
   38POPC   C35 5136   2.104   3.226   7.233 -0.0719  0.3033 -0.2157
   38POPC   H5X 5137   2.009   3.177   7.204  0.2843  0.0390 -0.9643
   38POPC   H5Y 5138   2.132   3.317   7.176 -2.3127  0.3744 -1.3289
   38POPC   C36 5139   2.103   3.250   7.387 -0.8105  0.0162 -0.0841
   38POPC   H6X 5140   2.196   3.300   7.420 -0.9375  0.0986  0.1568
   38POPC   H6Y 5141   2.111   3.150   7.434 -3.3041 -1.1886 -1.9962
   38POPC   C37 5142   1.975   3.323   7.431 -0.0652  0.2170  0.2520
   38POPC   H7X 5143   1.879   3.267   7.426 -0.1656  0.4688 -0.7738
   38POPC   H7Y 5144   1.970   3.414   7.368  1.2507  0.3888  0.3622
   38POPC   C38 5145   1.987   3.377   7.575 -0.0079 -0.3879  0.0278
   38POPC   H8X 5146   1.906   3.452   7.585 -1.6871 -1.8996 -1.4486
   38POPC   H8Y 5147   2.089   3.422   7.579 -0.0034 -0.4018  0.0633
   38POPC   C39 5148   1.990   3.285   7.687 -0.1396  0.1781  0.2563
   38POPC   H9X 5149   2.083   3.226   7.672  0.3446  1.4281 -2.2640
   38POPC   H9Y 5150   1.911   3.206   7.693  1.2573 -1.2843  0.1386
   38POPC  C310 5151   1.982   3.353   7.826 -0.4356 -0.2668 -0.7601
   38POPC  H10X 5152   1.882   3.401   7.830  0.8607  2.8812 -2.0629
   38POPC  H10Y 5153   2.046   3.444   7.831  1.5778 -1.5465 -1.8868
   38POPC  C311 5154   2.012   3.258   7.950 -0.0162 -0.2582 -0.6503
   38POPC  H11X 5155   2.019   3.333   8.032  2.9293  2.4250 -3.0601
   38POPC  H11Y 5156   2.112   3.209   7.942  1.0912  1.2737  2.2473
   38POPC  C312 5157   1.904   3.149   7.963  0.0450 -0.8763 -0.2142
   38POPC  H12X 5158   1.931   3.085   7.876  2.8734 -0.1660  0.0537
   38POPC  H12Y 5159   1.804   3.193   7.943  0.4118 -0.6574 -1.7063
   38POPC  C313 5160   1.891   3.044   8.082 -1.0236  0.0762 -0.0461
   38POPC  H13X 5161   1.791   2.996   8.079 -1.9849  1.8674  1.1555
   38POPC  H13Y 5162   1.887   3.098   8.179 -1.5231  0.8700 -0.5022
   38POPC  C314 5163   2.018   2.943   8.075  0.6173 -0.4844 -0.2644
   38POPC  H14X 5164   2.109   3.005   8.061  0.6471 -0.5089 -0.1804
   38POPC  H14Y 5165   2.011   2.879   7.985  2.1595  1.4220 -1.8452
   38POPC  C315 5166   2.018   2.853   8.199  0.5987  0.2886 -0.2113
   38POPC  H15X 5167   1.915   2.814   8.213 -0.1454  1.6599 -1.6192
   38POPC  H15Y 5168   2.052   2.909   8.288  1.7576 -1.9433  0.8281
   38POPC  C316 5169   2.109   2.736   8.187 -0.7045 -0.0422 -0.7148
   38POPC  H16X 5170   2.199   2.746   8.123 -0.8918  1.2264 -0.8053
   38POPC  H16Y 5171   2.056   2.648   8.144 -0.6698 -0.3827 -0.0778
   38POPC  H16Z 5172   2.143   2.695   8.285 -0.1573  2.2653  0.1101
   39POPC     N 5173   5.442   3.001   6.210 -0.1563  1.2102  0.3006
   39POPC   C12 5174   5.572   2.972   6.129  0.6425  0.3359 -0.1701
   39POPC  H12A 5175   5.571   3.037   6.043  2.3080 -1.6140 -1.7869
   39POPC  H12B 5176   5.571   2.870   6.094 -0.1003  0.3223 -0.1215
   39POPC   C13 5177   5.443   2.900   6.325 -0.3206  0.1070  0.2210
   39POPC  H13A 5178   5.544   2.909   6.364 -0.2765  0.3952  0.0461
   39POPC  H13B 5179   5.381   2.937   6.405 -0.7464  0.3115 -0.2024
   39POPC  H13C 5180   5.418   2.801   6.291 -0.2179  0.2831 -0.3737
   39POPC   C14 5181   5.448   3.140   6.270 -0.1321  0.1968  0.1155
   39POPC  H14A 5182   5.472   3.199   6.183 -2.0076 -0.7475 -1.1141
   39POPC  H14B 5183   5.354   3.167   6.317 -1.2951 -0.6028 -1.6332
   39POPC  H14C 5184   5.535   3.150   6.332 -0.7251  1.6526  0.7671
   39POPC   C15 5185   5.315   2.988   6.130 -0.0682 -0.0928 -0.2839
   39POPC  H15A 5186   5.234   3.007   6.198  0.5093  1.5059 -0.0146
   39POPC  H15B 5187   5.305   2.891   6.083  0.8998 -0.9079  1.1264
   39POPC  H15C 5188   5.313   3.057   6.046 -0.0671 -2.0345 -1.9607
   39POPC   C11 5189   5.714   2.989   6.202  0.3537  0.2023  0.3250
   39POPC  H11A 5190   5.732   3.097   6.219 -0.4715  0.7047 -1.6670
   39POPC  H11B 5191   5.782   2.963   6.118  2.1261  1.0686  1.4455
   39POPC     P 5192   5.758   2.745   6.292 -0.2995 -0.2423 -0.1223
   39POPC   O13 5193   5.883   2.722   6.211 -0.3116 -0.6325  0.7652
   39POPC   O14 5194   5.636   2.670   6.260  0.3015  0.1713  0.4266
   39POPC   O12 5195   5.726   2.900   6.314  0.2815 -0.2839  0.2835
   39POPC   O11 5196   5.792   2.702   6.442 -0.3780 -0.8004  0.2563
   39POPC    C1 5197   5.699   2.734   6.543  1.0650 -0.6199 -0.1812
   39POPC    HA 5198   5.641   2.642   6.565 -0.9553  0.6236  0.0491
   39POPC    HB 5199   5.629   2.816   6.513  0.7529 -0.3302  1.2678
   39POPC    C2 5200   5.771   2.785   6.664 -0.4014 -0.6008  0.0440
   39POPC    HS 5201   5.838   2.871   6.642  0.7787 -0.9834  1.9669
   39POPC   O21 5202   5.859   2.691   6.717  0.1294 -0.1266 -0.2152
   39POPC   C21 5203   5.963   2.730   6.795 -0.2735  0.5687  0.2183
   39POPC   O22 5204   6.000   2.846   6.823 -1.2329  0.4147  0.3015
   39POPC   C22 5205   6.051   2.600   6.808 -0.1074 -0.4991  0.1238
   39POPC   H2R 5206   6.113   2.589   6.716 -1.1900  0.2296 -0.7236
   39POPC   H2S 5207   5.978   2.516   6.797  1.4711 -1.8253 -0.5977
   39POPC    C3 5208   5.663   2.834   6.771  0.0082 -0.1018 -0.3377
   39POPC    HX 5209   5.611   2.746   6.813 -0.1935  0.7638  1.3249
   39POPC    HY 5210   5.589   2.904   6.725  0.8470  0.8018 -0.3546
   39POPC   O31 5211   5.725   2.907   6.878 -0.3755  0.3799 -0.3541
   39POPC   C31 5212   5.775   3.032   6.853  0.0652  0.3597  1.0913
   39POPC   O32 5213   5.786   3.088   6.744 -0.3894 -0.4300  0.3137
   39POPC   C32 5214   5.834   3.096   6.971  0.0714 -0.4141 -0.1652
   39POPC   H2X 5215   5.945   3.103   6.961  0.1566  0.4418  1.0752
   39POPC   H2Y 5216   5.791   3.198   6.977  2.1690  0.5572 -0.5577
   39POPC   C23 5217   6.132   2.592   6.936 -0.7873 -0.0155 -0.0854
   39POPC   H3R 5218   6.164   2.694   6.966 -3.2122  0.5567  0.8260
   39POPC   H3S 5219   6.210   2.516   6.915 -1.2146 -0.4608 -0.0622
   39POPC   C24 5220   6.043   2.556   7.048  0.7369 -0.1630  0.0591
   39POPC   H4R 5221   5.994   2.459   7.026 -0.6692  0.2270  1.3489
   39POPC   H4S 5222   5.960   2.628   7.068 -0.6287 -1.3567 -1.1351
   39POPC   C25 5223   6.125   2.527   7.173 -0.0331 -0.0647 -0.0774
   39POPC   H5R 5224   6.227   2.496   7.143 -1.0865 -1.8574 -2.0779
   39POPC   H5S 5225   6.080   2.439   7.223  0.6929 -0.1633  0.4238
   39POPC   C26 5226   6.118   2.637   7.276  0.4650 -0.7037 -0.2549
   39POPC   H6R 5227   6.012   2.638   7.307  0.5476  1.4556  0.1595
   39POPC   H6S 5228   6.150   2.724   7.214 -1.2035 -0.3149 -0.6069
   39POPC   C27 5229   6.226   2.628   7.383  0.1940  0.5975 -0.5477
   39POPC   H7R 5230   6.224   2.725   7.436 -3.0441 -0.1616  0.9799
   39POPC   H7S 5231   6.323   2.605   7.334 -0.3553 -2.0337 -0.5719
   39POPC   C28 5232   6.203   2.520   7.493 -0.4679 -0.1957  0.6229
   39POPC   H8R 5233   6.240   2.420   7.461  1.1592  0.3339  0.7557
   39POPC   H8S 5234   6.097   2.492   7.507 -0.9348  1.2974  0.1354
   39POPC   C29 5235   6.271   2.556   7.625 -0.5435 -0.7431  0.5755
   39POPC   H91 5236   6.376   2.586   7.610 -0.5944  0.4846  2.3803
   39POPC  C210 5237   6.207   2.564   7.749 -0.5517  0.8346 -0.3315
   39POPC  H101 5238   6.261   2.611   7.832  0.7388 -1.7174  0.3618
   39POPC  C211 5239   6.065   2.523   7.779 -0.3336 -0.1632  0.5588
   39POPC  H11R 5240   6.019   2.465   7.697 -0.0688  1.1015 -0.5193
   39POPC  H11S 5241   5.994   2.606   7.802 -2.9114 -1.4288 -2.2526
   39POPC  C212 5242   6.072   2.428   7.905  0.1115  0.1306 -1.0661
   39POPC  H12R 5243   6.109   2.333   7.863 -0.2837 -0.3824 -0.2778
   39POPC  H12S 5244   5.965   2.420   7.936 -0.2514 -0.3398 -2.3877
   39POPC  C213 5245   6.157   2.474   8.027  0.2902  0.1148  0.7412
   39POPC  H13R 5246   6.118   2.577   8.043  2.5253  0.7222  2.9125
   39POPC  H13S 5247   6.264   2.487   8.001  0.7501 -3.5773  0.3107
   39POPC  C214 5248   6.132   2.399   8.162 -0.6628  0.0151  0.2233
   39POPC  H14R 5249   6.138   2.290   8.140  2.5517 -0.0498  1.0046
   39POPC  H14S 5250   6.030   2.425   8.196 -0.8125  0.4693 -0.5464
   39POPC  C215 5251   6.229   2.448   8.260 -0.1878 -0.3252  0.4315
   39POPC  H15R 5252   6.197   2.553   8.278 -2.4604 -0.8336 -0.2354
   39POPC  H15S 5253   6.329   2.470   8.218 -0.0911 -1.8474 -0.1940
   39POPC  C216 5254   6.244   2.380   8.398  0.2493  0.5548  0.0690
   39POPC  H16R 5255   6.303   2.439   8.471  0.0204  0.0167  0.6952
   39POPC  H16S 5256   6.309   2.290   8.393  0.6712  0.7788  1.1327
   39POPC  C217 5257   6.113   2.345   8.458  0.5784 -0.3672  0.0149
   39POPC  H17R 5258   6.073   2.258   8.401  4.2935 -0.5670 -2.6250
   39POPC  H17S 5259   6.033   2.421   8.454 -0.0153 -0.9355  0.8511
   39POPC  C218 5260   6.138   2.312   8.609  0.0642 -0.5207  0.1174
   39POPC  H18R 5261   6.042   2.263   8.637 -1.2624  2.6289  1.5536
   39POPC  H18S 5262   6.145   2.409   8.664 -3.5366  0.7142 -1.3050
   39POPC  H18T 5263   6.221   2.242   8.631 -0.5093 -1.9982 -2.0255
   39POPC   C33 5264   5.807   3.021   7.100 -0.1383  0.6615  0.8791
   39POPC   H3X 5265   5.848   2.918   7.101 -0.7883  0.3846 -0.0419
   39POPC   H3Y 5266   5.696   3.024   7.113 -0.1364  2.2192  0.7216
   39POPC   C34 5267   5.865   3.088   7.227  0.2315  0.9526  0.5187
   39POPC   H4X 5268   5.827   3.191   7.245 -0.0681  0.5807  2.2354
   39POPC   H4Y 5269   5.976   3.094   7.215  0.0215  2.8291 -1.0382
   39POPC   C35 5270   5.842   3.003   7.355 -0.3670 -0.2413  0.0331
   39POPC   H5X 5271   5.868   2.895   7.351  0.8597 -0.0030  0.8812
   39POPC   H5Y 5272   5.731   3.001   7.368 -0.1740  1.8809  3.5199
   39POPC   C36 5273   5.906   3.076   7.471 -0.3856 -0.4963  0.1714
   39POPC   H6X 5274   5.879   3.182   7.491 -1.5389 -0.4030 -1.6156
   39POPC   H6Y 5275   6.011   3.097   7.441 -0.2450  0.4199  1.2486
   39POPC   C37 5276   5.917   2.991   7.604 -0.9661 -0.0221  0.2851
   39POPC   H7X 5277   6.011   3.026   7.651  0.1265 -0.5727 -1.4208
   39POPC   H7Y 5278   5.923   2.883   7.579 -0.3464  0.2563 -0.8251
   39POPC   C38 5279   5.785   3.006   7.685  0.1069  0.7898 -0.0283
   39POPC   H8X 5280   5.697   3.003   7.616  0.4297 -1.0468 -0.3991
   39POPC   H8Y 5281   5.787   3.114   7.714 -0.3544  0.8755 -0.2931
   39POPC   C39 5282   5.769   2.917   7.809  0.4720 -0.4130 -0.0574
   39POPC   H9X 5283   5.746   2.813   7.780  0.1321 -0.4993  0.4866
   39POPC   H9Y 5284   5.677   2.955   7.858 -0.4667 -0.9506 -1.3480
   39POPC  C310 5285   5.874   2.918   7.910  0.5289 -0.7968  0.1630
   39POPC  H10X 5286   5.957   2.858   7.867  1.6393  1.3865 -0.9534
   39POPC  H10Y 5287   5.830   2.865   7.997  1.8898 -2.5819 -0.1783
   39POPC  C311 5288   5.938   3.049   7.951  0.0433  0.0056  0.6024
   39POPC  H11X 5289   5.849   3.103   7.988 -0.4644 -0.8451  0.6377
   39POPC  H11Y 5290   5.979   3.104   7.863 -0.7785 -0.7453 -0.2615
   39POPC  C312 5291   6.044   3.041   8.061 -0.1724 -0.0873  0.4830
   39POPC  H12X 5292   6.133   2.995   8.012  0.2394  1.7604 -0.6063
   39POPC  H12Y 5293   6.012   2.961   8.131  0.2317 -0.6342  0.0495
   39POPC  C313 5294   6.083   3.174   8.127  0.7240  0.1705 -0.2498
   39POPC  H13X 5295   5.997   3.230   8.172  0.5432 -0.8343  0.7163
   39POPC  H13Y 5296   6.141   3.240   8.060  2.3110 -0.0962  0.8181
   39POPC  C314 5297   6.186   3.149   8.245 -0.5642  0.0972  0.1311
   39POPC  H14X 5298   6.276   3.098   8.205 -0.4990  2.1304 -2.5943
   39POPC  H14Y 5299   6.147   3.073   8.317  1.7720  0.0899  1.5024
   39POPC  C315 5300   6.224   3.265   8.325  0.1639 -0.7931  0.3944
   39POPC  H15X 5301   6.135   3.312   8.371  1.2668  0.4924  1.3386
   39POPC  H15Y 5302   6.265   3.345   8.258 -1.2650  3.6758  4.2717
   39POPC  C316 5303   6.326   3.244   8.439 -0.3516 -0.3165 -0.1730
   39POPC  H16X 5304   6.286   3.178   8.519 -1.2611  1.8522  1.2322
   39POPC  H16Y 5305   6.360   3.337   8.488  0.5572 -0.0604 -1.2287
   39POPC  H16Z 5306   6.418   3.200   8.393  0.3229  0.7582  0.1162
   40POPC     N 5307   3.889   3.809   6.318  0.7007  1.0760 -0.5994
   40POPC   C12 5308   3.997   3.878   6.396 -0.7323 -0.1664  0.1175
   40POPC  H12A 5309   4.060   3.809   6.450 -0.1819  0.6057  0.4708
   40POPC  H12B 5310   3.955   3.941   6.472  2.3094  0.5211  1.3587
   40POPC   C13 5311   3.800   3.728   6.408  0.3042  0.8911 -0.3199
   40POPC  H13A 5312   3.711   3.690   6.359  0.6613 -1.4626  0.6943
   40POPC  H13B 5313   3.866   3.647   6.436  1.7239  2.3484  0.7206
   40POPC  H13C 5314   3.770   3.786   6.493 -0.4974 -1.3782  1.0306
   40POPC   C14 5315   3.788   3.903   6.251  0.0075 -0.1938  0.3437
   40POPC  H14A 5316   3.728   3.952   6.325 -3.2272 -2.2869 -0.6887
   40POPC  H14B 5317   3.835   3.982   6.195  1.4668 -0.9333  0.4703
   40POPC  H14C 5318   3.722   3.847   6.186  1.1960 -4.0135  2.1095
   40POPC   C15 5319   3.950   3.718   6.213  0.0009 -0.0683  0.7670
   40POPC  H15A 5320   4.046   3.681   6.248  0.6524  0.4583 -0.4085
   40POPC  H15B 5321   3.972   3.763   6.117 -1.3631  1.1247  0.9750
   40POPC  H15C 5322   3.888   3.636   6.180  0.0639 -0.0714  0.6565
   40POPC   C11 5323   4.103   3.972   6.320 -0.4055  0.1100 -1.2445
   40POPC  H11A 5324   4.165   4.023   6.397 -1.2900 -0.5267 -0.0697
   40POPC  H11B 5325   4.031   4.038   6.267 -1.4138 -1.5658 -2.0536
   40POPC     P 5326   4.295   3.799   6.261 -0.1666 -0.0586  0.9390
   40POPC   O13 5327   4.371   3.768   6.138  0.0199  0.2621 -0.6040
   40POPC   O14 5328   4.234   3.693   6.339 -0.2739  0.2253 -0.2794
   40POPC   O12 5329   4.187   3.904   6.222  0.1015 -0.2400  0.7496
   40POPC   O11 5330   4.394   3.876   6.356 -0.4669  0.0286  0.3397
   40POPC    C1 5331   4.511   3.805   6.405 -0.1601  0.4596  0.1628
   40POPC    HA 5332   4.599   3.845   6.351 -0.4876 -1.3420 -1.8475
   40POPC    HB 5333   4.522   3.702   6.366  3.9445  0.8470 -0.0738
   40POPC    C2 5334   4.532   3.814   6.551  0.7309  0.0017 -0.1415
   40POPC    HS 5335   4.440   3.764   6.588  0.9493 -0.6499 -0.4523
   40POPC   O21 5336   4.531   3.949   6.587 -0.9142  0.0609 -0.0146
   40POPC   C21 5337   4.421   4.002   6.614 -0.7095  0.0287  0.2020
   40POPC   O22 5338   4.310   3.957   6.634  0.4338  0.2707 -0.4294
   40POPC   C22 5339   4.475   4.145   6.655  0.1900 -0.5656 -0.3999
   40POPC   H2R 5340   4.513   4.193   6.563  1.1762 -1.1982 -0.3352
   40POPC   H2S 5341   4.565   4.124   6.716  1.0789 -1.3212 -1.9189
   40POPC    C3 5342   4.656   3.734   6.595  0.2394  0.1019  0.0991
   40POPC    HX 5343   4.743   3.782   6.545  0.8554  0.9823  1.8884
   40POPC    HY 5344   4.647   3.626   6.573  1.9898  0.1091 -0.7783
   40POPC   O31 5345   4.681   3.754   6.734  0.2985  0.1679 -0.8071
   40POPC   C31 5346   4.595   3.694   6.817  0.3447 -0.4729 -0.6785
   40POPC   O32 5347   4.523   3.607   6.782  0.0706  0.1301 -0.4194
   40POPC   C32 5348   4.603   3.746   6.953 -0.6695 -0.2696 -1.2380
   40POPC   H2X 5349   4.578   3.854   6.950 -0.6469 -0.2401 -0.4981
   40POPC   H2Y 5350   4.701   3.720   6.997 -0.8700 -2.1950 -1.8532
   40POPC   C23 5351   4.371   4.238   6.720  0.3141 -0.8447  0.2627
   40POPC   H3R 5352   4.277   4.250   6.661  0.3007  0.3375  0.4932
   40POPC   H3S 5353   4.421   4.337   6.719  1.8460 -1.5608  1.6874
   40POPC   C24 5354   4.336   4.205   6.864  0.5282  0.2414 -0.2582
   40POPC   H4R 5355   4.279   4.110   6.870 -0.4599  0.8333 -0.0909
   40POPC   H4S 5356   4.277   4.288   6.908  0.2824  0.1940 -0.4965
   40POPC   C25 5357   4.451   4.191   6.962  0.0999  0.2437 -0.0008
   40POPC   H5R 5358   4.511   4.284   6.951 -1.8062  1.4501 -0.8285
   40POPC   H5S 5359   4.513   4.101   6.945 -0.1794 -0.5508  2.7614
   40POPC   C26 5360   4.392   4.176   7.105  0.5678 -0.0416  0.4201
   40POPC   H6R 5361   4.360   4.072   7.126 -0.5813  0.3533  0.7078
   40POPC   H6S 5362   4.299   4.236   7.107 -1.7508 -3.2721 -1.1539
   40POPC   C27 5363   4.490   4.226   7.213  0.0641 -0.1067  0.2599
   40POPC   H7R 5364   4.521   4.327   7.178 -0.5521 -0.5443 -1.6914
   40POPC   H7S 5365   4.585   4.170   7.211  0.3243  0.3362 -0.2381
   40POPC   C28 5366   4.435   4.227   7.356  0.1018 -0.6552  0.7877
   40POPC   H8R 5367   4.346   4.294   7.363  0.3809  0.1158 -1.8550
   40POPC   H8S 5368   4.512   4.268   7.424 -1.1955  2.8414  0.3574
   40POPC   C29 5369   4.394   4.084   7.386 -0.3134  0.1893 -0.5080
   40POPC   H91 5370   4.458   4.021   7.322 -1.1820  0.6009 -1.8123
   40POPC  C210 5371   4.304   4.048   7.483 -0.9770  0.3034 -0.3114
   40POPC  H101 5372   4.279   3.941   7.492 -0.4220  0.1414 -0.6188
   40POPC  C211 5373   4.223   4.135   7.575 -0.2378 -0.0861  0.0767
   40POPC  H11R 5374   4.131   4.092   7.619 -1.4645 -0.6376 -2.7778
   40POPC  H11S 5375   4.175   4.211   7.508 -2.1031 -1.1852  0.0805
   40POPC  C212 5376   4.306   4.207   7.684 -0.9805  0.5399 -0.2836
   40POPC  H12R 5377   4.241   4.280   7.738 -1.0201  0.0735  0.3105
   40POPC  H12S 5378   4.381   4.267   7.627  0.3052 -0.6220  0.1612
   40POPC  C213 5379   4.390   4.112   7.778 -0.8062 -0.5501 -0.0167
   40POPC  H13R 5380   4.496   4.112   7.747 -0.2618 -0.9066  1.7720
   40POPC  H13S 5381   4.339   4.013   7.769 -3.0206  0.5949 -0.8854
   40POPC  C214 5382   4.373   4.165   7.923 -0.1387 -0.1105 -0.4270
   40POPC  H14R 5383   4.269   4.153   7.962 -0.7295  0.3228 -1.8120
   40POPC  H14S 5384   4.393   4.274   7.918 -3.8963  0.6686 -2.4941
   40POPC  C215 5385   4.472   4.110   8.022 -0.1115 -0.7130  0.3767
   40POPC  H15R 5386   4.573   4.131   7.983  0.7496 -3.4627  0.9600
   40POPC  H15S 5387   4.468   4.000   8.034  1.5206 -1.0525 -1.6566
   40POPC  C216 5388   4.453   4.184   8.159 -0.1169  0.0894 -0.4971
   40POPC  H16R 5389   4.541   4.167   8.225  0.5995  3.0226 -0.5427
   40POPC  H16S 5390   4.357   4.150   8.205  0.3465  0.2366  0.6116
   40POPC  C217 5391   4.459   4.332   8.147 -0.2760  0.6952  0.0094
   40POPC  H17R 5392   4.358   4.358   8.109  0.0515 -0.7394 -1.9775
   40POPC  H17S 5393   4.532   4.365   8.071 -0.1574  0.5973  0.0806
   40POPC  C218 5394   4.489   4.403   8.280  0.0910 -0.6421  0.4672
   40POPC  H18R 5395   4.473   4.510   8.258 -0.2541 -0.6967  0.4357
   40POPC  H18S 5396   4.581   4.384   8.340  1.4296  1.0457 -0.9557
   40POPC  H18T 5397   4.397   4.382   8.340 -0.5925 -0.2927 -0.4446
   40POPC   C33 5398   4.503   3.676   7.048  0.3319 -0.5034  0.3364
   40POPC   H3X 5399   4.523   3.567   7.052 -2.5133 -1.0611  3.0209
   40POPC   H3Y 5400   4.397   3.687   7.017  0.5168  0.8260  0.1347
   40POPC   C34 5401   4.515   3.735   7.189 -0.3929  0.7229  0.3557
   40POPC   H4X 5402   4.496   3.844   7.180  0.9033  0.8031 -3.3850
   40POPC   H4Y 5403   4.614   3.708   7.229 -0.7880  0.7503  1.3720
   40POPC   C35 5404   4.410   3.669   7.275  0.1876 -0.0374 -0.1245
   40POPC   H5X 5405   4.405   3.559   7.257  1.9627 -0.1931  0.1770
   40POPC   H5Y 5406   4.313   3.721   7.261  1.1963  1.5448 -1.4173
   40POPC   C36 5407   4.441   3.674   7.428 -0.2626 -0.0306  0.9346
   40POPC   H6X 5408   4.475   3.778   7.448 -0.6811  0.3927 -0.4872
   40POPC   H6Y 5409   4.533   3.612   7.436  0.2228  0.7075  1.1922
   40POPC   C37 5410   4.319   3.629   7.511  0.0310  0.3783  0.0966
   40POPC   H7X 5411   4.281   3.535   7.467  2.2544 -0.6397  0.1786
   40POPC   H7Y 5412   4.253   3.717   7.523  0.7619  0.8758  0.5965
   40POPC   C38 5413   4.380   3.578   7.647  0.0568 -0.1680  0.5219
   40POPC   H8X 5414   4.486   3.546   7.637  0.8944  2.6813 -0.9083
   40POPC   H8Y 5415   4.320   3.491   7.678  1.5566 -0.6997  2.1035
   40POPC   C39 5416   4.374   3.670   7.769  0.2391  0.2918  0.4455
   40POPC   H9X 5417   4.420   3.768   7.744 -1.2808  0.3150 -2.7472
   40POPC   H9Y 5418   4.434   3.624   7.850  0.9125 -0.8747 -0.6834
   40POPC  C310 5419   4.234   3.697   7.816  0.7060  0.9354 -0.3028
   40POPC  H10X 5420   4.164   3.611   7.822  1.3699  0.4163 -0.0335
   40POPC  H10Y 5421   4.191   3.776   7.750 -2.1274 -0.5965 -0.4867
   40POPC  C311 5422   4.246   3.755   7.957 -0.5955 -0.0841  0.0688
   40POPC  H11X 5423   4.301   3.851   7.947 -2.2644  0.7298 -2.4702
   40POPC  H11Y 5424   4.296   3.684   8.026  2.9475  1.4880 -0.6266
   40POPC  C312 5425   4.108   3.797   8.006 -0.1937 -0.5691  0.2389
   40POPC  H12X 5426   4.052   3.703   8.025 -0.3623 -0.7366 -0.9901
   40POPC  H12Y 5427   4.048   3.855   7.932 -1.7446 -0.5779  1.4408
   40POPC  C313 5428   4.119   3.891   8.124  0.3116  0.1650 -0.5480
   40POPC  H13X 5429   4.178   3.984   8.111  1.4797 -0.4104  0.4329
   40POPC  H13Y 5430   4.166   3.835   8.208 -0.3607 -0.1957 -0.4024
   40POPC  C314 5431   3.968   3.946   8.152 -1.0880  0.1426  0.3208
   40POPC  H14X 5432   3.894   3.873   8.115  0.7469 -1.9457  0.5914
   40POPC  H14Y 5433   3.951   4.035   8.086 -1.6312  0.3737  0.7645
   40POPC  C315 5434   3.943   3.988   8.297  1.2969 -0.0996  0.3730
   40POPC  H15X 5435   3.839   4.029   8.294  1.4210  0.1468 -1.8595
   40POPC  H15Y 5436   4.014   4.063   8.339 -0.5976  0.6137  2.5159
   40POPC  C316 5437   3.934   3.869   8.397 -1.2668  0.4463  0.3157
   40POPC  H16X 5438   4.025   3.807   8.380 -1.9259 -0.3012 -0.5763
   40POPC  H16Y 5439   3.843   3.815   8.364 -1.1962  0.7514 -0.4049
   40POPC  H16Z 5440   3.938   3.910   8.500  1.3274 -0.7465  0.7672
   41CHL1    C3 5441   4.702   3.428   9.950 -0.0156  0.3800  0.4278
   41CHL1    H3 5442   4.811   3.444   9.935 -0.3414  1.2702 -1.2951
   41CHL1    O3 5443   4.671   3.361  10.074 -0.0247 -0.2609  0.3418
   41CHL1   H3' 5444   4.586   3.393  10.106 -0.3035 -0.0813 -0.5711
   41CHL1    C4 5445   4.627   3.558   9.953 -0.0990 -1.0981 -0.1472
   41CHL1   H4A 5446   4.519   3.547   9.975 -0.4683  1.3434 -0.5088
   41CHL1   H4B 5447   4.671   3.628  10.027  0.5361 -1.0068 -0.5967
   41CHL1    C5 5448   4.631   3.625   9.818 -0.4917  0.5438  0.2003
   41CHL1    C6 5449   4.672   3.751   9.802  0.0613  0.1156  0.1992
   41CHL1    H6 5450   4.694   3.822   9.883 -0.6956  1.8244 -1.0226
   41CHL1    C7 5451   4.660   3.831   9.672  0.0240 -0.2185 -0.1047
   41CHL1   H7A 5452   4.595   3.920   9.688 -1.1344 -0.4991 -2.7426
   41CHL1   H7B 5453   4.753   3.882   9.639 -1.6790  1.8919 -1.9910
   41CHL1    C8 5454   4.586   3.752   9.562 -0.8332  0.3707  0.2799
   41CHL1    H8 5455   4.478   3.764   9.581 -0.8611 -0.2455  0.5443
   41CHL1   C14 5456   4.631   3.808   9.425  0.2668 -0.2941 -0.8607
   41CHL1   H14 5457   4.741   3.799   9.433  0.1055 -0.4432  2.0177
   41CHL1   C15 5458   4.613   3.960   9.390 -0.0466  0.3400  0.3424
   41CHL1  H15A 5459   4.509   3.987   9.420  0.0692  0.3875  0.7084
   41CHL1  H15B 5460   4.692   4.003   9.455  0.9605 -0.2580 -0.4573
   41CHL1   C16 5461   4.642   3.970   9.236  0.5336 -0.5131 -0.5747
   41CHL1  H16A 5462   4.564   4.023   9.179  0.0410  1.1334  1.5052
   41CHL1  H16B 5463   4.741   4.020   9.228 -0.4688  2.0289  1.5297
   41CHL1   C17 5464   4.663   3.820   9.184  0.2923 -0.3363  0.3862
   41CHL1   H17 5465   4.772   3.800   9.183  0.7951  2.0382  1.0116
   41CHL1   C13 5466   4.591   3.736   9.296 -0.8523 -0.2720 -0.2225
   41CHL1   C18 5467   4.441   3.751   9.273  0.0042 -0.1439 -0.0257
   41CHL1  H18A 5468   4.378   3.720   9.360 -1.6876  1.0531 -0.7650
   41CHL1  H18B 5469   4.412   3.858   9.277  1.7596  0.3363  1.9178
   41CHL1  H18C 5470   4.407   3.707   9.177 -0.0753 -1.6161  0.6351
   41CHL1   C12 5471   4.631   3.593   9.307 -0.4403  0.7315  0.2241
   41CHL1  H12A 5472   4.592   3.533   9.222 -0.4425 -0.0267  0.7525
   41CHL1  H12B 5473   4.742   3.584   9.305 -0.3650  1.0061  1.9150
   41CHL1   C11 5474   4.575   3.535   9.441  0.0965  0.1962  0.1372
   41CHL1  H11A 5475   4.464   3.528   9.432  0.3437 -2.4503 -2.5418
   41CHL1  H11B 5476   4.602   3.427   9.446 -1.6865 -0.3040 -0.1690
   41CHL1    C9 5477   4.628   3.604   9.565  0.2345  0.4134 -0.0941
   41CHL1    H9 5478   4.738   3.601   9.549  0.0771 -0.6383 -1.1835
   41CHL1   C10 5479   4.588   3.542   9.702 -0.3547  0.5974 -0.8406
   41CHL1   C19 5480   4.437   3.526   9.718 -0.5560  0.4314  0.1881
   41CHL1  H19A 5481   4.397   3.470   9.631 -0.2036  2.7597 -1.5863
   41CHL1  H19B 5482   4.413   3.474   9.813 -0.7202  0.3455  0.1002
   41CHL1  H19C 5483   4.374   3.618   9.715 -3.2210 -1.2081  2.0374
   41CHL1    C1 5484   4.656   3.403   9.704 -0.0465  0.1791 -0.3683
   41CHL1   H1A 5485   4.600   3.339   9.632 -3.9022  1.6435  1.0794
   41CHL1   H1B 5486   4.766   3.409   9.690  0.4571 -0.9798  2.5206
   41CHL1    C2 5487   4.650   3.332   9.843 -1.3217  0.0975  0.5019
   41CHL1   H2A 5488   4.713   3.241   9.844 -1.4912 -0.0170  1.4794
   41CHL1   H2B 5489   4.548   3.291   9.859 -1.2591 -0.8717 -1.2353
   41CHL1   C20 5490   4.615   3.808   9.037  0.5437  0.3420 -0.1457
   41CHL1   H20 5491   4.507   3.835   9.033  0.2464 -0.9094 -1.5371
   41CHL1   C21 5492   4.649   3.664   8.984 -0.5637 -0.0681  0.1640
   41CHL1  H21A 5493   4.584   3.591   9.036 -1.5472  0.9478  0.4057
   41CHL1  H21B 5494   4.755   3.637   9.004 -0.1041  1.8328  0.5095
   41CHL1  H21C 5495   4.635   3.657   8.874 -1.6876  0.0256  0.2961
   41CHL1   C22 5496   4.682   3.913   8.953  0.1695  0.5517  0.5567
   41CHL1  H22A 5497   4.658   4.011   9.000  0.8913  1.5828 -1.1480
   41CHL1  H22B 5498   4.791   3.899   8.966  0.6955  3.7722  0.2924
   41CHL1   C23 5499   4.652   3.917   8.801  0.0461 -0.1204  0.1927
   41CHL1  H23A 5500   4.677   3.817   8.760  1.4175 -0.0380  0.7838
   41CHL1  H23B 5501   4.541   3.929   8.804  0.0480  0.2241 -0.9496
   41CHL1   C24 5502   4.723   4.042   8.728 -0.3650  0.0756 -0.0974
   41CHL1  H24A 5503   4.680   4.136   8.769  1.8921  1.3528 -0.5425
   41CHL1  H24B 5504   4.829   4.039   8.759 -0.0172  1.6681 -1.0300
   41CHL1   C25 5505   4.728   4.044   8.575  0.2319 -0.0588  0.0804
   41CHL1   H25 5506   4.779   3.953   8.537 -0.4123 -0.0018 -0.9683
   41CHL1   C26 5507   4.589   4.044   8.513  0.3741 -0.9613  0.1117
   41CHL1  H26A 5508   4.580   4.058   8.403  1.0811  1.1740  0.2867
   41CHL1  H26B 5509   4.537   3.950   8.544 -2.1407 -0.0897 -1.2290
   41CHL1  H26C 5510   4.529   4.132   8.546  0.4560 -0.5683 -0.7812
   41CHL1   C27 5511   4.821   4.158   8.518  0.0803  0.4163  0.2952
   41CHL1  H27A 5512   4.779   4.260   8.530 -2.4098 -0.8306  3.5721
   41CHL1  H27B 5513   4.920   4.168   8.568  1.0674 -1.1896 -1.2053
   41CHL1  H27C 5514   4.836   4.137   8.410  0.3758 -2.2530  0.7863
   42CHL1    C3 5515   1.990   1.583  10.021  0.5201  0.1482  0.1455
   42CHL1    H3 5516   1.884   1.554  10.034  0.1776  0.7529 -1.1803
   42CHL1    O3 5517   2.060   1.573  10.149 -0.5320  0.5556  0.5456
   42CHL1   H3' 5518   2.028   1.650  10.197  1.3909  1.0680  1.1084
   42CHL1    C4 5519   2.063   1.475   9.934  1.2122 -0.2140  1.2786
   42CHL1   H4A 5520   2.173   1.487   9.946  1.5444  0.1929 -1.4050
   42CHL1   H4B 5521   2.044   1.374   9.976  1.3984 -1.3818 -1.2620
   42CHL1    C5 5522   2.014   1.485   9.796 -0.5339  0.9992  0.6783
   42CHL1    C6 5523   1.960   1.381   9.733 -0.1469 -0.5050 -0.3167
   42CHL1    H6 5524   1.961   1.290   9.795  2.4971 -0.3113  0.0434
   42CHL1    C7 5525   1.912   1.380   9.590 -0.0614 -0.4453 -0.2165
   42CHL1   H7A 5526   1.946   1.290   9.533  3.5668 -0.1556  1.1691
   42CHL1   H7B 5527   1.801   1.382   9.589 -0.0691 -0.2127 -2.1869
   42CHL1    C8 5528   1.970   1.501   9.506  0.6139  0.0725 -0.2951
   42CHL1    H8 5529   2.078   1.482   9.493  0.4041 -0.0824 -2.0518
   42CHL1   C14 5530   1.913   1.508   9.365  0.1765 -0.0239  0.6388
   42CHL1   H14 5531   1.804   1.528   9.376  0.4718  2.3907 -0.1619
   42CHL1   C15 5532   1.918   1.385   9.278 -0.4250  1.0206  0.4783
   42CHL1  H15A 5533   2.017   1.335   9.287 -2.0977 -2.5034  1.0662
   42CHL1  H15B 5534   1.841   1.309   9.302 -1.5303  0.8222 -3.1093
   42CHL1   C16 5535   1.895   1.432   9.134  0.1788  0.3550  0.0564
   42CHL1  H16A 5536   1.980   1.395   9.072  0.0660  0.5613 -0.2203
   42CHL1  H16B 5537   1.806   1.389   9.084  0.6345  0.2352 -0.6559
   42CHL1   C17 5538   1.896   1.590   9.151 -0.0709  0.1370  0.0414
   42CHL1   H17 5539   1.787   1.608   9.162 -0.5858 -3.3400  2.2139
   42CHL1   C13 5540   1.966   1.625   9.286  0.0055  0.3955  0.2864
   42CHL1   C18 5541   2.116   1.609   9.273 -0.7598 -0.4050 -0.0043
   42CHL1  H18A 5542   2.173   1.625   9.367  0.0165  0.6306 -0.6376
   42CHL1  H18B 5543   2.147   1.512   9.227  2.5593  0.7355 -0.4444
   42CHL1  H18C 5544   2.166   1.681   9.205 -0.6190 -0.2716  0.2429
   42CHL1   C12 5545   1.920   1.751   9.356  0.4970 -0.2533  0.1617
   42CHL1  H12A 5546   1.955   1.836   9.293 -1.0380  0.9412  0.8740
   42CHL1  H12B 5547   1.809   1.749   9.360  0.4441  0.2977 -0.6778
   42CHL1   C11 5548   1.964   1.770   9.503  0.4322 -0.2341  1.0230
   42CHL1  H11A 5549   2.073   1.784   9.485  0.0196  0.0150 -1.6133
   42CHL1  H11B 5550   1.921   1.859   9.553 -0.3790  0.2768 -0.5291
   42CHL1    C9 5551   1.954   1.639   9.586  0.8336  0.1535 -0.5033
   42CHL1    H9 5552   1.847   1.622   9.609  1.4325  0.3643  3.0207
   42CHL1   C10 5553   2.023   1.623   9.723  0.3849 -0.7028  0.6045
   42CHL1   C19 5554   2.170   1.656   9.698  0.4512 -0.7971 -0.2879
   42CHL1  H19A 5555   2.195   1.593   9.610 -0.0124 -2.9633  1.0411
   42CHL1  H19B 5556   2.180   1.765   9.680  0.2250 -0.3514  1.9844
   42CHL1  H19C 5557   2.228   1.628   9.789  0.9461  0.7114 -0.1258
   42CHL1    C1 5558   1.954   1.723   9.820 -0.7714 -0.3429  0.3445
   42CHL1   H1A 5559   1.979   1.817   9.766  0.6183 -1.0510 -0.2914
   42CHL1   H1B 5560   1.844   1.712   9.809 -0.6391 -0.7877 -0.6939
   42CHL1    C2 5561   2.009   1.724   9.964 -0.2457  0.2509 -0.0385
   42CHL1   H2A 5562   1.966   1.807  10.024 -0.9263 -0.5713  0.6571
   42CHL1   H2B 5563   2.116   1.754   9.966  0.0665 -0.6457 -1.5338
   42CHL1   C20 5564   1.944   1.663   9.025 -0.5263 -0.2419  0.5277
   42CHL1   H20 5565   2.052   1.638   9.017 -0.4037  0.1591  0.8970
   42CHL1   C21 5566   1.937   1.819   9.034 -0.5615 -0.5078  0.0265
   42CHL1  H21A 5567   1.975   1.865   8.940 -1.5103  1.1091  0.3936
   42CHL1  H21B 5568   2.010   1.856   9.109  0.4817  0.6806 -1.5171
   42CHL1  H21C 5569   1.834   1.854   9.058 -0.2018 -1.1674  2.8842
   42CHL1   C22 5570   1.878   1.613   8.892  0.0965  0.0126  0.6657
   42CHL1  H22A 5571   1.930   1.655   8.804  0.3039 -1.4374  0.0691
   42CHL1  H22B 5572   1.886   1.502   8.898  2.5447  0.1841  1.9900
   42CHL1   C23 5573   1.730   1.659   8.883  0.1244 -0.6725  0.7786
   42CHL1  H23A 5574   1.677   1.631   8.977  1.8073 -0.0179  1.9648
   42CHL1  H23B 5575   1.749   1.768   8.869  1.3156 -1.1636 -2.1201
   42CHL1   C24 5576   1.657   1.592   8.762 -0.2287 -0.2029 -0.2532
   42CHL1  H24A 5577   1.713   1.614   8.669  1.4325 -0.4289  0.6597
   42CHL1  H24B 5578   1.671   1.483   8.780  1.3948 -0.0402 -0.3703
   42CHL1   C25 5579   1.510   1.633   8.769 -0.7594 -0.2070 -0.0514
   42CHL1   H25 5580   1.509   1.736   8.810  2.5569  0.2238 -0.7248
   42CHL1   C26 5581   1.452   1.624   8.631 -0.0643 -0.8366  0.0234
   42CHL1  H26A 5582   1.503   1.694   8.561  1.0012 -0.7582  0.8478
   42CHL1  H26B 5583   1.466   1.523   8.587  0.7873  0.0393 -1.8323
   42CHL1  H26C 5584   1.343   1.647   8.630  0.3797  1.6293  0.6432
   42CHL1   C27 5585   1.439   1.544   8.866 -0.0814  0.0620  0.1296
   42CHL1  H27A 5586   1.445   1.568   8.975  1.0154 -2.4681  0.6952
   42CHL1  H27B 5587   1.334   1.544   8.830 -0.0671 -0.7605  0.0669
   42CHL1  H27C 5588   1.477   1.441   8.852  0.2107 -0.0694  1.6714
   43CHL1    C3 5589   4.015   2.459   9.770 -0.7073 -1.2242 -0.3342
   43CHL1    H3 5590   3.909   2.426   9.760 -1.0431 -0.5392  0.8129
   43CHL1    O3 5591   4.057   2.425   9.896 -0.0030 -0.1476 -0.1081
   43CHL1   H3' 5592   4.037   2.494   9.960  0.0744  0.9973 -1.2736
   43CHL1    C4 5593   4.087   2.369   9.665 -0.3410 -0.0555  0.1506
   43CHL1   H4A 5594   4.196   2.387   9.676 -0.2502 -0.5148  0.0387
   43CHL1   H4B 5595   4.066   2.265   9.699  0.9655 -0.8157 -1.2209
   43CHL1    C5 5596   4.037   2.402   9.529 -0.3083 -1.1816 -0.2119
   43CHL1    C6 5597   3.963   2.315   9.460 -0.4035 -1.0927 -0.8440
   43CHL1    H6 5598   3.949   2.212   9.495 -2.0294 -0.4390  0.5440
   43CHL1    C7 5599   3.906   2.335   9.325 -0.9170  0.1387  0.1146
   43CHL1   H7A 5600   3.925   2.246   9.262 -0.4686 -1.7450  2.7071
   43CHL1   H7B 5601   3.796   2.343   9.345 -1.4445 -2.1786 -1.4958
   43CHL1    C8 5602   3.960   2.463   9.255  0.0226  1.2001 -0.0694
   43CHL1    H8 5603   4.056   2.429   9.210 -1.2906 -2.9183 -0.1536
   43CHL1   C14 5604   3.866   2.512   9.152  0.3529 -0.4363 -0.2447
   43CHL1   H14 5605   3.777   2.553   9.204  0.8185 -1.5579  1.5041
   43CHL1   C15 5606   3.818   2.406   9.050  0.0361  0.4790 -0.4513
   43CHL1  H15A 5607   3.911   2.349   9.027  0.7015 -1.7103  5.7124
   43CHL1  H15B 5608   3.743   2.330   9.080  2.0013 -1.0116  0.8886
   43CHL1   C16 5609   3.765   2.494   8.932  0.1503 -0.9252  0.0242
   43CHL1  H16A 5610   3.805   2.452   8.837  0.7390 -0.8784  0.2470
   43CHL1  H16B 5611   3.655   2.487   8.942  0.3454 -1.5947  2.4697
   43CHL1   C17 5612   3.808   2.640   8.950  0.4798  0.1369  0.2002
   43CHL1   H17 5613   3.720   2.693   8.993 -0.1348 -0.3555 -0.4229
   43CHL1   C13 5614   3.916   2.631   9.066 -0.2548  0.7340  0.6008
   43CHL1   C18 5615   4.052   2.592   9.003  1.1228 -0.7088  0.0761
   43CHL1  H18A 5616   4.052   2.507   8.932 -0.7516  0.5022 -1.4711
   43CHL1  H18B 5617   4.104   2.678   8.955  1.4419 -0.2401  1.2315
   43CHL1  H18C 5618   4.125   2.562   9.081  1.0588 -0.7760  0.1112
   43CHL1   C12 5619   3.924   2.750   9.162 -0.0418 -0.1044 -0.0848
   43CHL1  H12A 5620   3.965   2.844   9.121 -0.9929 -0.1507 -1.1531
   43CHL1  H12B 5621   3.822   2.778   9.195  0.2155  1.1089 -0.2985
   43CHL1   C11 5622   4.009   2.708   9.284  0.4659 -0.2780 -0.1867
   43CHL1  H11A 5623   4.113   2.702   9.248  0.9125 -2.1918  1.2288
   43CHL1  H11B 5624   4.003   2.788   9.361 -0.3838 -1.3229  0.8739
   43CHL1    C9 5625   3.975   2.578   9.354 -0.0195 -0.2556 -0.0692
   43CHL1    H9 5626   3.877   2.586   9.406  1.2406 -0.9958  2.5826
   43CHL1   C10 5627   4.062   2.543   9.485 -0.0615 -0.2608 -0.4604
   43CHL1   C19 5628   4.213   2.547   9.452  0.1232  0.6034  1.5049
   43CHL1  H19A 5629   4.280   2.526   9.538  1.3508  0.9492  0.6626
   43CHL1  H19B 5630   4.238   2.473   9.373 -0.7354 -0.2639  2.0320
   43CHL1  H19C 5631   4.241   2.645   9.407  0.9455 -0.9298 -1.5889
   43CHL1    C1 5632   4.018   2.647   9.595 -0.0590  0.6280  0.2048
   43CHL1   H1A 5633   4.069   2.738   9.556 -0.0159 -1.2082 -4.8342
   43CHL1   H1B 5634   3.908   2.662   9.581 -0.5310 -2.4849 -0.1471
   43CHL1    C2 5635   4.049   2.605   9.742  0.0438  0.0351 -0.6249
   43CHL1   H2A 5636   3.990   2.677   9.802 -0.3762 -0.7799 -0.0396
   43CHL1   H2B 5637   4.154   2.636   9.761  0.1032  0.9483 -2.2341
   43CHL1   C20 5638   3.850   2.706   8.819 -0.0560  0.5880 -0.4216
   43CHL1   H20 5639   3.936   2.646   8.782  0.2252  0.9016 -0.2829
   43CHL1   C21 5640   3.884   2.853   8.845 -0.2948  0.3177 -0.4078
   43CHL1  H21A 5641   3.803   2.894   8.909 -1.0806 -0.2713 -0.9973
   43CHL1  H21B 5642   3.907   2.914   8.754  2.1143 -0.8553 -0.6468
   43CHL1  H21C 5643   3.972   2.864   8.912  1.2734 -2.5686 -1.8230
   43CHL1   C22 5644   3.743   2.707   8.711 -0.0436  0.4743  0.0562
   43CHL1  H22A 5645   3.739   2.603   8.671 -0.4804  1.2894 -2.1486
   43CHL1  H22B 5646   3.644   2.733   8.753  0.9862 -0.2117  3.2091
   43CHL1   C23 5647   3.775   2.775   8.583  0.6300 -0.2468  0.5765
   43CHL1  H23A 5648   3.766   2.886   8.595 -0.4736 -0.0005 -1.9714
   43CHL1  H23B 5649   3.882   2.758   8.559  0.6834  1.6268 -0.7864
   43CHL1   C24 5650   3.699   2.723   8.458 -0.3070  0.1183 -0.4394
   43CHL1  H24A 5651   3.717   2.615   8.439  1.5066 -0.1539  2.2854
   43CHL1  H24B 5652   3.590   2.745   8.463  0.0104  2.2006 -1.5700
   43CHL1   C25 5653   3.744   2.783   8.324 -0.5669 -0.9266 -0.0328
   43CHL1   H25 5654   3.674   2.752   8.243  2.2319 -1.6326 -2.3900
   43CHL1   C26 5655   3.746   2.938   8.325  0.3684  0.2537  0.1442
   43CHL1  H26A 5656   3.641   2.961   8.352 -0.6317 -1.2556 -2.1681
   43CHL1  H26B 5657   3.818   2.980   8.399 -0.7110 -0.8709  1.9167
   43CHL1  H26C 5658   3.767   2.968   8.221 -0.4457 -0.8513 -0.3631
   43CHL1   C27 5659   3.883   2.732   8.285 -0.2878 -0.0313  0.5034
   43CHL1  H27A 5660   3.959   2.788   8.343  0.1613 -0.5261  0.3980
   43CHL1  H27B 5661   3.890   2.622   8.297 -0.9033 -0.3305 -1.4862
   43CHL1  H27C 5662   3.902   2.760   8.179  0.9772 -1.8903  0.1982
   44CHL1    C3 5663   4.594   1.360  10.234 -0.0133 -0.4759 -0.8148
   44CHL1    H3 5664   4.574   1.251  10.238 -0.1142 -0.7257 -4.6460
   44CHL1    O3 5665   4.596   1.404  10.367 -0.0855  0.1716 -0.0963
   44CHL1   H3' 5666   4.517   1.458  10.376 -0.9254 -1.2868  1.8805
   44CHL1    C4 5667   4.739   1.394  10.175 -0.1226  0.2665  0.0329
   44CHL1   H4A 5668   4.774   1.499  10.189 -0.3105  0.4959 -1.1199
   44CHL1   H4B 5669   4.813   1.336  10.233  0.6388  2.2848  1.2024
   44CHL1    C5 5670   4.753   1.358  10.029 -0.2077  0.2037  0.8344
   44CHL1    C6 5671   4.847   1.270   9.985  0.4481 -0.3263 -0.4184
   44CHL1    H6 5672   4.920   1.223  10.054  0.2961  0.3631  0.2278
   44CHL1    C7 5673   4.861   1.234   9.844 -0.6618  0.1807  0.4979
   44CHL1   H7A 5674   4.964   1.254   9.808 -2.1289  3.3193 -2.5763
   44CHL1   H7B 5675   4.841   1.127   9.822 -1.1249  0.1090  1.2200
   44CHL1    C8 5676   4.779   1.324   9.750  0.4068  0.3304 -0.3330
   44CHL1    H8 5677   4.826   1.424   9.748  1.2329  0.0004  0.9780
   44CHL1   C14 5678   4.769   1.270   9.605  0.4196  0.3166 -0.2851
   44CHL1   H14 5679   4.699   1.184   9.616  0.1524  0.7451  1.8798
   44CHL1   C15 5680   4.899   1.222   9.549  0.0512 -0.1630  0.6821
   44CHL1  H15A 5681   4.975   1.299   9.574 -0.6025  0.6606  0.1830
   44CHL1  H15B 5682   4.934   1.129   9.599  1.1613  0.2843  0.7589
   44CHL1   C16 5683   4.870   1.210   9.402  0.2427  0.3161  0.5729
   44CHL1  H16A 5684   4.941   1.271   9.342 -0.0869 -0.3820 -0.5564
   44CHL1  H16B 5685   4.880   1.107   9.360  1.9500  0.3946  0.7457
   44CHL1   C17 5686   4.729   1.270   9.377  0.3771  0.7917 -1.5259
   44CHL1   H17 5687   4.664   1.183   9.400  2.1601 -0.4426 -1.0027
   44CHL1   C13 5688   4.710   1.362   9.501  0.1781  1.1806  0.0601
   44CHL1   C18 5689   4.789   1.492   9.488  0.0165 -0.0610 -0.0984
   44CHL1  H18A 5690   4.899   1.480   9.471  0.3472  0.3829  1.5849
   44CHL1  H18B 5691   4.744   1.555   9.408  1.0529 -0.2093 -0.8331
   44CHL1  H18C 5692   4.782   1.559   9.576 -3.0738  0.6745 -0.8101
   44CHL1   C12 5693   4.565   1.382   9.553 -0.3805  0.1672  0.0251
   44CHL1  H12A 5694   4.523   1.464   9.491 -0.7435 -0.4769 -0.5862
   44CHL1  H12B 5695   4.506   1.290   9.535  1.4043 -0.8144 -1.0979
   44CHL1   C11 5696   4.561   1.430   9.703  0.5668  0.3903  0.2208
   44CHL1  H11A 5697   4.602   1.531   9.682 -2.5725  1.6108 -0.6151
   44CHL1  H11B 5698   4.455   1.448   9.732 -0.2592 -0.1102 -2.2189
   44CHL1    C9 5699   4.640   1.348   9.801 -0.5886  0.0018  0.2243
   44CHL1    H9 5700   4.588   1.250   9.807 -0.5956 -0.3077 -2.9489
   44CHL1   C10 5701   4.644   1.419   9.940  0.8933 -0.6806 -0.6971
   44CHL1   C19 5702   4.678   1.570   9.934  0.1033 -0.2426 -0.2673
   44CHL1  H19A 5703   4.779   1.592   9.895  0.9953  0.8792  2.4459
   44CHL1  H19B 5704   4.600   1.625   9.877  1.6947  0.2932 -2.0409
   44CHL1  H19C 5705   4.673   1.617  10.035  1.4614 -1.2008  0.2681
   44CHL1    C1 5706   4.501   1.401  10.004  0.2018  0.2904 -0.4230
   44CHL1   H1A 5707   4.421   1.467   9.963  1.4253  0.5642 -2.5316
   44CHL1   H1B 5708   4.473   1.295   9.985  0.3068  0.3369 -0.8573
   44CHL1    C2 5709   4.491   1.424  10.157  0.2277 -0.0943  0.9829
   44CHL1   H2A 5710   4.388   1.396  10.186  0.3669 -0.4439  1.1501
   44CHL1   H2B 5711   4.506   1.533  10.168  1.0493 -0.1875  0.9109
   44CHL1   C20 5712   4.712   1.334   9.238  0.0647 -0.1197  0.4088
   44CHL1   H20 5713   4.769   1.428   9.228 -0.1513 -0.1077 -0.9426
   44CHL1   C21 5714   4.559   1.356   9.222  0.3134 -0.7458 -0.4413
   44CHL1  H21A 5715   4.521   1.433   9.292 -0.4867 -1.2953 -0.2645
   44CHL1  H21B 5716   4.499   1.264   9.236 -1.7461  0.7082  0.7128
   44CHL1  H21C 5717   4.521   1.386   9.122  0.0992  0.4450 -0.0212
   44CHL1   C22 5718   4.759   1.236   9.126  0.1385 -0.2259 -0.2444
   44CHL1  H22A 5719   4.860   1.195   9.146  0.9259  1.2060 -1.1022
   44CHL1  H22B 5720   4.675   1.165   9.108 -2.8062  2.6276  1.1729
   44CHL1   C23 5721   4.779   1.307   8.992 -0.1498 -0.4156  0.7462
   44CHL1  H23A 5722   4.692   1.344   8.933  3.4157  1.5164 -3.9974
   44CHL1  H23B 5723   4.848   1.393   9.004  1.2197 -1.0993 -1.4903
   44CHL1   C24 5724   4.834   1.200   8.886 -0.7544  0.1956 -0.7536
   44CHL1  H24A 5725   4.941   1.184   8.912 -0.6371  0.9899 -0.7242
   44CHL1  H24B 5726   4.779   1.104   8.893 -0.0656 -0.0633  3.6715
   44CHL1   C25 5727   4.845   1.255   8.743  0.0705 -0.5769  0.4253
   44CHL1   H25 5728   4.888   1.357   8.739 -0.7161 -0.2034 -4.1982
   44CHL1   C26 5729   4.935   1.166   8.658 -0.3100  0.3250 -0.0949
   44CHL1  H26A 5730   4.885   1.068   8.643  0.6090 -0.3991  1.3200
   44CHL1  H26B 5731   4.948   1.209   8.557 -2.2628  4.0771  1.0570
   44CHL1  H26C 5732   5.035   1.157   8.707  1.4580  0.8773 -3.3444
   44CHL1   C27 5733   4.710   1.270   8.672  0.0620  0.0286 -0.2756
   44CHL1  H27A 5734   4.716   1.277   8.561 -0.6847 -2.3456 -0.5040
   44CHL1  H27B 5735   4.648   1.185   8.707 -0.1815  0.4595  0.3518
   44CHL1  H27C 5736   4.652   1.358   8.707 -0.1137  0.5451 -1.7690
   45CHL1    C3 5737   2.298   1.090  10.189  0.7686 -0.6723 -0.2747
   45CHL1    H3 5738   2.283   0.981  10.206  0.8619 -0.5269  0.8828
   45CHL1    O3 5739   2.311   1.147  10.318 -0.2888 -0.5815 -0.2624
   45CHL1   H3' 5740   2.239   1.113  10.372 -0.4070  1.3020  0.8811
   45CHL1    C4 5741   2.416   1.118  10.097 -0.2412 -0.2706 -0.2555
   45CHL1   H4A 5742   2.427   1.229  10.093  2.3673 -0.5104 -2.2571
   45CHL1   H4B 5743   2.511   1.087  10.145 -1.6475 -1.8911  1.6455
   45CHL1    C5 5744   2.404   1.044   9.963  0.6014  0.6703  0.2391
   45CHL1    C6 5745   2.492   0.954   9.919  0.3306  0.7676 -0.4799
   45CHL1    H6 5746   2.572   0.925   9.990 -2.0575  0.5048  2.2880
   45CHL1    C7 5747   2.486   0.890   9.788  0.2263  0.4202  0.4387
   45CHL1   H7A 5748   2.583   0.914   9.738  0.1793 -0.7707 -0.2340
   45CHL1   H7B 5749   2.475   0.781   9.804 -3.1512  0.6927  0.6222
   45CHL1    C8 5750   2.377   0.939   9.692  0.2001  0.8810  0.5486
   45CHL1    H8 5751   2.343   0.846   9.642  0.2336  1.3994 -0.4784
   45CHL1   C14 5752   2.427   1.025   9.583 -0.1062 -0.7632 -0.4688
   45CHL1   H14 5753   2.461   1.118   9.633 -1.5830 -0.9781  1.0276
   45CHL1   C15 5754   2.545   0.974   9.504  0.3431 -0.2981  0.3165
   45CHL1  H15A 5755   2.643   1.012   9.539  1.9527 -0.6570 -3.3444
   45CHL1  H15B 5756   2.541   0.863   9.498  3.0187 -0.4229 -0.9701
   45CHL1   C16 5757   2.520   1.024   9.354  0.7325  0.3424  0.1575
   45CHL1  H16A 5758   2.560   1.128   9.351  2.8024 -0.2501  2.8508
   45CHL1  H16B 5759   2.557   0.946   9.283 -0.8054 -1.9738  1.7602
   45CHL1   C17 5760   2.367   1.025   9.340  0.3443  0.1398 -0.3372
   45CHL1   H17 5761   2.342   0.917   9.329 -2.0372  0.7628 -1.8356
   45CHL1   C13 5762   2.308   1.064   9.479 -0.1908  0.0522 -0.1662
   45CHL1   C18 5763   2.289   1.214   9.479  0.1650 -0.6826  0.2005
   45CHL1  H18A 5764   2.271   1.244   9.584 -1.4970  0.7689 -0.4331
   45CHL1  H18B 5765   2.385   1.259   9.444  0.4552 -1.0856  0.4773
   45CHL1  H18C 5766   2.202   1.251   9.419  0.3223 -0.1077  0.3233
   45CHL1   C12 5767   2.180   0.985   9.519  0.0564 -0.5401  0.3679
   45CHL1  H12A 5768   2.102   1.012   9.445  0.8277 -0.4274 -0.4310
   45CHL1  H12B 5769   2.204   0.878   9.504  0.7268 -0.1934 -1.2273
   45CHL1   C11 5770   2.140   1.024   9.663  0.0166  0.2953  0.5689
   45CHL1  H11A 5771   2.108   1.130   9.669  3.4032  1.4205  0.6923
   45CHL1  H11B 5772   2.047   0.969   9.689  0.5061 -0.5553  0.5463
   45CHL1    C9 5773   2.253   0.993   9.760 -0.4983  0.1009 -0.1730
   45CHL1    H9 5774   2.216   0.904   9.816 -2.4076  0.5551 -0.6236
   45CHL1   C10 5775   2.277   1.089   9.879  0.1439 -0.2127 -0.0158
   45CHL1   C19 5776   2.293   1.234   9.838  0.3153 -0.3641 -0.4030
   45CHL1  H19A 5777   2.303   1.304   9.924 -1.3732 -0.3707 -0.1758
   45CHL1  H19B 5778   2.382   1.258   9.776  2.0518  0.4083  2.1998
   45CHL1  H19C 5779   2.197   1.267   9.794 -0.2205 -0.5115  0.6146
   45CHL1    C1 5780   2.153   1.063   9.979  0.3839 -0.0218  0.0593
   45CHL1   H1A 5781   2.058   1.103   9.939  0.7780  0.7420 -0.1398
   45CHL1   H1B 5782   2.129   0.955   9.990 -1.1106  0.0199 -2.2325
   45CHL1    C2 5783   2.172   1.132  10.118  0.8800  0.5306 -0.2363
   45CHL1   H2A 5784   2.079   1.116  10.177  0.6449  2.4280 -0.0350
   45CHL1   H2B 5785   2.174   1.242  10.105  1.0865  0.6784  0.9721
   45CHL1   C20 5786   2.303   1.083   9.204  0.6264 -0.2042 -0.7207
   45CHL1   H20 5787   2.194   1.089   9.222  0.0015 -1.7867 -3.3540
   45CHL1   C21 5788   2.316   0.971   9.094  0.1436  0.3858 -0.0458
   45CHL1  H21A 5789   2.265   1.003   9.001 -0.5008  0.6711  0.3963
   45CHL1  H21B 5790   2.261   0.882   9.133 -1.0575  1.8206  1.6659
   45CHL1  H21C 5791   2.422   0.948   9.068 -0.7228 -0.4937 -3.3048
   45CHL1   C22 5792   2.363   1.216   9.153  0.0210  0.2248 -0.4098
   45CHL1  H22A 5793   2.369   1.286   9.239  2.0080  0.8360 -0.9903
   45CHL1  H22B 5794   2.459   1.194   9.103 -1.3261 -0.9941 -2.6346
   45CHL1   C23 5795   2.281   1.284   9.040 -0.3862 -0.4057 -0.1290
   45CHL1  H23A 5796   2.270   1.214   8.955  0.2998  0.1360 -0.6812
   45CHL1  H23B 5797   2.181   1.301   9.084 -0.1819  5.3960 -1.1325
   45CHL1   C24 5798   2.334   1.420   8.993 -0.6864  1.1518 -0.4749
   45CHL1  H24A 5799   2.287   1.489   9.066 -0.6574  1.6546 -0.9262
   45CHL1  H24B 5800   2.443   1.433   9.010 -1.1006  1.8919  1.9825
   45CHL1   C25 5801   2.299   1.468   8.860  0.4810 -0.5079  1.1357
   45CHL1   H25 5802   2.189   1.464   8.851  0.3878  0.8047  1.4374
   45CHL1   C26 5803   2.346   1.612   8.830  0.6684  0.3918 -0.1497
   45CHL1  H26A 5804   2.310   1.649   8.732 -1.3682  0.1275  0.4621
   45CHL1  H26B 5805   2.295   1.683   8.899  0.0399 -1.5767  1.5157
   45CHL1  H26C 5806   2.457   1.613   8.835  0.8298  2.2507 -2.3505
   45CHL1   C27 5807   2.357   1.380   8.747  0.4737 -0.2199 -0.4207
   45CHL1  H27A 5808   2.329   1.275   8.767  0.4915 -0.0353  0.6897
   45CHL1  H27B 5809   2.309   1.407   8.651 -1.6637 -0.4600  0.5112
   45CHL1  H27C 5810   2.466   1.399   8.734  0.0394  1.4245 -2.0555
   46CHL1    C3 5811   5.803   5.883  10.065 -0.4904  0.6245  1.2306
   46CHL1    H3 5812   5.881   5.805  10.048  1.2716  2.6606 -0.6206
   46CHL1    O3 5813   5.806   5.912  10.200 -0.7042 -0.0503  0.2084
   46CHL1   H3' 5814   5.717   5.898  10.232 -0.1622 -0.7513  1.4763
   46CHL1    C4 5815   5.833   6.002   9.975  0.2222 -0.9949 -0.7253
   46CHL1   H4A 5816   5.764   6.084  10.004  2.8436  1.2206 -0.4157
   46CHL1   H4B 5817   5.933   6.025  10.018 -0.0635 -1.5347  0.2700
   46CHL1    C5 5818   5.828   5.971   9.831 -0.1603  0.3062  0.5210
   46CHL1    C6 5819   5.934   5.993   9.750 -0.1574 -0.6649  0.0641
   46CHL1    H6 5820   6.027   6.029   9.798 -0.9753 -3.2104  3.9734
   46CHL1    C7 5821   5.922   5.981   9.601 -0.4422  0.2273 -0.5165
   46CHL1   H7A 5822   5.951   6.076   9.551  0.4429 -1.1358 -2.7679
   46CHL1   H7B 5823   5.992   5.903   9.563  1.1114  1.6035 -0.5677
   46CHL1    C8 5824   5.788   5.938   9.538 -0.0879 -0.5361 -0.8285
   46CHL1    H8 5825   5.738   6.036   9.542  1.6458  0.3993 -1.0752
   46CHL1   C14 5826   5.795   5.876   9.403  0.5586 -0.2459  1.3818
   46CHL1   H14 5827   5.842   5.776   9.415  0.0995 -0.4166  1.7898
   46CHL1   C15 5828   5.876   5.953   9.292 -0.7532  0.2309 -0.4487
   46CHL1  H15A 5829   5.846   6.060   9.298 -1.9058 -0.1521  3.0881
   46CHL1  H15B 5830   5.983   5.941   9.318 -0.5900  2.7051  0.2949
   46CHL1   C16 5831   5.842   5.879   9.162  0.0438 -0.4791 -1.0132
   46CHL1  H16A 5832   5.820   5.950   9.080  0.0542  0.6409 -0.0732
   46CHL1  H16B 5833   5.926   5.810   9.138  0.2679 -0.9871  1.0531
   46CHL1   C17 5834   5.716   5.799   9.199 -0.2809  0.4706 -0.1251
   46CHL1   H17 5835   5.748   5.694   9.216  0.1662  0.6127 -0.0813
   46CHL1   C13 5836   5.664   5.854   9.330 -0.4051  0.1804  0.5019
   46CHL1   C18 5837   5.592   5.990   9.304 -0.1135  0.4120 -0.2405
   46CHL1  H18A 5838   5.490   5.971   9.266  0.2982  1.1674 -1.7662
   46CHL1  H18B 5839   5.579   6.046   9.399 -1.8525 -1.0746  0.4617
   46CHL1  H18C 5840   5.646   6.047   9.226 -0.5371  0.1087 -0.7597
   46CHL1   C12 5841   5.586   5.752   9.422 -0.6722 -0.4580 -0.2363
   46CHL1  H12A 5842   5.483   5.729   9.385 -0.6620  0.6523 -1.0058
   46CHL1  H12B 5843   5.634   5.654   9.405  0.1613 -0.1270  0.1879
   46CHL1   C11 5844   5.569   5.790   9.573 -0.1751  0.2303  0.3263
   46CHL1  H11A 5845   5.492   5.870   9.566  0.0914  0.3713 -1.4645
   46CHL1  H11B 5846   5.529   5.711   9.641  0.1859 -0.2552 -0.0196
   46CHL1    C9 5847   5.704   5.850   9.633  0.5632 -0.1506  0.4352
   46CHL1    H9 5848   5.772   5.763   9.642  0.3839 -0.1890  1.5904
   46CHL1   C10 5849   5.693   5.911   9.774 -0.3110 -0.1727  0.2479
   46CHL1   C19 5850   5.587   6.021   9.789  0.6955 -0.2859  0.0843
   46CHL1  H19A 5851   5.597   6.069   9.889  0.1756 -1.9268  0.9547
   46CHL1  H19B 5852   5.598   6.104   9.716  0.8117  1.5745  2.0900
   46CHL1  H19C 5853   5.487   5.974   9.779  0.9653 -0.7413 -0.5032
   46CHL1    C1 5854   5.651   5.798   9.869 -0.0157  0.6205 -0.1301
   46CHL1   H1A 5855   5.541   5.798   9.857  0.0010 -0.1157 -0.2994
   46CHL1   H1B 5856   5.687   5.696   9.844 -2.6191 -0.0938 -1.3275
   46CHL1    C2 5857   5.671   5.819  10.024  0.0540 -0.6554 -0.2585
   46CHL1   H2A 5858   5.657   5.724  10.079  0.1603 -0.9572 -0.7388
   46CHL1   H2B 5859   5.585   5.885  10.048 -0.5828 -1.5126 -0.1546
   46CHL1   C20 5860   5.616   5.782   9.085  0.4928 -0.3165 -0.1694
   46CHL1   H20 5861   5.555   5.874   9.081  0.9532 -0.0407 -1.3077
   46CHL1   C21 5862   5.521   5.656   9.120 -0.4522 -0.6139 -0.3105
   46CHL1  H21A 5863   5.567   5.560   9.153  1.0789 -0.0286 -0.6539
   46CHL1  H21B 5864   5.459   5.628   9.033 -0.7269  4.7316 -2.1656
   46CHL1  H21C 5865   5.452   5.689   9.200 -0.1450  0.3020 -0.4037
   46CHL1   C22 5866   5.689   5.755   8.948 -0.3241  0.3314 -0.0970
   46CHL1  H22A 5867   5.741   5.848   8.915  1.6593 -1.2090 -1.5102
   46CHL1  H22B 5868   5.767   5.678   8.965 -0.8266 -0.0290  0.6590
   46CHL1   C23 5869   5.602   5.721   8.838 -0.7352 -0.1541 -0.2648
   46CHL1  H23A 5870   5.569   5.615   8.835  0.4936 -0.5483 -0.5355
   46CHL1  H23B 5871   5.507   5.778   8.835 -0.1961  0.7359 -1.6863
   46CHL1   C24 5872   5.672   5.755   8.701  0.3906  0.1392  0.3515
   46CHL1  H24A 5873   5.697   5.861   8.721  2.4231 -0.4099  0.8756
   46CHL1  H24B 5874   5.767   5.703   8.680 -1.0747 -3.4063  1.7146
   46CHL1   C25 5875   5.561   5.739   8.584  0.0254  0.6922  0.5004
   46CHL1   H25 5876   5.463   5.767   8.628 -0.3420  1.0149 -0.4903
   46CHL1   C26 5877   5.588   5.820   8.454  0.2840  0.0022 -0.0617
   46CHL1  H26A 5878   5.494   5.826   8.395  1.2398  0.7958 -1.5727
   46CHL1  H26B 5879   5.613   5.923   8.488  1.4088 -0.9372  2.1563
   46CHL1  H26C 5880   5.654   5.760   8.388 -1.6990  0.1444 -2.3101
   46CHL1   C27 5881   5.571   5.584   8.559  0.6180  0.9862 -0.0037
   46CHL1  H27A 5882   5.669   5.554   8.516  1.5009 -2.5010  3.8005
   46CHL1  H27B 5883   5.572   5.527   8.654 -0.0153  1.6737  0.4321
   46CHL1  H27C 5884   5.486   5.538   8.505 -0.7700 -0.9131  3.4398
   47CHL1    C3 5885   4.162   6.741  10.136  0.0573  0.6260  0.6018
   47CHL1    H3 5886   4.272   6.729  10.121  0.2697  2.0453  0.8688
   47CHL1    O3 5887   4.130   6.700  10.266  0.5876  0.4023 -0.0879
   47CHL1   H3' 5888   4.038   6.725  10.273  0.2143 -1.1968  1.2472
   47CHL1    C4 5889   4.112   6.884  10.117 -0.0540 -0.1716  0.4737
   47CHL1   H4A 5890   4.009   6.899  10.156 -0.3338 -1.1132  0.1190
   47CHL1   H4B 5891   4.163   6.947  10.193 -0.6312  0.0089  0.7189
   47CHL1    C5 5892   4.130   6.930   9.981 -0.0376 -0.0893  0.2529
   47CHL1    C6 5893   4.217   7.024   9.954  0.1189  1.3102 -0.0430
   47CHL1    H6 5894   4.268   7.070  10.039 -1.6620 -0.5370  2.1705
   47CHL1    C7 5895   4.245   7.086   9.821 -0.1049  0.0569  0.5840
   47CHL1   H7A 5896   4.250   7.197   9.825  1.8695  0.0162  0.2665
   47CHL1   H7B 5897   4.342   7.048   9.783 -2.4357 -3.8568 -2.2005
   47CHL1    C8 5898   4.145   7.041   9.712  0.0335  0.5031  0.1623
   47CHL1    H8 5899   4.055   7.105   9.727 -0.6317 -0.5128  0.6106
   47CHL1   C14 5900   4.186   7.076   9.574 -0.6913 -0.4912 -0.5177
   47CHL1   H14 5901   4.288   7.037   9.554  2.1788  4.8234  1.8160
   47CHL1   C15 5902   4.216   7.225   9.548 -0.7984  0.2997  0.3687
   47CHL1  H15A 5903   4.129   7.280   9.590 -1.0727  0.1861 -0.0434
   47CHL1  H15B 5904   4.304   7.271   9.596  1.5309 -2.4886 -0.9044
   47CHL1   C16 5905   4.227   7.225   9.387  1.0201  0.5369  0.1291
   47CHL1  H16A 5906   4.158   7.308   9.358  0.0166  1.0846  3.6213
   47CHL1  H16B 5907   4.324   7.260   9.345 -0.5880  2.9663 -1.9102
   47CHL1   C17 5908   4.159   7.095   9.336  0.1780 -0.8111  0.0017
   47CHL1   H17 5909   4.247   7.035   9.306  1.5900  1.6090 -0.9799
   47CHL1   C13 5910   4.096   7.041   9.464  0.0213  0.4205 -0.4585
   47CHL1   C18 5911   3.956   7.113   9.473  0.4999 -0.0658  0.2387
   47CHL1  H18A 5912   3.883   7.088   9.393  1.0508 -0.9708  0.0050
   47CHL1  H18B 5913   3.901   7.103   9.569 -1.6867  1.3563 -0.7633
   47CHL1  H18C 5914   3.961   7.224   9.470  2.3307  0.0277  3.3398
   47CHL1   C12 5915   4.077   6.884   9.466  0.5912 -0.1517  0.0390
   47CHL1  H12A 5916   3.990   6.863   9.400 -0.8686  3.7820  0.4110
   47CHL1  H12B 5917   4.166   6.826   9.435  0.7908  1.2258 -2.1179
   47CHL1   C11 5918   4.026   6.842   9.604  0.3375 -0.2492  0.7053
   47CHL1  H11A 5919   3.927   6.891   9.603 -0.7990 -2.4256  0.1579
   47CHL1  H11B 5920   4.002   6.734   9.598  1.1130 -0.4074  0.2507
   47CHL1    C9 5921   4.112   6.885   9.721 -0.2572  0.0489  0.7726
   47CHL1    H9 5922   4.206   6.827   9.703 -0.3039  0.7691 -2.4360
   47CHL1   C10 5923   4.069   6.843   9.863  0.0690  0.5239  0.5998
   47CHL1   C19 5924   3.917   6.872   9.866  0.0772 -0.0989  0.5139
   47CHL1  H19A 5925   3.887   6.850   9.970  3.1216 -1.2972  1.2376
   47CHL1  H19B 5926   3.896   6.975   9.828 -0.0134 -0.6623 -1.0528
   47CHL1  H19C 5927   3.863   6.792   9.810  0.5394 -0.9629  1.2760
   47CHL1    C1 5928   4.098   6.698   9.891 -0.6145  0.8293 -0.4917
   47CHL1   H1A 5929   4.016   6.639   9.845  0.1132 -0.5595 -0.0574
   47CHL1   H1B 5930   4.199   6.661   9.863 -0.4792 -1.1737  2.2212
   47CHL1    C2 5931   4.087   6.647  10.036  0.3096 -0.1067 -0.3336
   47CHL1   H2A 5932   4.122   6.543  10.049  0.7166  0.2088  1.4418
   47CHL1   H2B 5933   3.983   6.657  10.074  0.8681 -2.2084  2.0618
   47CHL1   C20 5934   4.078   7.121   9.203 -0.2147  0.8317 -0.1569
   47CHL1   H20 5935   4.002   7.195   9.235 -2.1543 -1.4394  0.7596
   47CHL1   C21 5936   4.009   6.990   9.148 -0.4672  0.4153  0.2065
   47CHL1  H21A 5937   3.928   6.957   9.216  0.6790 -0.6817  1.0808
   47CHL1  H21B 5938   4.081   6.906   9.137 -0.4085  0.5919 -0.9283
   47CHL1  H21C 5939   3.980   7.017   9.044  2.0700 -1.4939 -1.1125
   47CHL1   C22 5940   4.166   7.184   9.097 -0.6798  0.4909  0.1546
   47CHL1  H22A 5941   4.254   7.232   9.143 -1.7188  2.0690  0.5595
   47CHL1  H22B 5942   4.204   7.113   9.020  0.7675  2.0333 -0.6044
   47CHL1   C23 5943   4.100   7.305   9.023  0.1583 -0.5276  0.0350
   47CHL1  H23A 5944   4.019   7.265   8.958 -2.5350  1.3359  2.0511
   47CHL1  H23B 5945   4.051   7.381   9.088 -3.0043 -1.6234 -0.8859
   47CHL1   C24 5946   4.191   7.371   8.921 -0.1361  1.0303 -0.4123
   47CHL1  H24A 5947   4.296   7.376   8.957 -0.1097  0.8725 -0.4640
   47CHL1  H24B 5948   4.195   7.308   8.830 -0.0580 -0.8182  0.8011
   47CHL1   C25 5949   4.156   7.512   8.878  0.0122 -0.0312  0.6442
   47CHL1   H25 5950   4.054   7.514   8.833  0.5198  0.8219 -0.5178
   47CHL1   C26 5951   4.161   7.612   9.000 -0.1746  0.2706  0.2926
   47CHL1  H26A 5952   4.068   7.670   8.988  0.2137  0.5942 -1.3493
   47CHL1  H26B 5953   4.238   7.689   8.981 -0.3611  0.7598  1.4485
   47CHL1  H26C 5954   4.172   7.562   9.099 -0.5125  0.1951  0.2933
   47CHL1   C27 5955   4.253   7.561   8.775  0.0694  0.6524  0.0264
   47CHL1  H27A 5956   4.351   7.593   8.816 -0.3574 -2.1444  3.8054
   47CHL1  H27B 5957   4.275   7.492   8.690 -0.7538  5.0109 -4.1223
   47CHL1  H27C 5958   4.201   7.645   8.724  1.5397 -0.1276 -3.0053
   48CHL1    C3 5959   4.432   2.011   9.975 -0.4076  0.1127  0.5637
   48CHL1    H3 5960   4.535   2.050   9.963 -0.7522  0.3853 -1.9083
   48CHL1    O3 5961   4.398   2.007  10.114 -0.3135 -0.0411 -0.0971
   48CHL1   H3' 5962   4.458   1.945  10.156 -1.5506 -3.1811 -2.5709
   48CHL1    C4 5963   4.332   2.088   9.892  0.5946  0.2490 -0.1688
   48CHL1   H4A 5964   4.232   2.039   9.894 -0.6189  2.5363 -1.0667
   48CHL1   H4B 5965   4.321   2.193   9.927  0.1257  0.2373 -0.2779
   48CHL1    C5 5966   4.365   2.083   9.741 -0.3528 -0.1609 -0.4971
   48CHL1    C6 5967   4.382   2.185   9.662  0.3595  0.4066  0.4768
   48CHL1    H6 5968   4.377   2.281   9.714  0.0793 -0.4300  2.0479
   48CHL1    C7 5969   4.410   2.184   9.512 -0.1603  0.9170  0.1891
   48CHL1   H7A 5970   4.340   2.253   9.459  0.1923  2.4762  1.6365
   48CHL1   H7B 5971   4.513   2.209   9.479 -0.3765 -2.4351 -3.8405
   48CHL1    C8 5972   4.392   2.041   9.455  0.4686  0.2938  0.3123
   48CHL1    H8 5973   4.282   2.026   9.449 -0.0757  2.3372  3.2706
   48CHL1   C14 5974   4.456   2.033   9.321 -0.3826 -0.0003  0.2161
   48CHL1   H14 5975   4.562   2.046   9.350  0.1245 -1.1561 -1.0319
   48CHL1   C15 5976   4.423   2.126   9.212  1.3685 -0.4151 -0.3526
   48CHL1  H15A 5977   4.317   2.159   9.212  1.1877 -0.9100 -1.6226
   48CHL1  H15B 5978   4.485   2.216   9.234 -0.7513  1.2044 -0.6574
   48CHL1   C16 5979   4.483   2.066   9.083 -0.2604  0.0883 -0.4463
   48CHL1  H16A 5980   4.407   2.084   9.004 -1.6916  0.1871  0.9036
   48CHL1  H16B 5981   4.571   2.128   9.057  0.4447 -1.2947 -1.5231
   48CHL1   C17 5982   4.514   1.918   9.119  0.1095  0.6784  0.1298
   48CHL1   H17 5983   4.618   1.930   9.157 -0.1841 -0.7454  1.4874
   48CHL1   C13 5984   4.453   1.893   9.256 -1.0425  0.2654  0.5057
   48CHL1   C18 5985   4.303   1.849   9.222 -0.3269  0.0074 -0.6042
   48CHL1  H18A 5986   4.233   1.921   9.174 -1.5281 -0.5020  0.3172
   48CHL1  H18B 5987   4.311   1.747   9.177 -0.0561 -0.1186 -0.2683
   48CHL1  H18C 5988   4.256   1.823   9.319 -0.3739 -2.0077 -1.1120
   48CHL1   C12 5989   4.532   1.798   9.347 -0.0185  0.2866  0.9268
   48CHL1  H12A 5990   4.531   1.699   9.297 -1.2705  0.4161  0.6526
   48CHL1  H12B 5991   4.637   1.833   9.353 -0.3662  1.7852 -0.8619
   48CHL1   C11 5992   4.463   1.792   9.486 -0.6564  0.0377 -0.1164
   48CHL1  H11A 5993   4.363   1.746   9.479  0.0039 -1.6090  0.7952
   48CHL1  H11B 5994   4.522   1.726   9.552  0.0038 -0.3295 -1.0519
   48CHL1    C9 5995   4.452   1.937   9.545 -0.1054 -0.2536  0.1808
   48CHL1    H9 5996   4.556   1.971   9.566 -0.2384 -0.5179  1.2947
   48CHL1   C10 5997   4.383   1.937   9.687  0.2586 -0.4766  1.0275
   48CHL1   C19 5998   4.241   1.872   9.671 -0.1317  0.3478 -0.6966
   48CHL1  H19A 5999   4.182   1.942   9.608  0.0782  0.5733 -0.6436
   48CHL1  H19B 6000   4.239   1.768   9.633 -1.0579 -0.0531  0.3658
   48CHL1  H19C 6001   4.203   1.854   9.774  0.0930 -1.4303 -0.8912
   48CHL1    C1 6002   4.474   1.852   9.784 -0.1461 -0.0306  0.5447
   48CHL1   H1A 6003   4.459   1.746   9.757 -3.6824  0.6958 -0.9553
   48CHL1   H1B 6004   4.582   1.877   9.781 -0.1268  0.6149  3.6395
   48CHL1    C2 6005   4.436   1.865   9.928 -0.2470  0.0611  0.5789
   48CHL1   H2A 6006   4.507   1.814   9.996 -0.3764  2.2026  2.4555
   48CHL1   H2B 6007   4.340   1.811   9.946  0.1401 -1.1682 -0.8423
   48CHL1   C20 6008   4.504   1.827   8.989  0.6619  0.2450 -0.1780
   48CHL1   H20 6009   4.400   1.825   8.950  0.7540 -0.2517 -0.4050
   48CHL1   C21 6010   4.546   1.685   9.021  0.5954 -0.3208 -0.4540
   48CHL1  H21A 6011   4.531   1.619   8.933 -0.0612  1.1473 -1.4986
   48CHL1  H21B 6012   4.496   1.633   9.105  0.1913 -1.0066 -1.0989
   48CHL1  H21C 6013   4.656   1.688   9.038  0.6449  0.1938 -0.8143
   48CHL1   C22 6014   4.582   1.889   8.877 -0.2367  0.1671 -0.2451
   48CHL1  H22A 6015   4.531   1.986   8.856 -2.8092 -0.7658  1.1880
   48CHL1  H22B 6016   4.681   1.908   8.924  0.5949 -2.1089 -0.9930
   48CHL1   C23 6017   4.582   1.821   8.744  0.2419 -0.5673  0.1239
   48CHL1  H23A 6018   4.635   1.876   8.663 -1.3966 -0.4708 -0.9118
   48CHL1  H23B 6019   4.630   1.721   8.744  0.4335 -0.4765 -0.3116
   48CHL1   C24 6020   4.442   1.811   8.680  0.1721 -0.3681  0.0819
   48CHL1  H24A 6021   4.379   1.730   8.722  1.4793 -1.1303  0.6684
   48CHL1  H24B 6022   4.393   1.904   8.714 -1.9371 -2.2591  2.6320
   48CHL1   C25 6023   4.439   1.813   8.527 -0.4077  0.6610  0.4199
   48CHL1   H25 6024   4.475   1.913   8.496 -1.7730  0.5436 -1.7557
   48CHL1   C26 6025   4.546   1.709   8.472 -0.2149 -0.3939 -0.0387
   48CHL1  H26A 6026   4.536   1.691   8.363  2.9911 -1.9888 -0.1907
   48CHL1  H26B 6027   4.647   1.746   8.499 -1.3394  1.3748  2.0073
   48CHL1  H26C 6028   4.529   1.612   8.524  1.6774 -1.0250 -0.5073
   48CHL1   C27 6029   4.304   1.786   8.473  0.5846  0.5055  0.5365
   48CHL1  H27A 6030   4.311   1.795   8.362  0.7014  1.2488  0.5993
   48CHL1  H27B 6031   4.259   1.689   8.502 -0.8741  1.7319  2.7203
   48CHL1  H27C 6032   4.234   1.865   8.509 -0.8582  0.5327 -2.0537
   49CHL1    C3 6033   4.297   5.958  10.082 -0.0171  0.3728  0.6297
   49CHL1    H3 6034   4.284   6.060  10.039 -1.3160 -0.3344 -0.7114
   49CHL1    O3 6035   4.325   5.978  10.222 -0.4571  0.1962  0.1496
   49CHL1   H3' 6036   4.307   5.894  10.265  1.0842 -0.0723  0.3500
   49CHL1    C4 6037   4.173   5.866  10.064 -0.2450  0.2877 -0.2573
   49CHL1   H4A 6038   4.203   5.768  10.108 -2.5616 -0.2708  0.2197
   49CHL1   H4B 6039   4.086   5.907  10.119  0.3911  0.1217  0.9058
   49CHL1    C5 6040   4.144   5.855   9.919 -0.2051  0.9931  0.4546
   49CHL1    C6 6041   4.022   5.898   9.876 -0.0439  0.4228  0.1949
   49CHL1    H6 6042   3.956   5.940   9.953 -0.6559  0.0602 -0.1249
   49CHL1    C7 6043   3.985   5.908   9.732 -0.2692  0.0613  0.0492
   49CHL1   H7A 6044   3.880   5.877   9.715 -0.8014  1.5986  0.4305
   49CHL1   H7B 6045   3.971   6.015   9.706  0.9337  0.2246  0.0308
   49CHL1    C8 6046   4.087   5.840   9.631 -0.3836  1.0262 -0.4311
   49CHL1    H8 6047   4.063   5.732   9.643  0.0115  1.0385  0.5288
   49CHL1   C14 6048   4.068   5.901   9.496 -0.6533 -0.2298 -0.2699
   49CHL1   H14 6049   4.105   6.005   9.499  2.8979 -1.3895  0.0427
   49CHL1   C15 6050   3.920   5.908   9.452  1.0309 -0.2142 -0.2562
   49CHL1  H15A 6051   3.869   5.816   9.486 -0.2564  0.0202 -1.4797
   49CHL1  H15B 6052   3.872   5.996   9.498  0.2129 -0.7227 -0.1207
   49CHL1   C16 6053   3.929   5.918   9.298 -0.3832  0.3937  0.0320
   49CHL1  H16A 6054   3.884   5.827   9.253  0.0297 -0.1651  0.7393
   49CHL1  H16B 6055   3.876   6.006   9.254  0.1537  0.4195 -0.5707
   49CHL1   C17 6056   4.087   5.908   9.262 -0.7317  0.9686 -0.2019
   49CHL1   H17 6057   4.115   6.015   9.263  1.1125  0.5128 -0.0831
   49CHL1   C13 6058   4.151   5.844   9.387 -0.3220 -0.0690  0.2459
   49CHL1   C18 6059   4.140   5.687   9.387 -0.5335  0.3821 -0.4243
   49CHL1  H18A 6060   4.163   5.640   9.484  0.5681 -1.5983 -1.5765
   49CHL1  H18B 6061   4.051   5.637   9.343 -0.4000  0.3275 -0.6336
   49CHL1  H18C 6062   4.219   5.655   9.316 -0.5072 -0.4580 -0.0181
   49CHL1   C12 6063   4.298   5.889   9.428 -0.3994  0.6561  0.3653
   49CHL1  H12A 6064   4.373   5.844   9.359 -1.1233 -0.0207  0.0049
   49CHL1  H12B 6065   4.292   5.997   9.402 -2.0791  0.3861 -0.5536
   49CHL1   C11 6066   4.329   5.841   9.573  0.1580 -0.1052  0.5752
   49CHL1  H11A 6067   4.358   5.734   9.574 -0.2953 -0.2362  0.2763
   49CHL1  H11B 6068   4.416   5.899   9.610  2.2210 -2.8332  0.2130
   49CHL1    C9 6069   4.228   5.874   9.680 -0.8382 -0.7617 -0.1932
   49CHL1    H9 6070   4.222   5.983   9.700  2.2213 -0.1293 -1.9948
   49CHL1   C10 6071   4.262   5.814   9.820  0.1347  0.8260  0.4194
   49CHL1   C19 6072   4.294   5.666   9.820 -0.4270  0.6974  0.0642
   49CHL1  H19A 6073   4.373   5.629   9.751  0.5285 -0.4242  1.6947
   49CHL1  H19B 6074   4.331   5.624   9.916  2.4718 -0.3500 -1.3917
   49CHL1  H19C 6075   4.213   5.604   9.777  0.2734 -0.4643  0.3870
   49CHL1    C1 6076   4.393   5.887   9.867 -0.2540  0.4575 -0.0551
   49CHL1   H1A 6077   4.482   5.841   9.819 -0.8271 -1.5965  0.7447
   49CHL1   H1B 6078   4.390   5.995   9.839 -0.9808  0.2874 -0.6563
   49CHL1    C2 6079   4.414   5.883  10.013  0.1234 -0.6416 -1.0850
   49CHL1   H2A 6080   4.511   5.929  10.039 -0.4525  0.3287 -0.6041
   49CHL1   H2B 6081   4.415   5.777  10.046 -0.8662 -0.6703 -1.1281
   49CHL1   C20 6082   4.109   5.843   9.125  0.4950  0.1189 -0.0320
   49CHL1   H20 6083   4.094   5.734   9.131 -1.4045  0.3840  0.5584
   49CHL1   C21 6084   4.253   5.870   9.088  0.2267  0.1554  0.1309
   49CHL1  H21A 6085   4.320   5.800   9.143 -0.4540 -1.1111 -0.6172
   49CHL1  H21B 6086   4.281   5.977   9.094 -2.4390  0.9478 -0.2295
   49CHL1  H21C 6087   4.273   5.824   8.989 -0.0241 -0.3824  0.3223
   49CHL1   C22 6088   4.017   5.909   9.016  0.2961  0.0345  0.4714
   49CHL1  H22A 6089   3.911   5.904   9.049  0.4768 -2.7715  0.8631
   49CHL1  H22B 6090   4.050   6.013   8.997  1.4345 -0.0219  1.9856
   49CHL1   C23 6091   4.012   5.829   8.879 -0.5259  0.2587 -0.4749
   49CHL1  H23A 6092   4.115   5.796   8.854 -0.5011 -0.1917  0.1971
   49CHL1  H23B 6093   3.943   5.743   8.892  0.2429 -0.2181  0.5808
   49CHL1   C24 6094   3.955   5.925   8.769  0.7706 -0.0325 -0.7305
   49CHL1  H24A 6095   3.856   5.959   8.807  0.3048 -0.7693 -1.2332
   49CHL1  H24B 6096   4.016   6.014   8.744  0.4287 -0.3884 -3.0851
   49CHL1   C25 6097   3.936   5.849   8.635 -0.6974 -0.7341 -0.1941
   49CHL1   H25 6098   3.889   5.749   8.652  1.0807 -1.3779  1.2773
   49CHL1   C26 6099   3.868   5.930   8.528  0.1490 -0.5985 -0.4099
   49CHL1  H26A 6100   3.923   6.026   8.518  1.0792 -1.0141  0.6291
   49CHL1  H26B 6101   3.876   5.875   8.432  0.8959  0.2878 -0.8716
   49CHL1  H26C 6102   3.759   5.946   8.546 -0.4687 -0.7503 -3.4049
   49CHL1   C27 6103   4.083   5.820   8.582  0.2917 -0.2428 -1.2265
   49CHL1  H27A 6104   4.132   5.751   8.654  1.0711  2.3334  0.8288
   49CHL1  H27B 6105   4.082   5.770   8.482 -1.3146 -1.1229 -0.8096
   49CHL1  H27C 6106   4.144   5.912   8.581  0.3705 -0.2213  1.0185
   50CHL1    C3 6107   0.538   0.701  10.130  0.4141  0.1526  0.3366
   50CHL1    H3 6108   0.567   0.803  10.098 -2.6584  1.0610  0.0933
   50CHL1    O3 6109   0.593   0.666  10.252  0.6148 -0.0032  0.4134
   50CHL1   H3' 6110   0.532   0.610  10.301  1.9244 -0.6611  1.3212
   50CHL1    C4 6111   0.387   0.708  10.142  0.0139  0.1611 -0.7012
   50CHL1   H4A 6112   0.364   0.610  10.189  1.9685 -0.6778 -1.3978
   50CHL1   H4B 6113   0.367   0.784  10.220 -1.4672 -1.0716  0.1720
   50CHL1    C5 6114   0.315   0.729  10.014  0.1167 -0.0177  0.4096
   50CHL1    C6 6115   0.220   0.820  10.003  0.0041  0.5606  0.4830
   50CHL1    H6 6116   0.194   0.886  10.088 -3.2214  2.1589 -1.5411
   50CHL1    C7 6117   0.120   0.825   9.890 -0.0499 -0.2208  0.2280
   50CHL1   H7A 6118   0.018   0.822   9.935  0.2522  3.1274  1.4382
   50CHL1   H7B 6119   0.132   0.922   9.837  1.9294 -0.6627 -0.2009
   50CHL1    C8 6120   0.139   0.710   9.788  0.1240 -0.2092  0.3551
   50CHL1    H8 6121   0.094   0.616   9.826  1.2852 -1.3473 -0.9667
   50CHL1   C14 6122   0.076   0.741   9.655  0.2794 -0.7070  0.5222
   50CHL1   H14 6123   0.116   0.837   9.617 -0.3424 -0.0107  1.5494
   50CHL1   C15 6124  -0.077   0.776   9.656 -1.0128  0.7543 -0.4535
   50CHL1  H15A 6125  -0.140   0.712   9.722  1.2908  0.0723  1.2024
   50CHL1  H15B 6126  -0.088   0.878   9.699  0.3379  0.0373  1.7980
   50CHL1   C16 6127  -0.124   0.742   9.514  0.3333 -0.6913 -0.6384
   50CHL1  H16A 6128  -0.215   0.679   9.503 -0.5681  0.4601 -0.0045
   50CHL1  H16B 6129  -0.170   0.833   9.471  1.1354  1.0566  1.9461
   50CHL1   C17 6130   0.004   0.695   9.432  0.3406 -1.2755 -0.3443
   50CHL1   H17 6131   0.057   0.785   9.395 -0.2492 -1.2992 -1.2762
   50CHL1   C13 6132   0.096   0.635   9.538 -0.2957 -0.0136  0.0156
   50CHL1   C18 6133   0.033   0.497   9.584  0.0774 -0.0245  0.1358
   50CHL1  H18A 6134  -0.068   0.513   9.628  1.0965  2.9703  1.7094
   50CHL1  H18B 6135   0.011   0.425   9.503 -1.0046 -0.3665  0.7173
   50CHL1  H18C 6136   0.091   0.440   9.659  0.0198 -1.6821 -1.0333
   50CHL1   C12 6137   0.250   0.620   9.513 -0.1242 -0.2990  0.2058
   50CHL1  H12A 6138   0.265   0.544   9.433 -1.1230 -0.4920  0.1912
   50CHL1  H12B 6139   0.307   0.711   9.483  0.0653  0.0802  1.6764
   50CHL1   C11 6140   0.320   0.580   9.643 -0.6447 -0.0018 -0.1405
   50CHL1  H11A 6141   0.297   0.474   9.668  0.9178  0.1013  2.0085
   50CHL1  H11B 6142   0.430   0.567   9.630 -0.3190  1.9605  0.4509
   50CHL1    C9 6143   0.286   0.679   9.764 -1.4447  1.0631  0.4109
   50CHL1    H9 6144   0.341   0.771   9.735 -1.3972  0.8349 -0.2426
   50CHL1   C10 6145   0.349   0.628   9.902  0.1585  0.5928 -0.0800
   50CHL1   C19 6146   0.300   0.478   9.935  0.6493 -0.4949 -0.6245
   50CHL1  H19A 6147   0.332   0.412   9.852 -0.9900 -1.6716 -0.3808
   50CHL1  H19B 6148   0.348   0.447  10.030  0.4143  0.9125 -0.0181
   50CHL1  H19C 6149   0.189   0.474   9.947  0.2649  2.1558 -2.4118
   50CHL1    C1 6150   0.499   0.627   9.889  0.4751 -0.2724  0.6132
   50CHL1   H1A 6151   0.525   0.539   9.825  2.3867 -1.5056  2.9073
   50CHL1   H1B 6152   0.539   0.718   9.839  0.6209 -1.1677 -0.9602
   50CHL1    C2 6153   0.575   0.599  10.024  0.4482 -0.0264 -0.3101
   50CHL1   H2A 6154   0.684   0.611  10.007  0.5245 -0.3632 -0.0509
   50CHL1   H2B 6155   0.559   0.490  10.038 -0.9293 -0.2097 -2.7228
   50CHL1   C20 6156  -0.039   0.616   9.304  1.1383  0.6618  0.1864
   50CHL1   H20 6157  -0.092   0.523   9.336 -1.7651  2.5063  1.1019
   50CHL1   C21 6158   0.089   0.563   9.232  0.7094  0.4527 -0.8144
   50CHL1  H21A 6159   0.145   0.656   9.206  0.0226  1.2622  0.4685
   50CHL1  H21B 6160   0.067   0.514   9.135  0.2738  0.3584 -0.6673
   50CHL1  H21C 6161   0.149   0.492   9.293  0.3906  0.1669 -0.8355
   50CHL1   C22 6162  -0.140   0.686   9.208 -0.1569 -0.2783 -0.0482
   50CHL1  H22A 6163  -0.162   0.618   9.122  5.7889 -2.7284 -0.0998
   50CHL1  H22B 6164  -0.233   0.710   9.265  1.0744  0.3612  1.7658
   50CHL1   C23 6165  -0.087   0.821   9.149  0.5773 -0.2470 -0.0154
   50CHL1  H23A 6166  -0.071   0.879   9.243 -2.2768 -0.9554  0.9879
   50CHL1  H23B 6167   0.007   0.810   9.090  1.6599 -0.5198  1.6643
   50CHL1   C24 6168  -0.183   0.899   9.055 -0.5533 -0.1182 -0.4300
   50CHL1  H24A 6169  -0.275   0.908   9.115  0.3228 -0.3512  0.9933
   50CHL1  H24B 6170  -0.148   1.002   9.032 -0.9318  1.0845  3.6294
   50CHL1   C25 6171  -0.212   0.817   8.928  0.1754 -0.5262 -0.3070
   50CHL1   H25 6172  -0.247   0.718   8.962  0.3652  0.0500  1.7204
   50CHL1   C26 6173  -0.333   0.879   8.856 -0.0002 -0.1383 -0.2500
   50CHL1  H26A 6174  -0.352   0.827   8.759  3.6000 -0.8287 -0.7266
   50CHL1  H26B 6175  -0.418   0.881   8.927  0.1868  0.6332 -0.0390
   50CHL1  H26C 6176  -0.303   0.983   8.830  0.6981  0.4159  2.4571
   50CHL1   C27 6177  -0.082   0.794   8.842  0.0064 -0.1017 -0.0084
   50CHL1  H27A 6178  -0.023   0.884   8.815 -0.4737  0.3720  0.5080
   50CHL1  H27B 6179  -0.015   0.721   8.893 -0.2055 -0.4964 -0.2985
   50CHL1  H27C 6180  -0.116   0.748   8.747 -1.0829 -2.6903  1.5476
   51CHL1    C3 6181   2.559   1.984  10.288 -0.4403 -0.9289 -0.7524
   51CHL1    H3 6182   2.543   2.091  10.310  2.6177 -0.6087  0.5125
   51CHL1    O3 6183   2.618   1.923  10.398  0.7246 -0.0049 -0.3155
   51CHL1   H3' 6184   2.709   1.905  10.373  0.5262  0.3511 -1.3653
   51CHL1    C4 6185   2.422   1.929  10.246 -0.1187  0.1770  0.8430
   51CHL1   H4A 6186   2.436   1.819  10.234  3.5130  0.4248  1.4778
   51CHL1   H4B 6187   2.348   1.932  10.329 -0.6917 -2.6417  0.5302
   51CHL1    C5 6188   2.372   1.988  10.120 -0.5952 -0.9656 -0.2780
   51CHL1    C6 6189   2.243   2.036  10.109  0.3088  0.5011 -0.0736
   51CHL1    H6 6190   2.182   2.032  10.201 -0.4640 -0.8859 -0.6222
   51CHL1    C7 6191   2.185   2.093   9.981 -0.1696 -0.4067  0.7443
   51CHL1   H7A 6192   2.082   2.054   9.965  0.0409 -0.3320 -1.0687
   51CHL1   H7B 6193   2.180   2.203   9.995 -0.6624 -0.4978  1.3043
   51CHL1    C8 6194   2.267   2.055   9.862 -0.2157  0.2892 -0.4854
   51CHL1    H8 6195   2.246   1.947   9.851 -4.4749  1.1114 -2.5793
   51CHL1   C14 6196   2.224   2.143   9.742 -1.4099  0.0766  0.0698
   51CHL1   H14 6197   2.242   2.249   9.773 -0.8320  0.5092 -1.6599
   51CHL1   C15 6198   2.076   2.130   9.714 -0.4569  0.1495  0.5533
   51CHL1  H15A 6199   2.057   2.021   9.711  1.4212 -0.2411  1.1888
   51CHL1  H15B 6200   1.999   2.169   9.785 -1.5138 -0.2937 -0.3261
   51CHL1   C16 6201   2.064   2.183   9.565 -0.4303  0.1330 -0.4890
   51CHL1  H16A 6202   2.018   2.103   9.503  0.4917 -0.0448 -0.9553
   51CHL1  H16B 6203   1.992   2.264   9.541 -1.7158 -1.0033 -0.6057
   51CHL1   C17 6204   2.205   2.216   9.516 -0.5581  0.2089 -0.2952
   51CHL1   H17 6205   2.206   2.319   9.558  0.7518  1.1969 -2.5143
   51CHL1   C13 6206   2.307   2.131   9.611 -0.0977 -0.1448  0.0195
   51CHL1   C18 6207   2.301   1.985   9.548 -0.4707  0.1944  0.3874
   51CHL1  H18A 6208   2.194   1.957   9.540 -0.4666  0.4995 -1.0100
   51CHL1  H18B 6209   2.332   1.992   9.442  1.4028  0.6490  0.9168
   51CHL1  H18C 6210   2.358   1.911   9.608 -2.3593 -0.6570  1.1997
   51CHL1   C12 6211   2.451   2.171   9.638  0.3098  0.1308  0.1815
   51CHL1  H12A 6212   2.517   2.174   9.549  0.1552 -1.5855 -0.0298
   51CHL1  H12B 6213   2.450   2.280   9.658  1.1900  0.2815 -0.5577
   51CHL1   C11 6214   2.518   2.092   9.758  0.0043  0.1454  0.0584
   51CHL1  H11A 6215   2.545   1.996   9.707  0.8891  0.7711 -0.6746
   51CHL1  H11B 6216   2.606   2.152   9.788 -1.7293  2.6035  0.5223
   51CHL1    C9 6217   2.423   2.074   9.886  0.3973 -0.2026 -0.1899
   51CHL1    H9 6218   2.432   2.175   9.931  1.3523 -2.1320  4.5928
   51CHL1   C10 6219   2.476   1.983  10.000 -0.4715  0.3546  0.2725
   51CHL1   C19 6220   2.506   1.832   9.946 -0.6746 -0.5732 -0.5496
   51CHL1  H19A 6221   2.580   1.848   9.865  1.2235 -1.5716  0.8899
   51CHL1  H19B 6222   2.540   1.774  10.035  0.0318 -0.5266 -0.7846
   51CHL1  H19C 6223   2.406   1.794   9.914 -2.3699  1.4279  1.9406
   51CHL1    C1 6224   2.612   2.038  10.055 -0.3551 -0.1752  0.1351
   51CHL1   H1A 6225   2.678   2.026   9.967 -1.7110  0.5585 -1.0119
   51CHL1   H1B 6226   2.602   2.146  10.079 -2.0019 -0.3102  0.1469
   51CHL1    C2 6227   2.664   1.968  10.176 -0.4770 -0.0571  0.4925
   51CHL1   H2A 6228   2.761   2.008  10.212 -0.2027 -0.4105  0.1520
   51CHL1   H2B 6229   2.698   1.871  10.135  2.1229  0.9109  0.1580
   51CHL1   C20 6230   2.224   2.225   9.365  0.0338  0.2638 -0.3644
   51CHL1   H20 6231   2.202   2.126   9.320  0.2344  0.8362 -1.7846
   51CHL1   C21 6232   2.373   2.259   9.327  0.2252 -0.0153 -0.1512
   51CHL1  H21A 6233   2.411   2.339   9.394  2.0269 -0.4286 -0.6205
   51CHL1  H21B 6234   2.375   2.291   9.220 -1.1765  1.6489  0.2792
   51CHL1  H21C 6235   2.444   2.176   9.348 -0.1119  0.0121  1.1816
   51CHL1   C22 6236   2.126   2.319   9.290 -0.7514  0.3257  0.8727
   51CHL1  H22A 6237   2.034   2.288   9.343 -0.7632  0.4701  0.9331
   51CHL1  H22B 6238   2.143   2.428   9.296 -0.1780  0.3270 -0.3942
   51CHL1   C23 6239   2.098   2.271   9.144 -0.2332 -0.5558  0.6169
   51CHL1  H23A 6240   2.164   2.336   9.082 -2.9743  1.7221 -0.1339
   51CHL1  H23B 6241   2.131   2.167   9.125  0.1095 -0.2429 -0.5626
   51CHL1   C24 6242   1.945   2.271   9.111 -0.6481 -0.1392 -0.5966
   51CHL1  H24A 6243   1.899   2.180   9.155 -0.0281 -0.9459 -1.5701
   51CHL1  H24B 6244   1.900   2.365   9.150 -2.0916 -0.1996 -2.0420
   51CHL1   C25 6245   1.915   2.279   8.958 -0.5841  0.2317 -0.1863
   51CHL1   H25 6246   1.808   2.253   8.947 -0.4402  0.0905 -1.3167
   51CHL1   C26 6247   1.947   2.416   8.902 -0.1730 -0.2048 -0.3480
   51CHL1  H26A 6248   2.056   2.424   8.921 -0.2989 -3.3226  2.6138
   51CHL1  H26B 6249   1.917   2.418   8.795 -0.7919 -1.2215 -0.2021
   51CHL1  H26C 6250   1.884   2.490   8.956  0.2140 -1.3956  1.8313
   51CHL1   C27 6251   2.000   2.167   8.893 -0.5452 -0.7671 -0.4170
   51CHL1  H27A 6252   2.109   2.182   8.909 -0.1915 -3.4238  0.2088
   51CHL1  H27B 6253   1.965   2.066   8.925 -1.6992 -0.8217 -1.7612
   51CHL1  H27C 6254   1.974   2.163   8.785  0.8403 -1.2299 -0.7541
   52CHL1    C3 6255   4.256   1.103  10.267  0.2828  0.0392 -0.2224
   52CHL1    H3 6256   4.315   1.196  10.247  1.2358 -0.3166  0.8471
   52CHL1    O3 6257   4.191   1.110  10.394  0.3850 -0.2808  0.0119
   52CHL1   H3' 6258   4.098   1.087  10.381 -0.2474  2.3893 -0.9002
   52CHL1    C4 6259   4.148   1.108  10.152  0.2418  0.1675 -0.3012
   52CHL1   H4A 6260   4.067   1.033  10.167 -0.1113  0.3514 -1.2234
   52CHL1   H4B 6261   4.103   1.208  10.173  2.3095  0.8062  1.4579
   52CHL1    C5 6262   4.210   1.099  10.016  0.8771  0.2598  0.3891
   52CHL1    C6 6263   4.189   1.184   9.920  0.3557  0.2270 -0.4605
   52CHL1    H6 6264   4.124   1.270   9.938  1.7291  2.5347 -5.0513
   52CHL1    C7 6265   4.241   1.168   9.776  0.0832 -0.2408  0.0539
   52CHL1   H7A 6266   4.154   1.189   9.709 -0.5785  0.3434  1.0592
   52CHL1   H7B 6267   4.326   1.235   9.750  2.3346 -2.8715  0.2561
   52CHL1    C8 6268   4.288   1.024   9.748 -0.3762 -0.2801 -0.3312
   52CHL1    H8 6269   4.210   0.945   9.745  1.0073 -1.6944 -0.1975
   52CHL1   C14 6270   4.356   1.020   9.610  0.1394  0.9530  0.3754
   52CHL1   H14 6271   4.433   1.099   9.617  1.3348 -0.2728  1.8201
   52CHL1   C15 6272   4.272   1.060   9.485 -0.6095 -0.4552 -1.0461
   52CHL1  H15A 6273   4.172   1.012   9.485 -0.3106 -1.1300  0.0754
   52CHL1  H15B 6274   4.263   1.171   9.486  0.2622 -0.3562  0.4711
   52CHL1   C16 6275   4.353   1.002   9.367 -0.0164  0.0297 -0.0824
   52CHL1  H16A 6276   4.299   0.929   9.302  1.6914  0.2790 -1.8771
   52CHL1  H16B 6277   4.386   1.085   9.301 -3.2948  1.3736 -0.2168
   52CHL1   C17 6278   4.475   0.931   9.435 -0.1510 -0.1349  1.0967
   52CHL1   H17 6279   4.550   1.013   9.442  0.9834 -0.9322 -1.0761
   52CHL1   C13 6280   4.428   0.884   9.579  0.1854  0.1149  0.7496
   52CHL1   C18 6281   4.336   0.761   9.564 -0.1119 -0.7289  0.2923
   52CHL1  H18A 6282   4.384   0.660   9.569 -0.3450 -0.8069  1.3481
   52CHL1  H18B 6283   4.260   0.764   9.645  1.2492 -1.8717  1.6913
   52CHL1  H18C 6284   4.272   0.778   9.476 -0.8905 -1.8840  0.6125
   52CHL1   C12 6285   4.532   0.855   9.686  0.8283 -0.1716  1.1273
   52CHL1  H12A 6286   4.588   0.762   9.661 -0.4743 -1.0426  1.3782
   52CHL1  H12B 6287   4.614   0.929   9.693 -0.7597  1.8373 -0.5260
   52CHL1   C11 6288   4.469   0.850   9.829  0.5122 -0.3694  0.8063
   52CHL1  H11A 6289   4.394   0.768   9.827 -0.9398  0.9258  0.0534
   52CHL1  H11B 6290   4.545   0.827   9.907  2.4942  0.6834 -0.7055
   52CHL1    C9 6291   4.384   0.977   9.863  0.1483 -0.1152  0.1891
   52CHL1    H9 6292   4.467   1.051   9.863  1.3406 -1.3288 -2.2681
   52CHL1   C10 6293   4.304   0.976   9.998  0.5087 -0.5098 -0.5285
   52CHL1   C19 6294   4.218   0.852  10.009 -0.4255  0.5654 -0.1790
   52CHL1  H19A 6295   4.139   0.840   9.931 -0.8826  1.4860  0.1224
   52CHL1  H19B 6296   4.283   0.763  10.001 -1.5401 -0.4884  1.7283
   52CHL1  H19C 6297   4.167   0.836  10.106 -1.4032  0.0694 -0.7583
   52CHL1    C1 6298   4.407   0.970  10.114  0.4541 -0.0951 -0.1470
   52CHL1   H1A 6299   4.477   0.884  10.103  1.0638  0.3255  0.3828
   52CHL1   H1B 6300   4.471   1.060  10.096  1.7314 -1.0259 -0.3903
   52CHL1    C2 6301   4.352   0.982  10.260  0.3801 -0.6203 -0.0133
   52CHL1   H2A 6302   4.447   0.986  10.317  2.7134 -4.8512 -3.0457
   52CHL1   H2B 6303   4.299   0.889  10.285 -0.7347 -0.1475 -0.5305
   52CHL1   C20 6304   4.536   0.827   9.336 -0.2134 -0.9243 -0.4199
   52CHL1   H20 6305   4.468   0.746   9.302 -0.1689 -0.7760 -0.8615
   52CHL1   C21 6306   4.658   0.751   9.404 -0.5041  0.0025  0.8235
   52CHL1  H21A 6307   4.619   0.675   9.474  0.5498 -2.5361 -1.1986
   52CHL1  H21B 6308   4.726   0.827   9.449  0.0401 -1.0870  1.8831
   52CHL1  H21C 6309   4.709   0.695   9.323  0.1913 -0.0379  1.2887
   52CHL1   C22 6310   4.583   0.894   9.203 -0.5740 -0.6580  0.1617
   52CHL1  H22A 6311   4.510   0.970   9.169  0.6231  0.4199 -0.0589
   52CHL1  H22B 6312   4.684   0.938   9.221 -0.8421 -0.2734  0.7806
   52CHL1   C23 6313   4.592   0.794   9.086 -0.6629 -0.0233 -0.2225
   52CHL1  H23A 6314   4.647   0.700   9.110 -1.7820 -0.5040  0.4891
   52CHL1  H23B 6315   4.492   0.755   9.060 -1.1578 -0.0728  1.6561
   52CHL1   C24 6316   4.646   0.864   8.964  0.1986 -0.6021 -0.7220
   52CHL1  H24A 6317   4.594   0.958   8.936 -1.9543 -1.2975  0.6486
   52CHL1  H24B 6318   4.749   0.902   8.984 -0.3142 -0.3233  1.8480
   52CHL1   C25 6319   4.648   0.774   8.842  0.2336  0.0130  0.0066
   52CHL1   H25 6320   4.560   0.708   8.845  0.7223 -0.6141  2.9629
   52CHL1   C26 6321   4.640   0.858   8.712 -0.1897 -0.0848 -0.1365
   52CHL1  H26A 6322   4.644   0.788   8.626 -0.1318 -0.6799  0.3423
   52CHL1  H26B 6323   4.549   0.921   8.703  0.2029  0.1871 -2.7248
   52CHL1  H26C 6324   4.718   0.937   8.713 -1.7384  1.5220 -0.9476
   52CHL1   C27 6325   4.773   0.681   8.833  0.1217 -0.4308 -0.1547
   52CHL1  H27A 6326   4.865   0.743   8.824 -0.6546  0.7754  0.1216
   52CHL1  H27B 6327   4.776   0.617   8.924 -0.2419 -1.1113 -0.6095
   52CHL1  H27C 6328   4.753   0.623   8.741  1.1394  1.6956 -1.7973
   53CHL1    C3 6329   4.863   6.226  10.062 -0.4771 -0.8959 -0.0929
   53CHL1    H3 6330   4.968   6.211  10.031 -0.3421  0.0079 -0.1163
   53CHL1    O3 6331   4.856   6.237  10.200 -0.0216  0.2462 -0.9726
   53CHL1   H3' 6332   4.810   6.164  10.243 -0.5587  1.2971  0.3246
   53CHL1    C4 6333   4.814   6.357   9.998 -0.9304 -0.1762 -1.1419
   53CHL1   H4A 6334   4.708   6.370  10.027 -1.4061 -0.6079 -2.5932
   53CHL1   H4B 6335   4.869   6.441  10.045 -2.9502  0.0141  1.0369
   53CHL1    C5 6336   4.816   6.353   9.845 -0.5040 -0.5511 -0.5032
   53CHL1    C6 6337   4.898   6.440   9.782 -0.2245  0.5973 -0.5635
   53CHL1    H6 6338   4.955   6.517   9.836  0.4825 -0.1728 -0.1835
   53CHL1    C7 6339   4.916   6.436   9.634  0.2555 -0.3571 -0.1894
   53CHL1   H7A 6340   4.918   6.537   9.589  0.4722 -0.1409  0.2944
   53CHL1   H7B 6341   5.017   6.398   9.610  0.7941  0.1588  1.1702
   53CHL1    C8 6342   4.807   6.343   9.555  0.2847 -0.5908 -0.5461
   53CHL1    H8 6343   4.713   6.400   9.541  0.4725  0.4148  1.9006
   53CHL1   C14 6344   4.859   6.304   9.421  0.4632  0.3069  0.2690
   53CHL1   H14 6345   4.942   6.231   9.434 -0.6549 -0.9215  0.7533
   53CHL1   C15 6346   4.917   6.409   9.328 -0.6179  0.2416 -0.6744
   53CHL1  H15A 6347   4.854   6.500   9.339 -1.0482  0.0123 -1.2211
   53CHL1  H15B 6348   5.021   6.430   9.361 -0.3833  0.0160 -1.2574
   53CHL1   C16 6349   4.903   6.354   9.190  0.0573  0.3889 -0.1232
   53CHL1  H16A 6350   4.828   6.408   9.129 -0.9049 -0.8487 -0.0696
   53CHL1  H16B 6351   4.997   6.355   9.130  0.5123 -0.4283  0.5562
   53CHL1   C17 6352   4.839   6.212   9.207  0.1812 -0.1314 -0.1804
   53CHL1   H17 6353   4.925   6.145   9.233  1.2283  1.8200  1.6503
   53CHL1   C13 6354   4.755   6.223   9.340 -0.7227  0.0960  1.0262
   53CHL1   C18 6355   4.628   6.301   9.305 -0.1066  0.4697 -0.7735
   53CHL1  H18A 6356   4.641   6.375   9.224  0.9740  0.7448 -0.3579
   53CHL1  H18B 6357   4.553   6.230   9.264 -1.4371  1.8853 -0.8908
   53CHL1  H18C 6358   4.576   6.355   9.387 -2.4321  1.1922 -2.6185
   53CHL1   C12 6359   4.728   6.090   9.414  0.0086  0.0432  0.5453
   53CHL1  H12A 6360   4.652   6.031   9.358 -0.7617  0.5040  1.0912
   53CHL1  H12B 6361   4.816   6.023   9.421  0.6995  0.9117  0.2897
   53CHL1   C11 6362   4.680   6.123   9.556  0.0274  0.4791 -0.2252
   53CHL1  H11A 6363   4.580   6.170   9.546  0.0252 -0.0579 -4.5603
   53CHL1  H11B 6364   4.688   6.027   9.612  0.5702  1.5618  1.6180
   53CHL1    C9 6365   4.775   6.212   9.635  0.0096  0.5248 -0.4394
   53CHL1    H9 6366   4.876   6.165   9.628  0.9815  2.4091  0.1735
   53CHL1   C10 6367   4.740   6.229   9.785  0.1695 -0.0024 -0.0409
   53CHL1   C19 6368   4.585   6.236   9.797 -0.8099 -0.4297 -0.0985
   53CHL1  H19A 6369   4.534   6.142   9.767 -1.3431 -0.6302  1.3638
   53CHL1  H19B 6370   4.561   6.235   9.905 -0.8566 -0.3188 -0.1070
   53CHL1  H19C 6371   4.540   6.316   9.734 -0.0328 -0.0609 -0.1992
   53CHL1    C1 6372   4.790   6.103   9.853  0.2957  0.1825 -0.2870
   53CHL1   H1A 6373   4.727   6.017   9.821  0.1354  0.2216 -0.0736
   53CHL1   H1B 6374   4.897   6.092   9.824  0.2553 -0.2101 -0.2973
   53CHL1    C2 6375   4.787   6.109  10.005  0.5782 -0.3401  0.5794
   53CHL1   H2A 6376   4.846   6.026  10.048  2.8738  0.7794 -0.2606
   53CHL1   H2B 6377   4.680   6.113  10.035  0.1827  0.3725 -0.8052
   53CHL1   C20 6378   4.766   6.163   9.081  0.0385  0.5715 -0.2592
   53CHL1   H20 6379   4.676   6.225   9.062  1.3010  2.3636 -0.7015
   53CHL1   C21 6380   4.726   6.016   9.108  0.0797  0.0027  0.1823
   53CHL1  H21A 6381   4.802   5.971   9.174 -1.1731 -0.9596  1.0208
   53CHL1  H21B 6382   4.736   5.948   9.020 -1.8784 -0.2740  0.1261
   53CHL1  H21C 6383   4.621   6.008   9.145 -0.3236 -0.1571 -0.9543
   53CHL1   C22 6384   4.841   6.170   8.944  0.8788  0.1913  0.5354
   53CHL1  H22A 6385   4.882   6.272   8.927  1.0793 -0.3415 -3.0313
   53CHL1  H22B 6386   4.929   6.103   8.958 -0.1308 -1.2960  0.0534
   53CHL1   C23 6387   4.774   6.138   8.816 -0.6323 -0.2034 -0.1853
   53CHL1  H23A 6388   4.757   6.029   8.803  0.7105 -0.3673 -0.6894
   53CHL1  H23B 6389   4.678   6.192   8.829 -0.7376 -0.9087  2.5266
   53CHL1   C24 6390   4.855   6.181   8.696 -0.0206 -0.6788  0.2780
   53CHL1  H24A 6391   4.853   6.292   8.693  0.1800 -0.6805  0.0088
   53CHL1  H24B 6392   4.963   6.160   8.715  0.6434  1.6624 -0.6291
   53CHL1   C25 6393   4.798   6.133   8.564 -0.6851  0.4783  0.1126
   53CHL1   H25 6394   4.798   6.022   8.567 -0.7417  0.4504 -0.6083
   53CHL1   C26 6395   4.655   6.182   8.533  0.1487 -0.4105 -0.4576
   53CHL1  H26A 6396   4.619   6.137   8.438 -2.2631 -0.9795  0.6450
   53CHL1  H26B 6397   4.585   6.161   8.616 -0.0871  3.5011  0.5409
   53CHL1  H26C 6398   4.653   6.293   8.523 -0.8634 -0.5494 -2.1917
   53CHL1   C27 6399   4.878   6.186   8.444 -0.1942 -0.0499 -0.0513
   53CHL1  H27A 6400   4.975   6.131   8.439 -0.6345 -0.7716 -0.7908
   53CHL1  H27B 6401   4.824   6.186   8.347 -0.6851 -0.1317  0.2234
   53CHL1  H27C 6402   4.907   6.292   8.465 -0.0529 -0.5788  2.7704
   54CHL1    C3 6403   5.778   3.322  10.153  0.3665 -0.4299 -0.3709
   54CHL1    H3 6404   5.668   3.313  10.166  0.3553  0.3529  0.1632
   54CHL1    O3 6405   5.832   3.273  10.281  0.3544  0.1459  0.2361
   54CHL1   H3' 6406   5.761   3.216  10.311 -2.9372  3.2053 -0.9038
   54CHL1    C4 6407   5.814   3.222  10.046 -0.2757 -0.9364 -0.8444
   54CHL1   H4A 6408   5.924   3.206  10.044 -0.3944 -1.8867 -3.0365
   54CHL1   H4B 6409   5.773   3.121  10.068  0.8655 -1.0273  1.0585
   54CHL1    C5 6410   5.760   3.277   9.919 -0.7124 -0.8215  0.8050
   54CHL1    C6 6411   5.674   3.201   9.846  0.0197 -0.8746  0.2396
   54CHL1    H6 6412   5.647   3.099   9.876 -1.8505 -0.2525  0.8134
   54CHL1    C7 6413   5.620   3.245   9.707  0.5525 -0.4601 -0.6393
   54CHL1   H7A 6414   5.613   3.166   9.629 -4.7268 -0.1450 -0.8391
   54CHL1   H7B 6415   5.516   3.280   9.724 -0.1511 -3.3509  1.7136
   54CHL1    C8 6416   5.700   3.356   9.646  0.2933  0.5969  0.0670
   54CHL1    H8 6417   5.798   3.318   9.612 -0.2782 -0.1591 -0.7760
   54CHL1   C14 6418   5.621   3.418   9.526 -0.0156 -0.2705 -0.3268
   54CHL1   H14 6419   5.530   3.450   9.581 -0.8519 -2.1435 -0.5594
   54CHL1   C15 6420   5.575   3.331   9.411 -0.0750  0.1706 -0.0081
   54CHL1  H15A 6421   5.656   3.262   9.379  0.7916 -0.1568  2.7063
   54CHL1  H15B 6422   5.488   3.265   9.431 -2.0303  2.1884 -1.3327
   54CHL1   C16 6423   5.544   3.432   9.305  0.1746 -0.6413 -0.3485
   54CHL1  H16A 6424   5.606   3.407   9.217  1.2493  1.1414 -0.1454
   54CHL1  H16B 6425   5.440   3.432   9.265  0.3111 -1.1993 -0.7190
   54CHL1   C17 6426   5.580   3.577   9.359 -1.1276  0.0244  0.7635
   54CHL1   H17 6427   5.491   3.609   9.418 -0.1195 -0.8391  2.8702
   54CHL1   C13 6428   5.683   3.550   9.463 -0.4261  0.4394  0.0071
   54CHL1   C18 6429   5.823   3.506   9.405  0.7633  0.6836 -0.1366
   54CHL1  H18A 6430   5.863   3.596   9.354  0.0136  2.4555  2.2401
   54CHL1  H18B 6431   5.894   3.471   9.482 -0.1813 -0.5176  0.2194
   54CHL1  H18C 6432   5.827   3.425   9.329  1.6886 -0.9509  1.5850
   54CHL1   C12 6433   5.700   3.656   9.567  0.2544  0.2200 -0.2386
   54CHL1  H12A 6434   5.752   3.740   9.518 -2.1721  0.9510 -1.7219
   54CHL1  H12B 6435   5.595   3.691   9.581 -0.1301 -0.2593 -1.7273
   54CHL1   C11 6436   5.767   3.607   9.698 -0.6951  0.1760 -0.0820
   54CHL1  H11A 6437   5.874   3.611   9.668 -0.5337 -0.7735  0.3445
   54CHL1  H11B 6438   5.753   3.682   9.778  1.8585 -1.2744  1.8836
   54CHL1    C9 6439   5.717   3.467   9.755  0.3291  0.1203  0.1114
   54CHL1    H9 6440   5.616   3.491   9.794 -0.3240 -1.9180 -0.2140
   54CHL1   C10 6441   5.804   3.420   9.878  0.2605  0.4509  0.4459
   54CHL1   C19 6442   5.954   3.415   9.833  0.0210 -0.2720 -0.3574
   54CHL1  H19A 6443   5.960   3.351   9.743  4.5307  0.9738 -1.1421
   54CHL1  H19B 6444   5.995   3.518   9.824  0.1762 -0.4381 -1.6929
   54CHL1  H19C 6445   6.017   3.348   9.896  0.5433  0.6680  0.1381
   54CHL1    C1 6446   5.789   3.522   9.997  0.1208 -0.5618 -0.4340
   54CHL1   H1A 6447   5.848   3.611   9.968 -1.4527  0.4695 -0.6077
   54CHL1   H1B 6448   5.679   3.538  10.002  0.1896  0.0984 -0.9598
   54CHL1    C2 6449   5.833   3.464  10.132  0.1253  0.0720  0.2231
   54CHL1   H2A 6450   5.801   3.534  10.211  1.8723  1.6816 -0.4091
   54CHL1   H2B 6451   5.944   3.455  10.139  0.4766  0.2667 -3.1360
   54CHL1   C20 6452   5.625   3.679   9.257  0.0898 -0.6505  0.5405
   54CHL1   H20 6453   5.697   3.749   9.306 -1.5387 -0.1372  2.3318
   54CHL1   C21 6454   5.506   3.772   9.221  0.4901  0.1411 -0.1467
   54CHL1  H21A 6455   5.540   3.849   9.149  0.5034  0.3029  0.0318
   54CHL1  H21B 6456   5.492   3.829   9.315 -0.7228 -1.0130  0.4027
   54CHL1  H21C 6457   5.412   3.719   9.195 -0.4466  1.1148  1.1097
   54CHL1   C22 6458   5.688   3.631   9.128  0.8611 -0.0115  0.1906
   54CHL1  H22A 6459   5.767   3.554   9.145 -1.0897 -2.1125  0.2121
   54CHL1  H22B 6460   5.613   3.575   9.068  0.4430  0.2079  0.5045
   54CHL1   C23 6461   5.760   3.745   9.054 -0.1472 -0.4324 -0.0006
   54CHL1  H23A 6462   5.696   3.808   8.989  2.0432  2.2763  0.2860
   54CHL1  H23B 6463   5.800   3.816   9.129 -2.2121  2.3585 -1.3327
   54CHL1   C24 6464   5.872   3.680   8.960 -0.2797  0.0083 -0.6681
   54CHL1  H24A 6465   5.956   3.637   9.020  0.7231  1.3826 -1.0397
   54CHL1  H24B 6466   5.824   3.593   8.911  0.7996 -1.4974  0.7972
   54CHL1   C25 6467   5.936   3.779   8.869  0.7863 -0.6618  0.0569
   54CHL1   H25 6468   5.864   3.831   8.802  0.4432  1.9197  2.2540
   54CHL1   C26 6469   6.002   3.898   8.946  0.4514  1.1135 -0.0041
   54CHL1  H26A 6470   6.071   3.854   9.021 -0.3781 -2.8796 -1.3008
   54CHL1  H26B 6471   6.055   3.962   8.873  1.9736 -2.1127 -1.9854
   54CHL1  H26C 6472   5.925   3.965   8.990 -0.5218  0.3355 -0.4556
   54CHL1   C27 6473   6.050   3.713   8.791 -0.1571 -0.4377  0.4107
   54CHL1  H27A 6474   6.071   3.782   8.706  0.9874 -0.0651  0.9740
   54CHL1  H27B 6475   6.140   3.704   8.855  0.1825  2.6360  0.5225
   54CHL1  H27C 6476   6.017   3.618   8.744  1.4335 -0.4301 -0.8093
   55CHL1    C3 6477   1.170   0.682  10.381 -0.2284 -0.0520 -0.5588
   55CHL1    H3 6478   1.222   0.583  10.386  1.3390  0.7640 -0.2447
   55CHL1    O3 6479   1.188   0.745  10.509 -0.0212  0.2877  0.5265
   55CHL1   H3' 6480   1.155   0.678  10.568 -1.3471  0.2018 -0.2596
   55CHL1    C4 6481   1.252   0.772  10.284 -0.7291 -0.5839  0.0539
   55CHL1   H4A 6482   1.192   0.864  10.302  0.4159 -0.0941  1.5317
   55CHL1   H4B 6483   1.356   0.794  10.314 -0.2535 -2.6835  0.0692
   55CHL1    C5 6484   1.249   0.727  10.140 -0.1647 -0.6182 -0.0316
   55CHL1    C6 6485   1.361   0.719  10.057  0.8937  0.1860 -0.5386
   55CHL1    H6 6486   1.449   0.774  10.094 -0.7855  0.6145  3.3143
   55CHL1    C7 6487   1.360   0.664   9.916 -0.1865  0.2782 -0.1620
   55CHL1   H7A 6488   1.427   0.719   9.847  0.0579 -1.3608 -1.2815
   55CHL1   H7B 6489   1.405   0.563   9.926 -1.4766 -0.4053 -0.9876
   55CHL1    C8 6490   1.221   0.650   9.850 -0.0928  0.0789  0.8317
   55CHL1    H8 6491   1.202   0.751   9.807  0.8562 -0.1384 -0.1403
   55CHL1   C14 6492   1.219   0.556   9.736 -0.0380 -0.0567  0.4821
   55CHL1   H14 6493   1.239   0.451   9.766 -3.7380 -1.2539 -0.7388
   55CHL1   C15 6494   1.328   0.573   9.625 -0.1673 -0.1806  0.5724
   55CHL1  H15A 6495   1.338   0.680   9.599  0.8760 -0.7412 -1.5754
   55CHL1  H15B 6496   1.416   0.520   9.668 -0.6016 -1.5267 -0.1374
   55CHL1   C16 6497   1.272   0.488   9.506  0.0303  0.4044 -0.1481
   55CHL1  H16A 6498   1.263   0.562   9.424 -0.4234  0.7051  0.1668
   55CHL1  H16B 6499   1.334   0.401   9.478  0.5492  0.3162  1.1842
   55CHL1   C17 6500   1.118   0.455   9.541 -0.0267  0.4271 -0.2558
   55CHL1   H17 6501   1.112   0.353   9.584  2.7644  0.7961  1.1999
   55CHL1   C13 6502   1.084   0.546   9.659  0.3891  0.6096  0.0895
   55CHL1   C18 6503   1.036   0.682   9.607 -0.5336 -0.1405 -0.0830
   55CHL1  H18A 6504   0.948   0.662   9.540 -0.1343  0.8175 -0.9166
   55CHL1  H18B 6505   0.998   0.750   9.685 -0.7103  1.1218 -1.2315
   55CHL1  H18C 6506   1.109   0.727   9.537 -0.1486 -1.1659 -0.3543
   55CHL1   C12 6507   0.991   0.485   9.769  0.1832 -0.5401 -0.3404
   55CHL1  H12A 6508   0.893   0.457   9.723 -0.0495  0.8512 -0.7500
   55CHL1  H12B 6509   1.042   0.392   9.802 -1.2690 -1.3665 -0.3178
   55CHL1   C11 6510   0.977   0.572   9.894  0.2501 -0.1399  0.0357
   55CHL1  H11A 6511   0.912   0.657   9.864 -1.6347 -1.0259  1.3952
   55CHL1  H11B 6512   0.926   0.518   9.977 -0.4537 -1.7553 -1.3909
   55CHL1    C9 6513   1.116   0.600   9.952  0.0226  0.4941  0.5041
   55CHL1    H9 6514   1.159   0.503   9.985 -2.2584 -0.4036  0.9806
   55CHL1   C10 6515   1.112   0.678  10.083  0.5552  0.7189 -1.0315
   55CHL1   C19 6516   1.036   0.807  10.039 -0.6377  0.0346 -0.3426
   55CHL1  H19A 6517   0.926   0.789  10.035 -0.6130 -0.9399  1.9500
   55CHL1  H19B 6518   1.054   0.887  10.114  1.9280 -1.3574  0.6231
   55CHL1  H19C 6519   1.079   0.844   9.943 -0.7188  0.4037 -0.2389
   55CHL1    C1 6520   1.034   0.605  10.198  0.5478  0.3179 -0.3770
   55CHL1   H1A 6521   0.931   0.577  10.168  0.6943  1.0369 -1.6156
   55CHL1   H1B 6522   1.086   0.511  10.226 -1.5118 -1.0597 -0.9332
   55CHL1    C2 6523   1.030   0.673  10.333  1.0985  0.3442 -0.8077
   55CHL1   H2A 6524   0.973   0.610  10.404  2.6523  0.8708  0.9627
   55CHL1   H2B 6525   0.984   0.775  10.330  0.4385  0.1409  1.3291
   55CHL1   C20 6526   1.019   0.450   9.419 -0.4303 -0.0060  0.1926
   55CHL1   H20 6527   1.000   0.555   9.389 -1.4168 -0.6331 -1.4816
   55CHL1   C21 6528   0.882   0.397   9.462  0.2419 -0.5254  1.0168
   55CHL1  H21A 6529   0.839   0.474   9.529 -2.6847 -1.7508  0.6672
   55CHL1  H21B 6530   0.886   0.299   9.513 -1.3364 -0.7488  0.7345
   55CHL1  H21C 6531   0.799   0.398   9.389 -0.5433 -0.3433  1.8924
   55CHL1   C22 6532   1.079   0.383   9.294  0.7311  0.1962 -0.6476
   55CHL1  H22A 6533   1.169   0.445   9.273 -0.2837  1.5650 -1.1562
   55CHL1  H22B 6534   1.111   0.278   9.306 -0.0914 -0.3133 -2.5871
   55CHL1   C23 6535   0.986   0.382   9.171 -0.6186 -0.9856  0.2190
   55CHL1  H23A 6536   0.912   0.299   9.175 -1.0802 -0.8602 -3.1679
   55CHL1  H23B 6537   0.945   0.484   9.157  1.2766 -0.4784 -2.2651
   55CHL1   C24 6538   1.060   0.353   9.041 -0.7259 -1.0868  0.1014
   55CHL1  H24A 6539   1.144   0.422   9.020 -2.6224  0.8120 -1.5814
   55CHL1  H24B 6540   1.103   0.250   9.033  0.6094 -0.4668 -1.0486
   55CHL1   C25 6541   0.970   0.363   8.915  0.0746  0.2531  0.5366
   55CHL1   H25 6542   0.894   0.282   8.921 -0.1899  0.5487  1.2140
   55CHL1   C26 6543   0.896   0.496   8.895 -0.0480 -0.7223  0.1667
   55CHL1  H26A 6544   0.975   0.574   8.902 -0.8211 -0.0676  3.1130
   55CHL1  H26B 6545   0.852   0.507   8.793 -0.7290 -0.5231  0.4744
   55CHL1  H26C 6546   0.824   0.526   8.974 -0.6745  1.7862 -1.2530
   55CHL1   C27 6547   1.044   0.321   8.783 -0.5690 -0.0905 -0.2803
   55CHL1  H27A 6548   0.967   0.320   8.704 -0.3465  1.2110 -0.5386
   55CHL1  H27B 6549   1.129   0.390   8.760 -1.6319  1.3549 -0.0210
   55CHL1  H27C 6550   1.084   0.218   8.792  1.4365  0.5258 -1.4522
   56CHL1    C3 6551   6.390   5.548  10.272 -0.9318  0.0179 -0.4616
   56CHL1    H3 6552   6.399   5.447  10.226  6.8881  0.8231 -2.1886
   56CHL1    O3 6553   6.420   5.562  10.415 -0.2436  0.0352  0.2451
   56CHL1   H3' 6554   6.419   5.656  10.432 -1.2712  0.1421 -0.3444
   56CHL1    C4 6555   6.501   5.629  10.199 -0.3434  0.5479  0.6309
   56CHL1   H4A 6556   6.510   5.730  10.245 -3.1457  0.3720  1.7860
   56CHL1   H4B 6557   6.599   5.581  10.221 -0.2399 -0.6950 -2.1331
   56CHL1    C5 6558   6.492   5.643  10.048 -0.2071  0.4585  0.3326
   56CHL1    C6 6559   6.602   5.618   9.973 -0.0322  0.2077 -0.7279
   56CHL1    H6 6560   6.698   5.597  10.022 -1.7353 -1.9748  1.9716
   56CHL1    C7 6561   6.590   5.610   9.829 -0.1760 -0.5696 -0.0793
   56CHL1   H7A 6562   6.665   5.681   9.788  1.6647 -1.7192  1.1693
   56CHL1   H7B 6563   6.603   5.504   9.799 -1.0528  0.0100 -2.7616
   56CHL1    C8 6564   6.458   5.666   9.768  0.2095 -0.2113 -0.0141
   56CHL1    H8 6565   6.470   5.777   9.759  1.3418 -0.4517 -2.1606
   56CHL1   C14 6566   6.441   5.620   9.623 -0.0726 -0.2189 -0.0134
   56CHL1   H14 6567   6.444   5.509   9.622  0.9910 -0.2005 -0.8360
   56CHL1   C15 6568   6.558   5.647   9.529  0.5809  0.2681 -0.2993
   56CHL1  H15A 6569   6.585   5.754   9.548 -2.9712  1.2077  0.1321
   56CHL1  H15B 6570   6.643   5.580   9.556  0.9646  0.7577 -0.2721
   56CHL1   C16 6571   6.493   5.630   9.390 -0.0483 -0.3498 -0.4936
   56CHL1  H16A 6572   6.515   5.723   9.333 -1.2626 -0.6334 -1.4834
   56CHL1  H16B 6573   6.527   5.537   9.339  0.3791 -0.6747  0.3721
   56CHL1   C17 6574   6.335   5.620   9.408 -0.1371 -0.6742  0.2657
   56CHL1   H17 6575   6.319   5.510   9.405 -0.7891 -0.5674 -0.9120
   56CHL1   C13 6576   6.313   5.671   9.552 -0.4210  0.1446 -0.9171
   56CHL1   C18 6577   6.307   5.824   9.548 -0.2598  0.2401 -0.7693
   56CHL1  H18A 6578   6.323   5.866   9.649 -0.4011  0.3969 -0.8125
   56CHL1  H18B 6579   6.389   5.865   9.485  1.5148 -0.3413  1.0616
   56CHL1  H18C 6580   6.204   5.850   9.514 -0.3059 -1.6776 -2.2427
   56CHL1   C12 6581   6.197   5.607   9.640 -0.1055  0.0399 -0.0854
   56CHL1  H12A 6582   6.100   5.641   9.598 -0.5519  2.2736  2.4950
   56CHL1  H12B 6583   6.203   5.497   9.631 -0.8794  0.1589 -2.9189
   56CHL1   C11 6584   6.201   5.651   9.792  0.1123  0.0382  0.0526
   56CHL1  H11A 6585   6.197   5.762   9.781  1.2954  0.1275  0.3805
   56CHL1  H11B 6586   6.107   5.613   9.839 -2.6147  2.3529 -3.0717
   56CHL1    C9 6587   6.339   5.614   9.856 -0.3878 -0.2231 -0.2917
   56CHL1    H9 6588   6.348   5.505   9.871 -1.7407  0.0047  3.0860
   56CHL1   C10 6589   6.354   5.664  10.003  0.1896 -0.0553  0.3510
   56CHL1   C19 6590   6.339   5.819  10.011 -0.5583  0.4205 -0.0822
   56CHL1  H19A 6591   6.351   5.865  10.111 -2.9867 -2.5408  1.7740
   56CHL1  H19B 6592   6.405   5.867   9.936  0.4425 -1.3411 -0.3817
   56CHL1  H19C 6593   6.237   5.850   9.977 -0.6651 -2.7661 -3.3683
   56CHL1    C1 6594   6.235   5.601  10.092 -0.1684 -0.9775  1.2774
   56CHL1   H1A 6595   6.141   5.657  10.073 -0.5832 -2.1523 -0.4118
   56CHL1   H1B 6596   6.217   5.493  10.069 -0.9973 -0.6043  0.0827
   56CHL1    C2 6597   6.256   5.608  10.247  0.4054 -0.3987 -0.7217
   56CHL1   H2A 6598   6.178   5.545  10.294  0.5317  0.3058  0.4753
   56CHL1   H2B 6599   6.248   5.709  10.292 -0.9509 -0.4885 -0.7190
   56CHL1   C20 6600   6.249   5.672   9.294  0.3688  0.4221  0.2981
   56CHL1   H20 6601   6.243   5.783   9.296  0.5312  0.4668 -0.9641
   56CHL1   C21 6602   6.107   5.619   9.313  0.3740 -0.7210 -0.2841
   56CHL1  H21A 6603   6.058   5.671   9.398  0.8112  2.1445 -1.6637
   56CHL1  H21B 6604   6.090   5.509   9.321 -0.2923 -0.5910  0.1276
   56CHL1  H21C 6605   6.037   5.652   9.233 -1.1743  1.3130  1.7774
   56CHL1   C22 6606   6.295   5.618   9.155  0.7464  1.0611 -0.3121
   56CHL1  H22A 6607   6.405   5.634   9.145  0.7000  0.5551 -1.9675
   56CHL1  H22B 6608   6.273   5.509   9.145  0.7366  0.7344  2.6151
   56CHL1   C23 6609   6.226   5.684   9.039  0.4018  0.2359  0.0258
   56CHL1  H23A 6610   6.115   5.685   9.053  0.1467  0.8994 -1.7659
   56CHL1  H23B 6611   6.269   5.786   9.025 -0.1124  0.7775  2.0530
   56CHL1   C24 6612   6.240   5.607   8.904  0.2861  0.2339  0.1957
   56CHL1  H24A 6613   6.226   5.501   8.933  1.6859  0.0368  0.2362
   56CHL1  H24B 6614   6.152   5.633   8.841  0.0122 -1.4278 -0.1428
   56CHL1   C25 6615   6.365   5.635   8.821  0.0752  0.3917 -0.4884
   56CHL1   H25 6616   6.457   5.602   8.873 -1.0818 -2.4178 -0.0693
   56CHL1   C26 6617   6.353   5.548   8.691  0.1313  0.3925  0.5767
   56CHL1  H26A 6618   6.261   5.586   8.641 -0.5510 -0.3691  1.2211
   56CHL1  H26B 6619   6.435   5.560   8.617 -2.1519  0.6728 -2.0602
   56CHL1  H26C 6620   6.336   5.440   8.712 -1.2573  0.3719 -0.4837
   56CHL1   C27 6621   6.391   5.784   8.773 -0.4837 -0.0103  0.3193
   56CHL1  H27A 6622   6.497   5.785   8.741 -0.0379 -1.0934  1.6282
   56CHL1  H27B 6623   6.327   5.817   8.689  0.2586  1.2406  0.2226
   56CHL1  H27C 6624   6.379   5.851   8.861 -1.1523  1.2569 -0.6930
   57CHL1    C3 6625   1.051   1.123  10.311 -1.0679 -0.7208  0.5370
   57CHL1    H3 6626   1.029   1.020  10.277 -1.5846 -0.3812 -0.1811
   57CHL1    O3 6627   1.050   1.125  10.455  0.3106  0.6745  0.0366
   57CHL1   H3' 6628   0.960   1.107  10.485  0.8423 -0.7105  0.8705
   57CHL1    C4 6629   1.183   1.184  10.264 -0.4443  0.3539 -0.0201
   57CHL1   H4A 6630   1.212   1.280  10.312  2.0525 -0.1672 -0.3926
   57CHL1   H4B 6631   1.265   1.118  10.299 -0.1599  1.3159  1.1802
   57CHL1    C5 6632   1.187   1.187  10.112  0.3959  1.2523  1.1303
   57CHL1    C6 6633   1.280   1.111  10.047 -0.0994  0.2407  0.7223
   57CHL1    H6 6634   1.351   1.051  10.106 -1.0965 -2.7533 -0.9148
   57CHL1    C7 6635   1.283   1.096   9.897 -0.8630 -0.1982  0.2463
   57CHL1   H7A 6636   1.386   1.104   9.859 -1.5972  0.5406 -1.7093
   57CHL1   H7B 6637   1.261   0.992   9.864  2.3848 -0.4016 -1.6755
   57CHL1    C8 6638   1.192   1.193   9.820 -0.2670 -0.6558  0.0140
   57CHL1    H8 6639   1.240   1.292   9.805 -1.6553 -0.0308 -0.4709
   57CHL1   C14 6640   1.163   1.137   9.685  0.3537  0.6742 -0.2242
   57CHL1   H14 6641   1.096   1.049   9.698 -1.8155  1.8716 -2.4461
   57CHL1   C15 6642   1.281   1.085   9.599  0.6080 -0.3374  0.0266
   57CHL1  H15A 6643   1.352   1.169   9.590  0.6644  0.0054  2.8375
   57CHL1  H15B 6644   1.323   0.992   9.644  0.7502  0.5634  1.8439
   57CHL1   C16 6645   1.220   1.066   9.460 -0.3856 -0.7296 -0.1286
   57CHL1  H16A 6646   1.292   1.108   9.386  1.3137 -0.3863  1.6427
   57CHL1  H16B 6647   1.203   0.959   9.438 -0.4376 -0.2113 -3.0004
   57CHL1   C17 6648   1.086   1.142   9.460  0.1760  0.8170  0.1471
   57CHL1   H17 6649   1.008   1.063   9.462 -0.3305  1.2670 -1.0888
   57CHL1   C13 6650   1.083   1.223   9.591 -0.5409 -0.2206  0.0452
   57CHL1   C18 6651   1.143   1.364   9.559  0.2406 -0.4108 -0.3667
   57CHL1  H18A 6652   1.237   1.353   9.501  0.6461  0.7494  0.0310
   57CHL1  H18B 6653   1.065   1.415   9.499 -0.8707 -1.8945 -0.2555
   57CHL1  H18C 6654   1.164   1.425   9.649  0.9324 -2.5437  0.9949
   57CHL1   C12 6655   0.950   1.249   9.657  0.8345  0.2470  0.7482
   57CHL1  H12A 6656   0.888   1.319   9.597  0.2133  0.2039  1.3293
   57CHL1  H12B 6657   0.897   1.152   9.655 -0.0813  0.7350 -1.1015
   57CHL1   C11 6658   0.966   1.302   9.799 -0.3701  0.0758  0.1415
   57CHL1  H11A 6659   1.020   1.399   9.797 -0.0859 -0.0884 -2.1799
   57CHL1  H11B 6660   0.864   1.309   9.843 -1.9444 -2.5354 -2.7468
   57CHL1    C9 6661   1.061   1.215   9.888  0.6718 -0.4360  0.4874
   57CHL1    H9 6662   1.014   1.115   9.887 -1.2960  0.4529 -1.0879
   57CHL1   C10 6663   1.069   1.256  10.040 -0.0257 -0.6884 -0.6660
   57CHL1   C19 6664   1.089   1.408  10.049  0.6594 -0.8386  0.3368
   57CHL1  H19A 6665   1.180   1.452  10.004  0.0224  0.8864  0.6442
   57CHL1  H19B 6666   1.003   1.441   9.988  0.7359 -1.3917 -0.0736
   57CHL1  H19C 6667   1.072   1.453  10.149  0.3467  0.8847 -0.4600
   57CHL1    C1 6668   0.930   1.217  10.105  0.0692 -0.2910  0.2724
   57CHL1   H1A 6669   0.843   1.282  10.081 -1.5577 -2.6417 -0.5387
   57CHL1   H1B 6670   0.922   1.116  10.060  2.5610 -0.6141  0.3973
   57CHL1    C2 6671   0.931   1.200  10.260  0.0394  0.5927  0.2486
   57CHL1   H2A 6672   0.833   1.151  10.279  0.3470 -1.9317 -3.6098
   57CHL1   H2B 6673   0.952   1.305  10.287  0.3819  1.1154 -1.8753
   57CHL1   C20 6674   1.058   1.216   9.330  0.5548 -0.2643 -0.0151
   57CHL1   H20 6675   1.116   1.311   9.326  1.2823 -0.6657  0.7098
   57CHL1   C21 6676   0.909   1.260   9.314 -0.4909  1.0250  0.3717
   57CHL1  H21A 6677   0.884   1.289   9.210  0.7613  0.3401 -0.1422
   57CHL1  H21B 6678   0.900   1.347   9.382  2.7345  3.3553 -1.9076
   57CHL1  H21C 6679   0.834   1.180   9.335  1.2164 -0.9970 -0.7816
   57CHL1   C22 6680   1.089   1.135   9.203  0.1192  0.2199  0.1363
   57CHL1  H22A 6681   1.077   1.209   9.122  0.3618  1.0037  0.8035
   57CHL1  H22B 6682   1.196   1.106   9.200  0.3796  1.2384 -1.6068
   57CHL1   C23 6683   1.008   1.012   9.164 -0.0702  0.5120  0.9239
   57CHL1  H23A 6684   0.992   0.952   9.257  0.8753  0.5457  1.1138
   57CHL1  H23B 6685   0.901   1.041   9.155 -0.0359  0.9574  1.8241
   57CHL1   C24 6686   1.064   0.923   9.045 -0.4011 -0.2567  1.1995
   57CHL1  H24A 6687   0.979   0.853   9.033 -1.7648  1.4268  0.5436
   57CHL1  H24B 6688   1.069   0.997   8.962  1.5342 -1.7475 -0.0781
   57CHL1   C25 6689   1.191   0.839   9.069  0.0476 -0.1571 -0.0417
   57CHL1   H25 6690   1.269   0.918   9.076 -0.2261  0.0001  1.5610
   57CHL1   C26 6691   1.186   0.750   9.189 -0.1340 -0.2816 -0.3518
   57CHL1  H26A 6692   1.100   0.681   9.187 -1.2251  1.0487 -0.4991
   57CHL1  H26B 6693   1.280   0.694   9.208  1.2572  1.8559 -0.5903
   57CHL1  H26C 6694   1.177   0.819   9.276  2.7949 -0.6048  0.3158
   57CHL1   C27 6695   1.234   0.753   8.941  0.1683 -0.3525 -0.2041
   57CHL1  H27A 6696   1.160   0.670   8.931 -1.3070  1.0362 -1.4132
   57CHL1  H27B 6697   1.237   0.815   8.849  0.2913  1.8368  1.2096
   57CHL1  H27C 6698   1.335   0.713   8.961  0.9475  2.3333  1.7554
   58CHL1    C3 6699   2.993   0.076  10.190  0.3370  0.1554 -0.3209
   58CHL1    H3 6700   3.102   0.099  10.199  0.2347  0.6271 -0.2596
   58CHL1    O3 6701   2.936   0.062  10.320 -0.2366 -0.1009 -0.1285
   58CHL1   H3' 6702   2.913  -0.030  10.329  1.5474 -0.8487 -2.2546
   58CHL1    C4 6703   2.916   0.200  10.132  0.1958  0.4218 -0.2037
   58CHL1   H4A 6704   2.806   0.184  10.130 -0.0211  1.8245 -0.5821
   58CHL1   H4B 6705   2.928   0.287  10.200  1.5422  0.8705 -0.9796
   58CHL1    C5 6706   2.940   0.228   9.979 -0.3441  0.1909 -0.6773
   58CHL1    C6 6707   2.994   0.345   9.941  0.6745 -1.0546  0.2979
   58CHL1    H6 6708   3.006   0.426  10.015 -0.3744 -1.6011  1.0930
   58CHL1    C7 6709   3.032   0.372   9.793  0.3363  0.1368 -0.4483
   58CHL1   H7A 6710   2.994   0.469   9.752 -0.0563 -0.5858 -1.8554
   58CHL1   H7B 6711   3.143   0.373   9.790  0.3504  0.5359 -0.0738
   58CHL1    C8 6712   2.968   0.269   9.695 -0.0902  0.3249 -0.4356
   58CHL1    H8 6713   2.862   0.299   9.683 -0.0791  1.3112  1.4327
   58CHL1   C14 6714   3.031   0.281   9.559  0.4330  0.4491  0.0024
   58CHL1   H14 6715   3.138   0.253   9.565  0.5346  1.0581  2.2378
   58CHL1   C15 6716   3.039   0.425   9.499 -0.6055 -0.3202 -0.1931
   58CHL1  H15A 6717   2.939   0.474   9.495  0.4450  1.9180 -0.8888
   58CHL1  H15B 6718   3.112   0.497   9.540  1.1244 -1.1620 -1.6448
   58CHL1   C16 6719   3.061   0.390   9.350  0.8429  0.1858 -1.0046
   58CHL1  H16A 6720   2.987   0.449   9.292  0.4659 -1.5848 -2.4203
   58CHL1  H16B 6721   3.169   0.411   9.329  2.2266 -3.2737  1.6755
   58CHL1   C17 6722   3.052   0.233   9.332 -0.6686 -0.1342  0.5288
   58CHL1   H17 6723   3.158   0.201   9.337 -0.1072  1.5296  0.1434
   58CHL1   C13 6724   2.971   0.185   9.451  0.7935 -0.2763  0.2117
   58CHL1   C18 6725   2.825   0.225   9.427 -0.1099  0.7482 -0.4296
   58CHL1  H18A 6726   2.789   0.165   9.341 -2.8456  1.5735  0.0606
   58CHL1  H18B 6727   2.760   0.219   9.517 -2.4903 -0.3627 -2.1450
   58CHL1  H18C 6728   2.810   0.330   9.396 -1.3946  1.4437  2.2197
   58CHL1   C12 6729   2.996   0.043   9.502  0.4552 -0.4881  0.0420
   58CHL1  H12A 6730   2.951  -0.030   9.432 -0.6698 -1.0836  1.3377
   58CHL1  H12B 6731   3.106   0.032   9.512  0.5761 -0.9780 -1.5117
   58CHL1   C11 6732   2.930   0.022   9.640 -0.8597  0.4842 -0.2231
   58CHL1  H11A 6733   2.821   0.025   9.618 -0.7917 -2.8271 -1.5520
   58CHL1  H11B 6734   2.942  -0.081   9.678  1.9993 -1.3656 -5.2376
   58CHL1    C9 6735   2.984   0.120   9.744  0.2898  0.5543 -0.1674
   58CHL1    H9 6736   3.092   0.096   9.757 -0.0887 -1.3398 -0.1741
   58CHL1   C10 6737   2.930   0.098   9.891  0.6227 -0.5229 -0.4602
   58CHL1   C19 6738   2.778   0.055   9.878 -0.6730 -0.7234 -0.2210
   58CHL1  H19A 6739   2.709   0.132   9.837  0.7498  1.2911  1.0131
   58CHL1  H19B 6740   2.757  -0.039   9.823  0.2789 -1.3636  0.4956
   58CHL1  H19C 6741   2.746   0.051   9.984  1.4396  1.4136  0.5922
   58CHL1    C1 6742   3.003  -0.019   9.953 -0.4935  0.1062  0.1640
   58CHL1   H1A 6743   2.970  -0.106   9.892  0.5934  1.5321 -2.6487
   58CHL1   H1B 6744   3.112   0.002   9.949 -0.8574  2.0954 -0.9271
   58CHL1    C2 6745   2.966  -0.045  10.100  0.1500 -0.2712 -0.5887
   58CHL1   H2A 6746   3.027  -0.133  10.129  0.2196 -0.5835 -1.6132
   58CHL1   H2B 6747   2.861  -0.082  10.102  0.2976 -0.6723  0.3992
   58CHL1   C20 6748   3.014   0.195   9.193  0.1469 -0.0662 -0.5069
   58CHL1   H20 6749   2.906   0.217   9.178  0.2381 -0.2475 -1.5006
   58CHL1   C21 6750   3.022   0.040   9.171 -1.0230 -0.2268  0.0753
   58CHL1  H21A 6751   2.933  -0.026   9.182  0.6799 -2.5657  0.4881
   58CHL1  H21B 6752   3.104   0.009   9.239  1.2234  1.5015 -1.6822
   58CHL1  H21C 6753   3.066   0.013   9.072  0.0099 -0.2013  0.5155
   58CHL1   C22 6754   3.086   0.277   9.091  0.5577  0.0950 -0.1948
   58CHL1  H22A 6755   3.101   0.385   9.111 -0.1780  0.0437  0.6760
   58CHL1  H22B 6756   3.188   0.238   9.071  2.3363  4.3496 -0.4414
   58CHL1   C23 6757   3.006   0.275   8.962 -0.1673 -0.1152  0.1232
   58CHL1  H23A 6758   2.982   0.173   8.926  1.6459  0.0773 -1.8597
   58CHL1  H23B 6759   2.914   0.336   8.972 -0.0047  0.0267  0.7753
   58CHL1   C24 6760   3.083   0.340   8.844 -0.3137 -0.3083 -0.3403
   58CHL1  H24A 6761   3.108   0.447   8.865 -1.9835 -0.1444  0.9508
   58CHL1  H24B 6762   3.183   0.293   8.834 -0.2790 -0.0611 -1.3232
   58CHL1   C25 6763   3.028   0.333   8.703 -0.2487  0.2052  0.1719
   58CHL1   H25 6764   2.948   0.411   8.696 -0.3422  0.1343  0.4695
   58CHL1   C26 6765   3.126   0.374   8.595 -0.3629 -0.4945 -0.0964
   58CHL1  H26A 6766   3.192   0.449   8.645  2.0110 -1.5987 -1.4181
   58CHL1  H26B 6767   3.196   0.290   8.574  2.4282  0.7200  3.3169
   58CHL1  H26C 6768   3.075   0.407   8.502 -0.9030  0.3344  0.4805
   58CHL1   C27 6769   2.976   0.196   8.671  0.0635  0.6059  0.5251
   58CHL1  H27A 6770   2.940   0.200   8.566 -1.3172  2.5834  0.9990
   58CHL1  H27B 6771   3.056   0.121   8.682  0.1387  0.6633  0.3622
   58CHL1  H27C 6772   2.887   0.176   8.736 -0.2257  1.0222  0.2666
   59CHL1    C3 6773   2.786   4.348  10.357 -1.1402  0.7299  0.1008
   59CHL1    H3 6774   2.731   4.444  10.364  1.1209  2.1565 -0.6088
   59CHL1    O3 6775   2.818   4.329  10.497 -0.7374 -0.1457  0.2751
   59CHL1   H3' 6776   2.874   4.250  10.492 -0.6404 -0.0055 -2.8860
   59CHL1    C4 6777   2.707   4.233  10.304  0.2464 -0.1068  0.0805
   59CHL1   H4A 6778   2.762   4.138  10.321  1.0640  0.2515 -0.4831
   59CHL1   H4B 6779   2.616   4.225  10.367  0.9947  0.5898  1.2736
   59CHL1    C5 6780   2.678   4.252  10.152  0.3848  0.5944 -0.0005
   59CHL1    C6 6781   2.550   4.251  10.103 -0.0473  0.0735 -0.3997
   59CHL1    H6 6782   2.472   4.237  10.180 -0.5972  0.7643 -0.8225
   59CHL1    C7 6783   2.511   4.271   9.959  0.1436  0.0291 -0.2871
   59CHL1   H7A 6784   2.430   4.201   9.931 -0.8425  0.7467  0.6652
   59CHL1   H7B 6785   2.471   4.373   9.944  1.4082  0.5871 -0.0447
   59CHL1    C8 6786   2.632   4.250   9.859  0.3746  0.0648  0.3440
   59CHL1    H8 6787   2.645   4.140   9.851  1.9356  0.3601 -2.5335
   59CHL1   C14 6788   2.606   4.299   9.717 -0.9829  0.5492 -0.6819
   59CHL1   H14 6789   2.586   4.408   9.730  0.8287  0.8583 -0.1807
   59CHL1   C15 6790   2.483   4.247   9.642 -0.2289 -0.2187  0.4284
   59CHL1  H15A 6791   2.488   4.136   9.635  0.8964 -0.2027  0.6853
   59CHL1  H15B 6792   2.392   4.276   9.698  0.9532 -2.0788  3.5411
   59CHL1   C16 6793   2.501   4.315   9.506  0.9377  0.5043 -0.5352
   59CHL1  H16A 6794   2.467   4.243   9.428 -1.6297  1.9159 -0.8502
   59CHL1  H16B 6795   2.454   4.415   9.506 -1.1653 -0.4278 -0.2060
   59CHL1   C17 6796   2.651   4.348   9.499 -0.1880 -0.1243 -0.3521
   59CHL1   H17 6797   2.666   4.456   9.516  2.0602 -0.1036 -1.9785
   59CHL1   C13 6798   2.721   4.286   9.617  0.2757 -0.4780 -0.2298
   59CHL1   C18 6799   2.757   4.137   9.600 -0.3634  0.6591 -0.9128
   59CHL1  H18A 6800   2.848   4.123   9.539  1.4515 -0.7071  1.8816
   59CHL1  H18B 6801   2.791   4.089   9.694  2.0705 -0.0840 -2.1037
   59CHL1  H18C 6802   2.680   4.071   9.554  1.0736 -1.6732 -0.1273
   59CHL1   C12 6803   2.847   4.359   9.674 -0.2881  0.0465  0.9006
   59CHL1  H12A 6804   2.923   4.348   9.594 -0.2058 -0.1142  0.9997
   59CHL1  H12B 6805   2.828   4.468   9.672  2.4814  0.5784 -0.3317
   59CHL1   C11 6806   2.886   4.317   9.811  0.4285  0.6509 -0.6238
   59CHL1  H11A 6807   2.919   4.211   9.803  1.5488  0.8585  0.9167
   59CHL1  H11B 6808   2.971   4.375   9.852 -0.2680 -0.0784  2.0007
   59CHL1    C9 6809   2.764   4.318   9.912 -0.4912  0.0917 -0.3107
   59CHL1    H9 6810   2.743   4.427   9.913 -0.5786  0.1295 -2.1792
   59CHL1   C10 6811   2.794   4.278  10.057 -0.1728  0.1509  0.2131
   59CHL1   C19 6812   2.872   4.142  10.045 -0.1488  0.4527  0.5531
   59CHL1  H19A 6813   2.975   4.169  10.012  0.2868 -2.5382 -0.8787
   59CHL1  H19B 6814   2.878   4.092  10.143 -0.0924 -0.2040  0.2194
   59CHL1  H19C 6815   2.822   4.070   9.977 -0.1184  0.8809  0.0653
   59CHL1    C1 6816   2.884   4.386  10.128 -0.5808 -0.1433  0.1063
   59CHL1   H1A 6817   2.975   4.389  10.064 -0.5882 -0.8665  0.0504
   59CHL1   H1B 6818   2.838   4.487  10.118 -1.4581 -0.6224 -1.0377
   59CHL1    C2 6819   2.918   4.369  10.275  0.2222 -0.3866 -0.4811
   59CHL1   H2A 6820   2.977   4.460  10.300  1.8192 -0.8849 -2.1994
   59CHL1   H2B 6821   2.984   4.280  10.278  1.4355  0.3334 -2.9303
   59CHL1   C20 6822   2.732   4.326   9.366 -0.2618 -0.0870 -0.0529
   59CHL1   H20 6823   2.830   4.284   9.396 -0.4014 -1.9326 -1.9578
   59CHL1   C21 6824   2.768   4.463   9.318 -0.4678  0.2472  0.2676
   59CHL1  H21A 6825   2.808   4.452   9.215 -1.5398 -1.2806 -0.0190
   59CHL1  H21B 6826   2.848   4.509   9.380  0.8163 -1.1212 -0.3129
   59CHL1  H21C 6827   2.686   4.538   9.308  0.8878  1.7640  0.1357
   59CHL1   C22 6828   2.672   4.233   9.269  0.1419  0.1915 -0.1409
   59CHL1  H22A 6829   2.646   4.139   9.321 -0.0610 -0.5471 -1.5563
   59CHL1  H22B 6830   2.577   4.273   9.229 -1.6833 -2.0947  1.5950
   59CHL1   C23 6831   2.752   4.192   9.145 -0.5121  0.7454 -0.3987
   59CHL1  H23A 6832   2.764   4.283   9.083  0.1064  1.0005  0.0857
   59CHL1  H23B 6833   2.851   4.173   9.192 -1.6069  0.8790  2.1597
   59CHL1   C24 6834   2.689   4.080   9.070 -0.4469 -0.0955 -0.3900
   59CHL1  H24A 6835   2.702   3.990   9.135  1.3532 -2.3371 -3.5441
   59CHL1  H24B 6836   2.580   4.095   9.055 -0.0882  1.7078 -1.4066
   59CHL1   C25 6837   2.768   4.052   8.942 -0.1367 -0.1816 -0.3545
   59CHL1   H25 6838   2.878   4.062   8.960  0.4357  0.7541 -3.6404
   59CHL1   C26 6839   2.728   3.919   8.901  0.0413  0.0689 -0.4821
   59CHL1  H26A 6840   2.763   3.832   8.960 -1.6328 -1.9450 -2.2929
   59CHL1  H26B 6841   2.617   3.923   8.906 -0.0677  1.7955 -2.5573
   59CHL1  H26C 6842   2.751   3.900   8.794  1.8199  2.9182 -0.7125
   59CHL1   C27 6843   2.742   4.153   8.835 -0.5071  0.1274 -0.0033
   59CHL1  H27A 6844   2.825   4.146   8.762 -0.2413  2.6481 -0.0241
   59CHL1  H27B 6845   2.641   4.133   8.793 -1.5465 -2.2004  3.1859
   59CHL1  H27C 6846   2.742   4.251   8.888  1.0283 -1.2653  2.8026
   60CHL1    C3 6847   3.122   2.312  10.335  0.1708  0.0168  0.2038
   60CHL1    H3 6848   3.177   2.216  10.328  1.2070  0.5179  1.1924
   60CHL1    O3 6849   3.145   2.343  10.470  0.0560 -0.3892  0.9986
   60CHL1   H3' 6850   3.115   2.433  10.479 -3.3919 -1.1068 -1.1088
   60CHL1    C4 6851   3.180   2.419  10.247 -0.4829  0.6849  0.1448
   60CHL1   H4A 6852   3.130   2.514  10.277  0.8841  0.7722  2.3436
   60CHL1   H4B 6853   3.286   2.438  10.272 -0.9333  1.0977  1.9093
   60CHL1    C5 6854   3.172   2.403  10.094  0.2454  0.2396 -0.4299
   60CHL1    C6 6855   3.274   2.401  10.006 -0.3756  0.2645 -0.0685
   60CHL1    H6 6856   3.381   2.416  10.029 -0.1805 -0.8429 -0.1872
   60CHL1    C7 6857   3.250   2.368   9.862  0.1850 -0.8629 -0.4013
   60CHL1   H7A 6858   3.317   2.433   9.803 -0.2287 -1.2756 -1.3489
   60CHL1   H7B 6859   3.275   2.260   9.850 -0.0641 -0.8948 -0.6543
   60CHL1    C8 6860   3.105   2.387   9.813 -0.3550 -0.5426 -0.5509
   60CHL1    H8 6861   3.066   2.491   9.809 -0.2401 -0.5306 -3.1750
   60CHL1   C14 6862   3.083   2.348   9.666 -0.0560 -0.5105  0.0562
   60CHL1   H14 6863   3.111   2.240   9.671 -0.5225 -0.7542 -1.8452
   60CHL1   C15 6864   3.164   2.413   9.548  0.4061 -0.3271 -0.1464
   60CHL1  H15A 6865   3.174   2.520   9.578 -0.2613 -0.6860  1.4854
   60CHL1  H15B 6866   3.264   2.366   9.544 -0.2615 -1.7585 -0.7384
   60CHL1   C16 6867   3.076   2.379   9.424  0.1977 -0.3038 -0.5110
   60CHL1  H16A 6868   3.073   2.466   9.355  0.9094 -0.5301 -0.8390
   60CHL1  H16B 6869   3.136   2.309   9.361 -0.1373 -3.2402  2.2274
   60CHL1   C17 6870   2.944   2.326   9.476  0.0015 -0.2905  0.6071
   60CHL1   H17 6871   2.975   2.219   9.474  0.4808 -0.1835 -2.8640
   60CHL1   C13 6872   2.936   2.368   9.628 -0.4128  0.6387  0.8580
   60CHL1   C18 6873   2.885   2.514   9.641 -0.1095  0.1219 -0.3307
   60CHL1  H18A 6874   2.784   2.525   9.597  0.1960  0.1889 -1.0467
   60CHL1  H18B 6875   2.898   2.560   9.741  1.2007 -0.7864 -0.0510
   60CHL1  H18C 6876   2.960   2.575   9.585  0.7970 -1.2045 -0.5911
   60CHL1   C12 6877   2.855   2.267   9.706 -0.5145  0.6272  0.2703
   60CHL1  H12A 6878   2.751   2.267   9.669  0.0235 -2.0830 -1.5654
   60CHL1  H12B 6879   2.898   2.164   9.698  0.6889  1.1996 -1.2069
   60CHL1   C11 6880   2.869   2.300   9.854  0.2417 -0.6904  0.2492
   60CHL1  H11A 6881   2.810   2.392   9.873 -0.8066 -0.5166 -3.1899
   60CHL1  H11B 6882   2.812   2.221   9.908 -2.6752  1.5284  0.6622
   60CHL1    C9 6883   3.016   2.314   9.913  0.8257 -0.2202  0.8885
   60CHL1    H9 6884   3.055   2.210   9.907 -1.1956 -0.9476 -1.9830
   60CHL1   C10 6885   3.020   2.373  10.058 -0.7078  0.0776 -0.0246
   60CHL1   C19 6886   2.946   2.512  10.062  1.4798 -0.2411 -0.1963
   60CHL1  H19A 6887   2.836   2.508  10.046  1.0304 -0.7005  2.5582
   60CHL1  H19B 6888   2.950   2.557  10.163  0.7750  0.4307 -0.4553
   60CHL1  H19C 6889   3.006   2.582  10.000  0.9683  0.0498 -0.3716
   60CHL1    C1 6890   2.949   2.269  10.155 -0.2027 -0.2462  0.6901
   60CHL1   H1A 6891   2.840   2.262  10.136 -0.2890  1.2105  0.5615
   60CHL1   H1B 6892   2.988   2.170  10.123 -2.1713 -0.9842  0.4355
   60CHL1    C2 6893   2.974   2.296  10.302 -0.2276 -0.4902 -0.1179
   60CHL1   H2A 6894   2.922   2.221  10.365  0.8330 -0.1598  1.1885
   60CHL1   H2B 6895   2.928   2.391  10.336 -1.4375 -1.2525  0.4720
   60CHL1   C20 6896   2.815   2.335   9.391 -0.0109 -0.0193 -0.2333
   60CHL1   H20 6897   2.722   2.326   9.450 -1.1391  0.3914 -1.8909
   60CHL1   C21 6898   2.827   2.222   9.293  0.2730 -0.2060  0.6455
   60CHL1  H21A 6899   2.825   2.126   9.350  0.3963 -0.4571  0.2384
   60CHL1  H21B 6900   2.925   2.226   9.241  0.8985 -0.0216  1.8056
   60CHL1  H21C 6901   2.741   2.217   9.223 -0.2649  0.7942  1.2113
   60CHL1   C22 6902   2.792   2.467   9.316  0.2701  1.1321 -0.5039
   60CHL1  H22A 6903   2.820   2.560   9.370  0.8547  0.5913  0.1476
   60CHL1  H22B 6904   2.867   2.467   9.234  0.0797  1.0860 -0.6769
   60CHL1   C23 6905   2.652   2.494   9.263 -0.7808 -0.3291  0.3693
   60CHL1  H23A 6906   2.627   2.414   9.190 -0.0603 -0.5447  0.3486
   60CHL1  H23B 6907   2.583   2.508   9.348 -2.4342  1.7785 -1.2157
   60CHL1   C24 6908   2.652   2.629   9.188 -0.4213  0.5921 -0.8589
   60CHL1  H24A 6909   2.690   2.713   9.250 -1.6289  0.5525 -0.0213
   60CHL1  H24B 6910   2.716   2.606   9.100  0.1701  1.3386 -0.6293
   60CHL1   C25 6911   2.525   2.670   9.123  0.1376  0.1447  0.3874
   60CHL1   H25 6912   2.490   2.755   9.185 -1.2996  0.2403 -0.4913
   60CHL1   C26 6913   2.543   2.718   8.982 -0.2538  0.3678  0.5411
   60CHL1  H26A 6914   2.626   2.791   8.976  0.0330  0.1656  1.8505
   60CHL1  H26B 6915   2.583   2.631   8.925  0.4052  0.6278  0.6053
   60CHL1  H26C 6916   2.448   2.760   8.940  1.6026  2.4326 -1.8939
   60CHL1   C27 6917   2.406   2.567   9.120  0.4151  0.5113 -1.0270
   60CHL1  H27A 6918   2.442   2.493   9.045  1.2451 -0.6004  0.4380
   60CHL1  H27B 6919   2.380   2.530   9.221  1.4783  1.4480 -0.3856
   60CHL1  H27C 6920   2.318   2.616   9.074 -0.2316  0.9900  0.6499
   61CHL1    C3 6921   4.140   3.039  10.126  0.7893 -0.2876 -0.3047
   61CHL1    H3 6922   4.074   3.126  10.147 -0.3350 -1.4162  1.1398
   61CHL1    O3 6923   4.145   2.972  10.248  0.5409  0.0941  0.9777
   61CHL1   H3' 6924   4.188   2.893  10.215  1.1573  0.8032 -0.0018
   61CHL1    C4 6925   4.074   2.939  10.026 -0.7740  0.5700 -0.0464
   61CHL1   H4A 6926   4.132   2.844  10.029  0.6570  1.4224  2.3193
   61CHL1   H4B 6927   3.971   2.921  10.063 -0.3561 -1.2114  0.3112
   61CHL1    C5 6928   4.078   3.005   9.887  0.8256 -0.4269  0.3906
   61CHL1    C6 6929   3.964   3.023   9.814 -0.0953 -0.2588 -0.9395
   61CHL1    H6 6930   3.870   2.980   9.852 -0.1106  1.3795  1.0326
   61CHL1    C7 6931   3.949   3.082   9.682  0.0483  0.5040 -0.4460
   61CHL1   H7A 6932   3.860   3.038   9.632 -1.8417  1.8395  1.5297
   61CHL1   H7B 6933   3.924   3.190   9.687 -0.9207  0.2696 -0.0048
   61CHL1    C8 6934   4.079   3.071   9.607 -0.4597 -0.2946  0.3533
   61CHL1    H8 6935   4.098   2.966   9.578  2.0689  0.2365 -0.1111
   61CHL1   C14 6936   4.076   3.149   9.473  1.0113 -0.1927  0.0711
   61CHL1   H14 6937   4.056   3.254   9.504 -0.9073 -0.1434 -1.2119
   61CHL1   C15 6938   3.971   3.112   9.368 -0.5126 -0.3078 -0.3075
   61CHL1  H15A 6939   3.949   3.003   9.357  0.5430 -0.3275 -3.2910
   61CHL1  H15B 6940   3.880   3.160   9.409 -0.8222 -2.2308  1.4067
   61CHL1   C16 6941   4.024   3.171   9.233  0.4205  0.2726 -0.2016
   61CHL1  H16A 6942   4.058   3.081   9.176 -1.3261 -1.5979  1.5162
   61CHL1  H16B 6943   3.949   3.236   9.184  0.2222  0.2515  0.0691
   61CHL1   C17 6944   4.159   3.234   9.275 -0.2247 -0.0020  0.2216
   61CHL1   H17 6945   4.157   3.341   9.303  1.1439  0.6718 -2.0633
   61CHL1   C13 6946   4.202   3.156   9.398 -0.2702 -0.4100 -0.4288
   61CHL1   C18 6947   4.249   3.012   9.362 -0.2503  0.1928 -0.5574
   61CHL1  H18A 6948   4.177   2.949   9.305 -1.7038  0.9946  0.3128
   61CHL1  H18B 6949   4.348   3.017   9.313  0.2752 -0.7562  0.3696
   61CHL1  H18C 6950   4.275   2.950   9.450  2.2332  1.4737 -0.3099
   61CHL1   C12 6951   4.319   3.216   9.490 -0.4022  0.2474 -0.4527
   61CHL1  H12A 6952   4.413   3.212   9.432  0.6320  0.4282  1.1345
   61CHL1  H12B 6953   4.293   3.322   9.511  1.9177  0.6470  0.7222
   61CHL1   C11 6954   4.340   3.160   9.630  0.3016  0.1663  0.0345
   61CHL1  H11A 6955   4.397   3.069   9.604 -2.5016 -1.4524 -0.8701
   61CHL1  H11B 6956   4.400   3.227   9.696  1.0961  0.9874 -1.4857
   61CHL1    C9 6957   4.197   3.122   9.701 -0.2469 -0.0926 -0.0449
   61CHL1    H9 6958   4.156   3.219   9.737  1.1996  0.2227  0.8261
   61CHL1   C10 6959   4.209   3.042   9.834 -0.4458 -0.1189 -0.6545
   61CHL1   C19 6960   4.283   2.907   9.806  0.2337  0.0918  0.2501
   61CHL1  H19A 6961   4.224   2.848   9.732 -0.1792  1.3571 -0.4505
   61CHL1  H19B 6962   4.387   2.917   9.769 -0.6488  3.4038 -1.6910
   61CHL1  H19C 6963   4.291   2.853   9.903 -0.6011 -0.5710 -0.0323
   61CHL1    C1 6964   4.286   3.125   9.945  0.2483  0.3829 -0.0519
   61CHL1   H1A 6965   4.392   3.135   9.911 -0.0573  0.7625 -0.9383
   61CHL1   H1B 6966   4.243   3.227   9.938  0.8143  0.7021  0.8582
   61CHL1    C2 6967   4.286   3.078  10.086  0.5949 -0.5685 -0.7257
   61CHL1   H2A 6968   4.322   3.159  10.154 -1.1864 -1.0224  0.8599
   61CHL1   H2B 6969   4.353   2.991  10.103  0.2140 -0.3740  2.4975
   61CHL1   C20 6970   4.261   3.230   9.151  0.2696  0.1603 -0.5967
   61CHL1   H20 6971   4.308   3.130   9.147  0.0384  0.0214  0.0358
   61CHL1   C21 6972   4.367   3.335   9.182 -0.3205 -0.1319  0.1560
   61CHL1  H21A 6973   4.391   3.339   9.291  0.6494 -2.9583  0.1087
   61CHL1  H21B 6974   4.338   3.438   9.149  0.1454 -0.2089 -0.4976
   61CHL1  H21C 6975   4.465   3.317   9.134 -0.3515  2.3774 -1.0167
   61CHL1   C22 6976   4.197   3.266   9.012 -0.9829 -0.3599  0.0539
   61CHL1  H22A 6977   4.091   3.233   9.023 -0.5366 -1.8643  0.0326
   61CHL1  H22B 6978   4.198   3.376   8.998  0.1859  0.2719  3.8855
   61CHL1   C23 6979   4.257   3.193   8.893 -0.6901 -0.3187  0.7649
   61CHL1  H23A 6980   4.194   3.225   8.807  2.7826  1.6518 -1.2960
   61CHL1  H23B 6981   4.353   3.244   8.868 -0.7536 -0.1685  0.8300
   61CHL1   C24 6982   4.270   3.045   8.886 -0.0884  0.0338 -0.4014
   61CHL1  H24A 6983   4.324   3.009   8.977  0.2581 -0.4534 -0.7969
   61CHL1  H24B 6984   4.174   2.990   8.874 -0.6334  0.8363  0.1421
   61CHL1   C25 6985   4.357   2.997   8.766  0.6525 -0.4233  0.0490
   61CHL1   H25 6986   4.457   3.045   8.778  0.8180 -1.0343  1.2244
   61CHL1   C26 6987   4.375   2.843   8.781 -0.3613  0.2078 -0.5963
   61CHL1  H26A 6988   4.278   2.794   8.758 -0.6589 -1.2881  3.1242
   61CHL1  H26B 6989   4.455   2.805   8.713  1.8901  0.3321  1.8477
   61CHL1  H26C 6990   4.396   2.827   8.888 -0.4450 -0.2834 -0.6494
   61CHL1   C27 6991   4.295   3.042   8.627  0.5091 -0.5456  0.4662
   61CHL1  H27A 6992   4.304   3.152   8.616 -1.6481 -0.3898 -0.2078
   61CHL1  H27B 6993   4.346   2.993   8.542 -0.3721 -1.0456  0.2127
   61CHL1  H27C 6994   4.186   3.020   8.631  0.1764  0.9827  0.5189
   62CHL1    C3 6995   0.559   1.033   9.913 -0.5570  0.2412 -0.5427
   62CHL1    H3 6996   0.503   0.939   9.929 -1.2044  0.7329  0.1438
   62CHL1    O3 6997   0.612   1.087  10.036 -0.1804 -0.5115  0.1392
   62CHL1   H3' 6998   0.605   1.182  10.026  1.1621 -0.3058  0.8880
   62CHL1    C4 6999   0.682   1.005   9.827 -0.7068  0.1593  0.4782
   62CHL1   H4A 7000   0.737   1.101   9.817  0.7950 -0.7165 -0.0102
   62CHL1   H4B 7001   0.755   0.941   9.881  1.3338  0.9171 -1.2280
   62CHL1    C5 7002   0.647   0.951   9.687 -0.0609 -0.7258  0.6051
   62CHL1    C6 7003   0.704   0.844   9.636  0.0509 -0.7680 -0.5860
   62CHL1    H6 7004   0.784   0.794   9.693  0.0875 -0.8827 -0.7357
   62CHL1    C7 7005   0.675   0.784   9.502 -0.3020 -0.2747 -0.2644
   62CHL1   H7A 7006   0.772   0.746   9.461 -0.6396 -0.2348 -1.1177
   62CHL1   H7B 7007   0.610   0.695   9.514 -2.3268  1.0556 -0.8621
   62CHL1    C8 7008   0.603   0.882   9.417 -1.0851  0.3581 -0.6612
   62CHL1    H8 7009   0.668   0.967   9.386 -3.0389  1.9277 -0.6728
   62CHL1   C14 7010   0.566   0.816   9.288 -0.2904  0.6056 -0.5393
   62CHL1   H14 7011   0.495   0.739   9.324  0.0081 -0.2944 -1.8166
   62CHL1   C15 7012   0.660   0.738   9.205  0.3341  0.2156  0.2568
   62CHL1  H15A 7013   0.751   0.794   9.176  0.2299  1.2699  1.8473
   62CHL1  H15B 7014   0.705   0.646   9.249  0.0057 -0.2392 -0.3437
   62CHL1   C16 7015   0.578   0.710   9.082 -0.0280  0.3691  0.3569
   62CHL1  H16A 7016   0.624   0.749   8.988 -2.0860 -0.0941 -0.9029
   62CHL1  H16B 7017   0.559   0.601   9.073 -2.6023  0.7039  0.8356
   62CHL1   C17 7018   0.446   0.787   9.081 -0.2277  0.0103 -0.0292
   62CHL1   H17 7019   0.359   0.737   9.128  0.2079  2.2339  3.5285
   62CHL1   C13 7020   0.477   0.897   9.190  0.2911 -0.1990  0.1893
   62CHL1   C18 7021   0.562   1.018   9.138 -0.1252  0.5466  0.4140
   62CHL1  H18A 7022   0.650   0.985   9.079 -1.0191 -0.1444 -0.5503
   62CHL1  H18B 7023   0.497   1.071   9.066  0.8582  0.5859 -0.4730
   62CHL1  H18C 7024   0.596   1.076   9.227  1.8338 -0.7741  0.6043
   62CHL1   C12 7025   0.352   0.945   9.276  0.0445  0.4039 -0.0569
   62CHL1  H12A 7026   0.287   1.007   9.211  3.0703  0.4286 -3.3750
   62CHL1  H12B 7027   0.292   0.860   9.314  1.6303 -0.2307  1.1616
   62CHL1   C11 7028   0.389   1.027   9.394  0.1271 -0.4094 -0.6240
   62CHL1  H11A 7029   0.441   1.118   9.359  1.7952 -0.3844  1.7154
   62CHL1  H11B 7030   0.295   1.058   9.445 -0.1809 -1.0731 -0.7710
   62CHL1    C9 7031   0.481   0.950   9.496 -0.2907 -0.6952  0.1078
   62CHL1    H9 7032   0.423   0.868   9.543  0.6791 -1.2184  0.4065
   62CHL1   C10 7033   0.536   1.034   9.609 -0.3180 -0.0880 -0.8396
   62CHL1   C19 7034   0.606   1.161   9.565 -0.2703 -1.0456  0.4486
   62CHL1  H19A 7035   0.680   1.142   9.483 -2.8618  0.0668 -2.3484
   62CHL1  H19B 7036   0.539   1.237   9.519  1.6357  1.2180  1.1842
   62CHL1  H19C 7037   0.663   1.207   9.648  0.4777  0.4113 -0.8262
   62CHL1    C1 7038   0.423   1.071   9.702 -0.2986 -0.4281 -0.2085
   62CHL1   H1A 7039   0.380   1.158   9.648 -2.3303 -2.3811 -1.9409
   62CHL1   H1B 7040   0.356   0.987   9.730  0.0402 -0.5612  0.2259
   62CHL1    C2 7041   0.464   1.128   9.843  0.4717 -0.1969 -0.0863
   62CHL1   H2A 7042   0.374   1.152   9.905  0.2767  1.0599 -0.8170
   62CHL1   H2B 7043   0.516   1.223   9.819  0.8614 -0.2473  0.5307
   62CHL1   C20 7044   0.405   0.836   8.937 -0.0648  0.5830  0.8729
   62CHL1   H20 7045   0.479   0.906   8.893  2.3833 -0.7437  2.6380
   62CHL1   C21 7046   0.271   0.905   8.953  0.7112 -0.0056 -0.5678
   62CHL1  H21A 7047   0.223   0.930   8.856 -1.4939  5.0239  1.4447
   62CHL1  H21B 7048   0.292   1.007   8.991 -0.5649 -0.5816  1.9365
   62CHL1  H21C 7049   0.200   0.847   9.016 -0.2914  0.9094 -0.8247
   62CHL1   C22 7050   0.389   0.718   8.838  0.4416  0.5437 -0.7001
   62CHL1  H22A 7051   0.477   0.651   8.849  0.1062  0.3185  0.8343
   62CHL1  H22B 7052   0.308   0.661   8.889 -1.1300  1.9818 -1.5041
   62CHL1   C23 7053   0.354   0.751   8.694  0.0718  0.2694  0.6019
   62CHL1  H23A 7054   0.320   0.658   8.643 -1.3427  0.6245  0.8546
   62CHL1  H23B 7055   0.270   0.823   8.682 -0.7594 -0.7482  0.0537
   62CHL1   C24 7056   0.481   0.802   8.617  0.5970 -0.3304 -0.5557
   62CHL1  H24A 7057   0.545   0.866   8.682  0.2315 -1.7359  1.2979
   62CHL1  H24B 7058   0.550   0.718   8.598  0.8074 -0.0948 -0.8357
   62CHL1   C25 7059   0.450   0.877   8.487 -0.1575  0.0017  0.8578
   62CHL1   H25 7060   0.383   0.811   8.428  0.3826  0.0404  0.1757
   62CHL1   C26 7061   0.379   1.008   8.509 -0.1178 -0.1817  0.4048
   62CHL1  H26A 7062   0.294   1.000   8.581 -0.6959  0.6945 -0.1665
   62CHL1  H26B 7063   0.450   1.086   8.541 -0.7993  0.8133 -0.4431
   62CHL1  H26C 7064   0.344   1.039   8.408  0.4796 -1.6994 -0.2988
   62CHL1   C27 7065   0.582   0.899   8.401 -0.0487 -0.0354  1.0270
   62CHL1  H27A 7066   0.650   0.973   8.449  0.1930  1.1237 -1.0004
   62CHL1  H27B 7067   0.636   0.802   8.393  1.3889  0.7814  0.3380
   62CHL1  H27C 7068   0.547   0.938   8.303 -2.3283 -0.8573  1.4566
   63CHL1    C3 7069   1.087   2.904  10.356 -0.1118  0.3605 -0.0150
   63CHL1    H3 7070   0.977   2.887  10.366 -0.1204  1.2007  1.7535
   63CHL1    O3 7071   1.138   2.902  10.488  0.9109  0.5594  0.4624
   63CHL1   H3' 7072   1.201   2.831  10.501  3.0508  2.3406  0.4157
   63CHL1    C4 7073   1.155   2.789  10.268 -0.1560 -0.5059  0.1520
   63CHL1   H4A 7074   1.264   2.804  10.274 -0.2643 -0.0155  1.1196
   63CHL1   H4B 7075   1.138   2.693  10.322  1.5776 -1.6906 -1.2786
   63CHL1    C5 7076   1.102   2.800  10.129 -0.1100 -0.7571 -0.0055
   63CHL1    C6 7077   1.050   2.698  10.060  0.8423  0.4958  0.2680
   63CHL1    H6 7078   1.038   2.600  10.109 -2.5293  0.2387 -0.8615
   63CHL1    C7 7079   1.007   2.696   9.916  0.4569 -0.4928  0.1873
   63CHL1   H7A 7080   1.041   2.594   9.890 -0.1122 -1.3707  2.6139
   63CHL1   H7B 7081   0.897   2.693   9.903  0.3552  1.8869  0.0212
   63CHL1    C8 7082   1.069   2.813   9.839  0.0404  0.4209  0.2605
   63CHL1    H8 7083   1.176   2.786   9.826 -0.1979 -3.2062  3.8436
   63CHL1   C14 7084   0.997   2.834   9.703 -0.8652  0.1431 -0.7002
   63CHL1   H14 7085   0.892   2.854   9.730 -0.4101 -1.6002  2.9290
   63CHL1   C15 7086   1.000   2.716   9.608  0.0171 -0.0941 -0.6143
   63CHL1  H15A 7087   1.098   2.664   9.613  1.0871  1.7611 -1.2814
   63CHL1  H15B 7088   0.925   2.645   9.647 -0.9167  2.1770  2.0539
   63CHL1   C16 7089   0.972   2.772   9.474 -0.5526  0.6973  0.1589
   63CHL1  H16A 7090   1.060   2.751   9.410  0.4110 -2.6251  2.2940
   63CHL1  H16B 7091   0.890   2.720   9.420  0.4233  1.4633 -2.2022
   63CHL1   C17 7092   0.959   2.926   9.490  0.0256  0.4983  0.4062
   63CHL1   H17 7093   0.851   2.943   9.508 -0.0761 -1.1174  1.5708
   63CHL1   C13 7094   1.035   2.955   9.622 -0.1374 -0.9909  0.8840
   63CHL1   C18 7095   1.187   2.949   9.586 -0.6603  0.6707 -0.0406
   63CHL1  H18A 7096   1.211   2.858   9.527  0.0319 -0.7280  2.2868
   63CHL1  H18B 7097   1.221   3.039   9.531 -0.5672  0.1352 -0.8736
   63CHL1  H18C 7098   1.243   2.942   9.682  0.9920  1.3456 -0.9038
   63CHL1   C12 7099   1.013   3.077   9.702 -0.1588  0.0677 -0.0979
   63CHL1  H12A 7100   1.060   3.162   9.649  1.4181 -1.1732 -0.7958
   63CHL1  H12B 7101   0.904   3.086   9.721 -0.2946 -1.3911 -0.0544
   63CHL1   C11 7102   1.075   3.073   9.847  0.2757 -0.1318 -0.2734
   63CHL1  H11A 7103   1.179   3.107   9.829  0.1502  0.1576 -0.4757
   63CHL1  H11B 7104   1.015   3.151   9.898 -0.4101  0.6759 -2.1966
   63CHL1    C9 7105   1.055   2.945   9.922 -0.0595 -0.3965  0.5698
   63CHL1    H9 7106   0.946   2.950   9.942 -0.2906 -0.5639 -0.5968
   63CHL1   C10 7107   1.119   2.936  10.069  0.9196 -0.0606  0.0965
   63CHL1   C19 7108   1.267   2.969  10.052 -0.5123  0.0593 -0.2440
   63CHL1  H19A 7109   1.311   2.967  10.153 -3.8513 -2.1058  1.3650
   63CHL1  H19B 7110   1.323   2.889   9.998 -1.3965 -1.8404  1.5144
   63CHL1  H19C 7111   1.279   3.066  10.000 -0.8430  0.9325  1.2616
   63CHL1    C1 7112   1.052   3.047  10.152  0.5924 -0.0312  0.3108
   63CHL1   H1A 7113   1.075   3.144  10.103  2.5095 -0.5591  0.0992
   63CHL1   H1B 7114   0.942   3.048  10.136  0.9835  1.5242 -3.1026
   63CHL1    C2 7115   1.100   3.048  10.297 -0.3097  0.3057 -0.3352
   63CHL1   H2A 7116   1.039   3.107  10.368 -1.0995 -0.6129 -0.2140
   63CHL1   H2B 7117   1.206   3.080  10.296 -0.4903  0.9453 -1.8912
   63CHL1   C20 7118   0.990   2.997   9.356 -0.6686  0.0710  0.3427
   63CHL1   H20 7119   1.096   2.972   9.333 -0.5812 -0.0458  0.8550
   63CHL1   C21 7120   0.994   3.155   9.374  0.3821  0.6307  0.1825
   63CHL1  H21A 7121   1.089   3.176   9.428  0.3877 -2.0913  1.3915
   63CHL1  H21B 7122   0.912   3.187   9.441 -1.1374  1.9403 -2.1585
   63CHL1  H21C 7123   0.979   3.208   9.277 -1.4114 -1.1937 -0.6177
   63CHL1   C22 7124   0.908   2.964   9.232 -0.2513  0.4054 -0.7540
   63CHL1  H22A 7125   0.950   3.032   9.155  0.6606  0.4565 -0.2303
   63CHL1  H22B 7126   0.940   2.862   9.200  0.9717  0.2502  0.8252
   63CHL1   C23 7127   0.757   2.984   9.239  0.3671 -0.7432 -0.6105
   63CHL1  H23A 7128   0.715   2.921   9.320  0.9879 -0.7423 -0.2837
   63CHL1  H23B 7129   0.735   3.086   9.279 -2.0916 -1.5641  0.2846
   63CHL1   C24 7130   0.677   2.960   9.105 -0.4084  0.3714 -0.0073
   63CHL1  H24A 7131   0.725   3.012   9.019 -0.7944 -0.2768 -0.6216
   63CHL1  H24B 7132   0.695   2.852   9.084  0.1248 -0.2278  3.0759
   63CHL1   C25 7133   0.523   3.004   9.117 -0.5923 -0.0845  0.6225
   63CHL1   H25 7134   0.517   3.103   9.168 -0.6513 -0.3446  1.1285
   63CHL1   C26 7135   0.464   3.025   8.975  0.1184  0.2944 -0.1589
   63CHL1  H26A 7136   0.477   2.927   8.927  0.2652 -0.2997  1.0541
   63CHL1  H26B 7137   0.357   3.057   8.979 -0.0483 -0.2672 -0.0138
   63CHL1  H26C 7138   0.534   3.092   8.921  1.1502 -1.5953 -1.2535
   63CHL1   C27 7139   0.445   2.904   9.192 -0.0769 -0.1892  0.4766
   63CHL1  H27A 7140   0.466   2.895   9.300 -0.1131 -0.1945  0.4825
   63CHL1  H27B 7141   0.338   2.933   9.178  0.5372  2.0418  0.0476
   63CHL1  H27C 7142   0.460   2.805   9.143 -2.2002 -1.4267  2.1212
   64CHL1    C3 7143   5.574   1.614  10.198 -0.2844  0.5975 -0.9528
   64CHL1    H3 7144   5.488   1.552  10.166 -0.3216  0.8054 -1.2508
   64CHL1    O3 7145   5.604   1.606  10.339 -1.0236  0.1033  0.3276
   64CHL1   H3' 7146   5.532   1.642  10.389  0.7567  3.6454  0.6676
   64CHL1    C4 7147   5.696   1.555  10.124 -0.0471  0.9308  0.3135
   64CHL1   H4A 7148   5.786   1.605  10.165  2.0461 -2.0223 -0.3876
   64CHL1   H4B 7149   5.703   1.448  10.151  3.2141  0.5893 -1.3654
   64CHL1    C5 7150   5.677   1.576   9.974  0.3543  0.5362  0.3319
   64CHL1    C6 7151   5.678   1.464   9.892 -0.1368 -0.1750  0.0807
   64CHL1    H6 7152   5.690   1.366   9.939  0.6439 -0.0804  0.1063
   64CHL1    C7 7153   5.690   1.473   9.741  0.0351 -0.6407  0.4363
   64CHL1   H7A 7154   5.780   1.423   9.699  0.7279  1.9470 -1.4224
   64CHL1   H7B 7155   5.602   1.423   9.695  0.1121  0.2604 -0.7312
   64CHL1    C8 7156   5.702   1.618   9.688 -0.1967  0.3416  0.5482
   64CHL1    H8 7157   5.809   1.646   9.685 -0.3983  1.0110 -0.9872
   64CHL1   C14 7158   5.647   1.623   9.545 -0.1295 -0.5928  0.1902
   64CHL1   H14 7159   5.540   1.591   9.544 -0.3357  0.0973 -0.9492
   64CHL1   C15 7160   5.712   1.544   9.430  0.1602 -0.1899  0.0146
   64CHL1  H15A 7161   5.821   1.552   9.446  0.4625  0.6199 -2.1368
   64CHL1  H15B 7162   5.686   1.436   9.427 -1.0804  0.0940 -2.5691
   64CHL1   C16 7163   5.668   1.607   9.300 -0.3521  0.1384  0.0779
   64CHL1  H16A 7164   5.764   1.624   9.245  0.7465 -1.2896  1.4488
   64CHL1  H16B 7165   5.612   1.533   9.240  2.2922 -1.2305 -0.8921
   64CHL1   C17 7166   5.585   1.737   9.342 -1.0054  0.0148 -0.2358
   64CHL1   H17 7167   5.476   1.716   9.350 -0.9742  0.2116  0.8882
   64CHL1   C13 7168   5.639   1.769   9.486  0.1251  0.4712 -1.0243
   64CHL1   C18 7169   5.784   1.829   9.488 -0.2961  0.2766  0.0493
   64CHL1  H18A 7170   5.786   1.933   9.450  1.9547 -0.0948 -1.0232
   64CHL1  H18B 7171   5.831   1.824   9.589  0.3290  1.8819 -0.1467
   64CHL1  H18C 7172   5.856   1.769   9.429  0.7021  1.3529  0.1447
   64CHL1   C12 7173   5.543   1.847   9.571  0.0473  0.3285 -0.5497
   64CHL1  H12A 7174   5.521   1.947   9.529 -1.8149  0.2244  0.0973
   64CHL1  H12B 7175   5.447   1.791   9.566 -1.0499  2.1367 -0.5075
   64CHL1   C11 7176   5.597   1.857   9.715 -0.3733 -0.0509 -0.2412
   64CHL1  H11A 7177   5.697   1.906   9.721  0.5492 -2.0326  2.3044
   64CHL1  H11B 7178   5.538   1.927   9.779  1.8107  2.1664 -0.5017
   64CHL1    C9 7179   5.620   1.715   9.775  0.1884  0.4070 -0.5982
   64CHL1    H9 7180   5.518   1.671   9.781 -0.1754  1.3876  3.1313
   64CHL1   C10 7181   5.658   1.714   9.927  0.0774 -0.0594  0.0850
   64CHL1   C19 7182   5.786   1.792   9.956 -0.5519 -0.5733  1.1075
   64CHL1  H19A 7183   5.869   1.762   9.888 -0.8870 -1.8292  1.2344
   64CHL1  H19B 7184   5.767   1.897   9.925  1.0700 -0.5291  0.1207
   64CHL1  H19C 7185   5.821   1.792  10.062  0.5231 -0.6638  0.7610
   64CHL1    C1 7186   5.539   1.780  10.017 -0.1478 -0.2518 -0.1587
   64CHL1   H1A 7187   5.525   1.890  10.014 -0.6891 -0.3308 -1.6928
   64CHL1   H1B 7188   5.438   1.744   9.986 -0.4053  0.3769 -0.0646
   64CHL1    C2 7189   5.551   1.759  10.166  0.3179  0.0229 -0.5153
   64CHL1   H2A 7190   5.461   1.804  10.213 -0.0161 -1.8562  0.7423
   64CHL1   H2B 7191   5.643   1.810  10.203  0.7149 -0.8402 -0.3061
   64CHL1   C20 7192   5.591   1.837   9.233 -0.5141  0.2311 -0.3007
   64CHL1   H20 7193   5.688   1.888   9.221  0.0645 -0.6260  0.6104
   64CHL1   C21 7194   5.495   1.947   9.258  0.0635  0.0708  0.4590
   64CHL1  H21A 7195   5.389   1.922   9.282 -0.7358  2.0063 -0.8249
   64CHL1  H21B 7196   5.492   2.016   9.171  1.3655 -0.6667 -0.2062
   64CHL1  H21C 7197   5.542   2.001   9.343  0.5091 -0.7749  0.7655
   64CHL1   C22 7198   5.582   1.783   9.089  0.0484  0.1862  1.0667
   64CHL1  H22A 7199   5.620   1.867   9.027  2.2659 -2.0400 -0.7817
   64CHL1  H22B 7200   5.641   1.693   9.063 -0.3385  0.3104 -0.3143
   64CHL1   C23 7201   5.437   1.755   9.036  0.0625 -1.0106 -0.6633
   64CHL1  H23A 7202   5.390   1.675   9.098 -0.6956  1.6921  2.5887
   64CHL1  H23B 7203   5.372   1.846   9.043  0.5693 -0.5824 -1.3992
   64CHL1   C24 7204   5.434   1.700   8.900  0.0059 -0.0185  0.1347
   64CHL1  H24A 7205   5.484   1.601   8.898  0.3031  0.1449 -1.1462
   64CHL1  H24B 7206   5.326   1.681   8.878  0.8604 -1.4082 -3.6250
   64CHL1   C25 7207   5.496   1.784   8.780 -0.1187  0.8769  0.8822
   64CHL1   H25 7208   5.589   1.829   8.820  1.6635 -1.5011 -0.2966
   64CHL1   C26 7209   5.524   1.699   8.653 -0.5131 -0.0384  0.7986
   64CHL1  H26A 7210   5.601   1.623   8.676  0.0073 -0.0562 -0.8696
   64CHL1  H26B 7211   5.428   1.660   8.612 -0.4766 -0.2857  0.9459
   64CHL1  H26C 7212   5.569   1.761   8.573 -0.4600  1.0721  1.6624
   64CHL1   C27 7213   5.395   1.898   8.743  0.2159  0.0654 -0.3466
   64CHL1  H27A 7214   5.300   1.848   8.713 -1.2104  2.3465  0.1079
   64CHL1  H27B 7215   5.379   1.959   8.835 -0.0328 -2.2607  1.2127
   64CHL1  H27C 7216   5.422   1.949   8.647 -1.0307 -1.5723 -1.6208
   65CHL1    C3 7217   4.281   4.005  10.030  0.1928  0.0254 -0.1511
   65CHL1    H3 7218   4.382   4.050  10.035  0.1197  0.0450  2.3885
   65CHL1    O3 7219   4.257   3.949  10.161  0.0783  0.1443  0.7820
   65CHL1   H3' 7220   4.163   3.959  10.178 -0.5985  0.1185 -2.3609
   65CHL1    C4 7221   4.172   4.112  10.000 -0.3403  0.2808 -0.2508
   65CHL1   H4A 7222   4.083   4.050  10.022  0.5086 -0.6329  0.7007
   65CHL1   H4B 7223   4.191   4.184  10.082  1.6039 -1.1790  0.6548
   65CHL1    C5 7224   4.172   4.164   9.863 -1.8171  0.0301 -1.0086
   65CHL1    C6 7225   4.209   4.294   9.850 -0.2240  0.0363 -0.4727
   65CHL1    H6 7226   4.212   4.357   9.940  1.9665 -0.1763 -0.3435
   65CHL1    C7 7227   4.233   4.355   9.718  0.4228  0.2273 -0.4216
   65CHL1   H7A 7228   4.195   4.459   9.715  0.2228  0.1700  0.1201
   65CHL1   H7B 7229   4.343   4.373   9.707  0.6446  0.3298  1.6332
   65CHL1    C8 7230   4.168   4.274   9.602  0.0983 -0.4147  0.1101
   65CHL1    H8 7231   4.059   4.289   9.589  0.5044  1.7970 -1.1535
   65CHL1   C14 7232   4.227   4.331   9.476  0.5148 -0.4082 -0.1306
   65CHL1   H14 7233   4.337   4.311   9.478  0.4659 -0.6980  1.7127
   65CHL1   C15 7234   4.224   4.480   9.449  0.7305 -0.4326  1.2241
   65CHL1  H15A 7235   4.124   4.512   9.486  0.4459 -1.0399  1.0057
   65CHL1  H15B 7236   4.304   4.523   9.513  0.7478 -1.0768  1.6489
   65CHL1   C16 7237   4.236   4.490   9.295  0.6263 -0.4665 -0.8924
   65CHL1  H16A 7238   4.151   4.538   9.240 -0.0965 -1.1640 -0.4045
   65CHL1  H16B 7239   4.330   4.548   9.283  0.2124  0.0633 -1.7433
   65CHL1   C17 7240   4.254   4.346   9.241 -0.2013  0.0575 -0.4615
   65CHL1   H17 7241   4.362   4.325   9.257 -0.3215  0.2624  0.7754
   65CHL1   C13 7242   4.183   4.257   9.349  0.2807  0.6976  0.9628
   65CHL1   C18 7243   4.032   4.279   9.321 -0.7345  0.0920 -0.3449
   65CHL1  H18A 7244   4.009   4.385   9.297  0.9099  0.4530 -0.4720
   65CHL1  H18B 7245   3.994   4.228   9.230  0.3252  2.6452 -2.3373
   65CHL1  H18C 7246   3.963   4.258   9.405 -0.1033  0.4288  0.2693
   65CHL1   C12 7247   4.231   4.111   9.364  0.4547 -0.4887  0.1603
   65CHL1  H12A 7248   4.219   4.059   9.267  2.2370  1.7447 -1.3407
   65CHL1  H12B 7249   4.340   4.117   9.382  0.6846  1.6029 -1.5655
   65CHL1   C11 7250   4.172   4.037   9.484  0.0916 -0.1517  0.3218
   65CHL1  H11A 7251   4.066   4.026   9.454  0.5243 -2.7921 -0.4802
   65CHL1  H11B 7252   4.223   3.938   9.488  0.6802  0.0727 -0.9717
   65CHL1    C9 7253   4.209   4.126   9.611  0.6916  1.1367 -0.5613
   65CHL1    H9 7254   4.320   4.129   9.608  0.6988  0.2620 -2.8976
   65CHL1   C10 7255   4.169   4.061   9.748  0.7116  0.4215  0.0273
   65CHL1   C19 7256   4.027   4.016   9.719  0.0193  0.0263 -0.5596
   65CHL1  H19A 7257   3.962   4.101   9.689 -0.1746  0.9990  2.2918
   65CHL1  H19B 7258   4.023   3.936   9.642 -1.7375  0.7009 -1.2225
   65CHL1  H19C 7259   3.982   3.969   9.809 -1.1197 -1.2381 -1.7380
   65CHL1    C1 7260   4.269   3.940   9.787 -0.1064  0.1547  0.6984
   65CHL1   H1A 7261   4.236   3.858   9.720 -0.3080  0.7990 -0.0115
   65CHL1   H1B 7262   4.369   3.959   9.744 -0.1633 -1.6148 -0.3198
   65CHL1    C2 7263   4.269   3.891   9.933 -0.7401 -0.2654  0.4494
   65CHL1   H2A 7264   4.345   3.813   9.950 -0.7374 -0.4688 -0.4392
   65CHL1   H2B 7265   4.171   3.840   9.948 -1.0875 -0.1737 -1.2612
   65CHL1   C20 7266   4.233   4.332   9.093 -0.1193 -0.2589 -0.3878
   65CHL1   H20 7267   4.124   4.324   9.075  0.0961 -2.3145 -1.1388
   65CHL1   C21 7268   4.291   4.198   9.043  0.0241 -0.6315  0.0682
   65CHL1  H21A 7269   4.238   4.107   9.078 -0.2336  0.1382  1.7922
   65CHL1  H21B 7270   4.398   4.190   9.072 -0.2657 -0.3631  1.2581
   65CHL1  H21C 7271   4.274   4.184   8.934  1.0417 -1.8319  0.0346
   65CHL1   C22 7272   4.286   4.443   9.000  0.2103  0.3246 -0.6384
   65CHL1  H22A 7273   4.270   4.542   9.048  2.0724  1.2491 -1.7899
   65CHL1  H22B 7274   4.397   4.443   8.997  0.2295 -0.0887 -0.0520
   65CHL1   C23 7275   4.226   4.436   8.862  0.5730 -0.0895 -0.8131
   65CHL1  H23A 7276   4.266   4.351   8.804  2.5493  1.1890 -1.4009
   65CHL1  H23B 7277   4.120   4.407   8.879  1.0975 -2.3232 -1.0253
   65CHL1   C24 7278   4.211   4.561   8.783  1.0958  0.1407  0.2443
   65CHL1  H24A 7279   4.118   4.567   8.721  0.7945 -0.0138  0.6742
   65CHL1  H24B 7280   4.198   4.644   8.856  0.4872  0.3387 -0.0813
   65CHL1   C25 7281   4.343   4.591   8.716  0.0139 -0.5585 -0.3320
   65CHL1   H25 7282   4.420   4.568   8.793 -1.0110 -1.2029  0.5376
   65CHL1   C26 7283   4.390   4.500   8.608  0.1426 -0.0474  0.5072
   65CHL1  H26A 7284   4.480   4.546   8.561 -0.8384  0.4706 -0.9280
   65CHL1  H26B 7285   4.406   4.396   8.644 -1.2789 -0.4190  0.0996
   65CHL1  H26C 7286   4.315   4.493   8.527  0.3071  1.0949  0.2262
   65CHL1   C27 7287   4.348   4.741   8.675  0.2187 -0.4549  0.4575
   65CHL1  H27A 7288   4.450   4.776   8.647 -0.0527  1.5940  1.8402
   65CHL1  H27B 7289   4.282   4.771   8.591  0.9812  0.3386  0.1216
   65CHL1  H27C 7290   4.328   4.801   8.766  1.3959  2.8740 -1.2928
   66CHL1    C3 7291   2.633   3.891  10.606 -0.1680  0.0598 -0.2529
   66CHL1    H3 7292   2.687   3.981  10.572 -0.8581  0.4294 -0.3883
   66CHL1    O3 7293   2.697   3.866  10.732  0.2042 -0.2847  1.2375
   66CHL1   H3' 7294   2.663   3.940  10.783 -0.7163  1.8280 -2.0745
   66CHL1    C4 7295   2.481   3.920  10.626  0.2005 -0.9506  0.3814
   66CHL1   H4A 7296   2.432   3.830  10.670  0.0064 -1.2634 -0.4586
   66CHL1   H4B 7297   2.478   4.005  10.698  2.5534  2.3546 -3.0632
   66CHL1    C5 7298   2.407   3.943  10.494 -0.0792  0.3670 -0.3020
   66CHL1    C6 7299   2.328   4.050  10.481 -0.1479 -1.1603 -0.6669
   66CHL1    H6 7300   2.307   4.105  10.574 -2.4080 -1.3262 -1.0267
   66CHL1    C7 7301   2.248   4.079  10.366  0.1061  0.3122 -0.0643
   66CHL1   H7A 7302   2.139   4.094  10.385  0.0049 -0.5882  0.1361
   66CHL1   H7B 7303   2.285   4.168  10.312  0.0998 -0.2677 -1.0343
   66CHL1    C8 7304   2.246   3.968  10.258 -0.3241 -0.1951 -0.0321
   66CHL1    H8 7305   2.172   3.892  10.292  1.2807 -1.6531  0.4018
   66CHL1   C14 7306   2.204   4.025  10.120  0.5347  0.3870  0.2347
   66CHL1   H14 7307   2.261   4.117  10.094 -2.0407  1.6748 -1.2878
   66CHL1   C15 7308   2.066   4.084  10.114  0.8917 -0.3117 -0.2739
   66CHL1  H15A 7309   1.996   4.008  10.156 -0.8161 -0.2145 -2.7259
   66CHL1  H15B 7310   2.053   4.178  10.172  1.5154  0.1947 -0.9388
   66CHL1   C16 7311   2.020   4.087   9.964 -0.1657  0.2417 -0.1042
   66CHL1  H16A 7312   1.917   4.047   9.953  0.8849 -2.6927 -0.1201
   66CHL1  H16B 7313   2.030   4.192   9.930  2.3137 -0.0861 -0.5323
   66CHL1   C17 7314   2.136   4.011   9.890  0.0506  0.3715  0.6006
   66CHL1   H17 7315   2.214   4.089   9.871  0.1017  0.2070  0.1048
   66CHL1   C13 7316   2.211   3.930  10.003  0.7921 -0.1938  0.0330
   66CHL1   C18 7317   2.125   3.807  10.024 -0.3933 -0.4245 -0.5230
   66CHL1  H18A 7318   2.148   3.750  10.116  2.0112 -0.7578 -1.2760
   66CHL1  H18B 7319   2.016   3.827  10.035 -0.8341 -2.9608  0.4423
   66CHL1  H18C 7320   2.148   3.732   9.946 -2.1579 -0.0655 -1.4534
   66CHL1   C12 7321   2.357   3.889   9.985 -0.1509 -0.0831  0.2540
   66CHL1  H12A 7322   2.375   3.824   9.896 -0.0772  2.9927 -2.1548
   66CHL1  H12B 7323   2.418   3.979   9.965 -0.6661  0.5146  1.3100
   66CHL1   C11 7324   2.398   3.820  10.110  0.0550 -0.0023  0.0229
   66CHL1  H11A 7325   2.343   3.725  10.122 -0.7335  0.2513 -1.3356
   66CHL1  H11B 7326   2.508   3.805  10.098  0.1067  0.7274 -0.5244
   66CHL1    C9 7327   2.385   3.911  10.238 -0.0903 -0.0788 -0.7376
   66CHL1    H9 7328   2.450   3.998  10.216 -0.9713  0.5787 -0.7855
   66CHL1   C10 7329   2.432   3.850  10.373  0.2862 -0.1829 -0.3547
   66CHL1   C19 7330   2.360   3.717  10.403  0.0874 -0.1062 -0.3440
   66CHL1  H19A 7331   2.372   3.646  10.319 -3.1957 -0.6688 -0.4907
   66CHL1  H19B 7332   2.395   3.676  10.500  0.3851  2.6426  0.8006
   66CHL1  H19C 7333   2.250   3.732  10.414  0.1376 -0.5150  0.9002
   66CHL1    C1 7334   2.585   3.815  10.374 -0.4551  0.6834  0.2450
   66CHL1   H1A 7335   2.602   3.725  10.311  0.0756  0.8959  0.0806
   66CHL1   H1B 7336   2.646   3.899  10.334 -3.0524  1.7029 -1.9259
   66CHL1    C2 7337   2.659   3.775  10.508 -0.2968  0.0494  0.0696
   66CHL1   H2A 7338   2.768   3.756  10.507 -0.1497  0.8831 -0.2652
   66CHL1   H2B 7339   2.610   3.683  10.547 -0.4181  0.3933  0.7565
   66CHL1   C20 7340   2.102   3.941   9.751  0.0430  0.0203  0.2883
   66CHL1   H20 7341   2.056   3.843   9.774 -1.2554  0.3636 -0.6802
   66CHL1   C21 7342   2.235   3.929   9.666 -0.4829  0.3725 -0.6320
   66CHL1  H21A 7343   2.212   3.860   9.582 -1.6484  1.8643 -1.5763
   66CHL1  H21B 7344   2.317   3.879   9.722 -0.5411 -2.0632 -2.5619
   66CHL1  H21C 7345   2.266   4.028   9.627  0.7816  0.2225 -0.0643
   66CHL1   C22 7346   2.001   4.030   9.658  0.1180 -0.6101 -0.3545
   66CHL1  H22A 7347   1.901   4.038   9.706 -1.5040 -1.9150 -3.2018
   66CHL1  H22B 7348   2.045   4.132   9.660 -0.2160 -0.4369 -1.1617
   66CHL1   C23 7349   1.968   3.988   9.516 -0.5673  0.3106  0.6008
   66CHL1  H23A 7350   1.895   4.055   9.464 -1.7176 -1.9501 -0.9190
   66CHL1  H23B 7351   2.065   3.994   9.462 -0.7715  1.6251  0.3447
   66CHL1   C24 7352   1.912   3.841   9.493  1.1213 -0.0380 -0.5296
   66CHL1  H24A 7353   1.996   3.780   9.533  0.7754  0.1671  0.5575
   66CHL1  H24B 7354   1.817   3.823   9.548  1.1287 -0.0312 -0.5146
   66CHL1   C25 7355   1.899   3.792   9.344  0.4082 -0.0246 -0.6942
   66CHL1   H25 7356   1.840   3.698   9.348 -1.8240  1.3213  1.2713
   66CHL1   C26 7357   1.814   3.887   9.261 -0.3944 -0.4178 -0.4465
   66CHL1  H26A 7358   1.708   3.885   9.292  0.2279 -1.3661  1.8804
   66CHL1  H26B 7359   1.853   3.991   9.251 -0.7658 -0.3888 -1.7513
   66CHL1  H26C 7360   1.804   3.853   9.156  1.4625  2.0555 -1.5149
   66CHL1   C27 7361   2.039   3.780   9.285 -0.3265  1.1314 -0.7135
   66CHL1  H27A 7362   2.107   3.732   9.359 -1.5379  1.2271  0.4846
   66CHL1  H27B 7363   2.032   3.720   9.191  1.3590 -1.1831  0.5177
   66CHL1  H27C 7364   2.077   3.882   9.263  2.0291  0.2658 -1.0664
   67CHL1    C3 7365   6.071   5.256  10.380  0.0832  0.7255 -0.3209
   67CHL1    H3 7366   6.152   5.329  10.358  0.5499  0.5962  0.9134
   67CHL1    O3 7367   6.065   5.242  10.518  0.2508 -0.2016 -0.2609
   67CHL1   H3' 7368   6.027   5.154  10.518  0.1712 -0.1775 -1.0018
   67CHL1    C4 7369   5.944   5.323  10.344 -0.0558  0.2083  0.1362
   67CHL1   H4A 7370   5.864   5.251  10.370 -0.2485  0.0728 -0.7954
   67CHL1   H4B 7371   5.920   5.411  10.407 -2.3425 -0.3241  0.1285
   67CHL1    C5 7372   5.916   5.338  10.194  0.0833  0.0786 -0.0794
   67CHL1    C6 7373   5.875   5.451  10.142  0.2722  0.6436  0.0126
   67CHL1    H6 7374   5.870   5.542  10.204  2.8645  0.6834  0.3004
   67CHL1    C7 7375   5.852   5.476   9.996 -0.1141  0.4396 -0.2828
   67CHL1   H7A 7376   5.760   5.535   9.976  0.5572  1.4393 -0.4670
   67CHL1   H7B 7377   5.935   5.533   9.950 -0.3399 -0.1018 -1.4069
   67CHL1    C8 7378   5.835   5.342   9.911  0.5094  0.5089 -0.1734
   67CHL1    H8 7379   5.727   5.319   9.922  0.5177  0.7278  0.4374
   67CHL1   C14 7380   5.875   5.372   9.763  0.4361 -0.3160  0.0393
   67CHL1   H14 7381   5.984   5.395   9.763  0.5640 -0.8651 -1.0735
   67CHL1   C15 7382   5.804   5.491   9.687  0.2823  0.0136 -0.0266
   67CHL1  H15A 7383   5.701   5.491   9.727  0.6789 -1.0652  1.0898
   67CHL1  H15B 7384   5.854   5.589   9.702 -1.1527  1.3608 -3.2291
   67CHL1   C16 7385   5.818   5.453   9.542 -0.3462 -0.2714 -0.3446
   67CHL1  H16A 7386   5.719   5.457   9.491 -1.7007 -1.1437  2.0354
   67CHL1  H16B 7387   5.874   5.527   9.482  2.3632 -1.8697  0.0655
   67CHL1   C17 7388   5.890   5.321   9.537 -0.3603  0.2281  0.4890
   67CHL1   H17 7389   5.998   5.347   9.542 -0.1085 -0.8054  0.6660
   67CHL1   C13 7390   5.855   5.257   9.670  0.1207 -0.4722 -0.5998
   67CHL1   C18 7391   5.702   5.207   9.669  0.1177  1.0363  0.0371
   67CHL1  H18A 7392   5.640   5.282   9.617  0.8775  0.8418 -1.2135
   67CHL1  H18B 7393   5.692   5.104   9.628 -0.6440 -0.1488  2.9332
   67CHL1  H18C 7394   5.659   5.195   9.771 -1.3075 -1.3431 -0.7686
   67CHL1   C12 7395   5.941   5.140   9.715  0.0858 -0.1678  0.1823
   67CHL1  H12A 7396   5.915   5.048   9.658 -2.0058  0.0336  0.7455
   67CHL1  H12B 7397   6.045   5.170   9.687  0.1430  0.0897  0.6712
   67CHL1   C11 7398   5.933   5.106   9.861  0.4424  0.9429 -0.1081
   67CHL1  H11A 7399   5.837   5.051   9.870  0.6079  0.2137 -2.2538
   67CHL1  H11B 7400   5.996   5.024   9.902 -0.1943  0.9240  0.8796
   67CHL1    C9 7401   5.937   5.232   9.960 -0.1759  0.9356 -0.3932
   67CHL1    H9 7402   6.037   5.277   9.944 -0.0299  0.3501 -1.1784
   67CHL1   C10 7403   5.936   5.210  10.110  0.1055 -0.8410 -0.3885
   67CHL1   C19 7404   5.813   5.109  10.124 -0.2199 -0.6486 -0.9866
   67CHL1  H19A 7405   5.779   5.111  10.230 -0.0853 -1.7871 -0.9092
   67CHL1  H19B 7406   5.729   5.145  10.062  0.7053 -0.0368 -1.9178
   67CHL1  H19C 7407   5.831   5.002  10.100  1.8863 -0.8779  1.1912
   67CHL1    C1 7408   6.062   5.145  10.154  0.3967 -0.4098  0.1108
   67CHL1   H1A 7409   6.086   5.053  10.097 -0.6771  0.0212 -1.0610
   67CHL1   H1B 7410   6.150   5.209  10.132 -0.2626 -0.0142 -1.4844
   67CHL1    C2 7411   6.077   5.122  10.304 -0.1451 -0.1889  0.1769
   67CHL1   H2A 7412   6.173   5.081  10.341 -1.8304 -2.0248  2.9040
   67CHL1   H2B 7413   5.989   5.062  10.337 -1.7589  1.0696 -1.5812
   67CHL1   C20 7414   5.866   5.236   9.405  0.8208  0.1175  0.7383
   67CHL1   H20 7415   5.775   5.173   9.415 -0.0855  1.1204 -0.7559
   67CHL1   C21 7416   5.989   5.137   9.384 -0.3067  0.1990  0.0888
   67CHL1  H21A 7417   6.001   5.066   9.469 -2.2470 -1.8822 -1.2767
   67CHL1  H21B 7418   6.083   5.197   9.383  1.1960 -2.0636 -0.7333
   67CHL1  H21C 7419   5.978   5.085   9.287 -1.2613  1.5347 -0.5596
   67CHL1   C22 7420   5.852   5.320   9.271 -0.2620  0.6130 -0.4991
   67CHL1  H22A 7421   5.786   5.407   9.292  0.6339  1.4924 -1.2068
   67CHL1  H22B 7422   5.953   5.357   9.245  0.4374 -0.4857  0.5950
   67CHL1   C23 7423   5.800   5.233   9.155  0.2810  0.2648  0.6857
   67CHL1  H23A 7424   5.882   5.167   9.120 -1.2085 -0.9638 -0.6323
   67CHL1  H23B 7425   5.711   5.171   9.178  0.2110 -0.0946 -0.5249
   67CHL1   C24 7426   5.769   5.318   9.039  0.3508  0.0916  0.2731
   67CHL1  H24A 7427   5.670   5.364   9.056 -0.1042 -1.2629  1.5443
   67CHL1  H24B 7428   5.849   5.393   9.021  0.5362 -0.0600  0.4500
   67CHL1   C25 7429   5.756   5.243   8.908  0.3628 -0.6502  0.2703
   67CHL1   H25 7430   5.690   5.155   8.927 -1.6502  0.7080 -0.0400
   67CHL1   C26 7431   5.700   5.322   8.782 -0.0081 -0.2309  0.1424
   67CHL1  H26A 7432   5.753   5.409   8.738  1.1381 -1.5345 -1.1611
   67CHL1  H26B 7433   5.688   5.247   8.700  0.9559  0.1427 -0.3543
   67CHL1  H26C 7434   5.602   5.368   8.809  1.2105  2.3724  0.3590
   67CHL1   C27 7435   5.892   5.196   8.860 -0.1182 -0.1391 -0.2557
   67CHL1  H27A 7436   5.878   5.135   8.768 -0.6746  0.6511 -0.7035
   67CHL1  H27B 7437   5.961   5.281   8.843 -1.6234  1.0760 -0.5317
   67CHL1  H27C 7438   5.935   5.120   8.929  0.3172 -0.3912 -0.7961
   68CHL1    C3 7439   3.150   5.831  10.332 -0.4251  0.8033  0.2806
   68CHL1    H3 7440   3.246   5.883  10.311  0.3696 -1.0857 -0.9367
   68CHL1    O3 7441   3.130   5.838  10.474 -0.3616 -0.0723  0.0854
   68CHL1   H3' 7442   3.074   5.763  10.491  2.7420 -2.7178 -0.3216
   68CHL1    C4 7443   3.027   5.888  10.268  0.0355 -0.7220 -0.6020
   68CHL1   H4A 7444   2.935   5.841  10.308 -0.6400  1.2524  0.2860
   68CHL1   H4B 7445   3.021   5.996  10.293  3.0321 -0.2549 -1.5258
   68CHL1    C5 7446   3.042   5.877  10.114  0.3594 -0.3949 -0.0545
   68CHL1    C6 7447   3.025   5.987  10.040 -0.4813  0.4305  1.2584
   68CHL1    H6 7448   2.993   6.078  10.092  1.6903  2.3002 -0.4911
   68CHL1    C7 7449   3.038   5.974   9.892  0.2594  0.5633  0.6370
   68CHL1   H7A 7450   2.955   6.031   9.843 -0.4326 -0.8642  0.0800
   68CHL1   H7B 7451   3.125   6.020   9.840  0.4249 -0.0991  0.3276
   68CHL1    C8 7452   3.037   5.835   9.837  0.4149  0.3076  0.8666
   68CHL1    H8 7453   2.933   5.796   9.836  0.7385 -0.6779 -1.6191
   68CHL1   C14 7454   3.097   5.840   9.696 -0.3083  0.0935  0.4931
   68CHL1   H14 7455   3.206   5.858   9.701 -0.4961  1.3104  0.4777
   68CHL1   C15 7456   3.047   5.949   9.595 -0.0494 -0.4254  0.1612
   68CHL1  H15A 7457   2.944   5.986   9.613 -0.7980 -3.0355  1.7045
   68CHL1  H15B 7458   3.112   6.039   9.605 -1.3531  0.4624  0.9262
   68CHL1   C16 7459   3.069   5.890   9.458 -0.3523 -0.1981  0.9313
   68CHL1  H16A 7460   2.968   5.869   9.416 -0.1567  0.3131  0.1868
   68CHL1  H16B 7461   3.117   5.962   9.389 -0.1321 -0.9151  0.3227
   68CHL1   C17 7462   3.132   5.749   9.482 -0.3477 -0.0148  0.8644
   68CHL1   H17 7463   3.241   5.764   9.495  0.0884 -2.6927  0.9061
   68CHL1   C13 7464   3.083   5.702   9.626  1.1660 -0.4879  0.0101
   68CHL1   C18 7465   2.935   5.658   9.627 -0.0185  0.4021 -0.1377
   68CHL1  H18A 7466   2.910   5.611   9.724  0.6631  0.5829  0.1293
   68CHL1  H18B 7467   2.863   5.741   9.611 -0.4434  0.3544  1.4041
   68CHL1  H18C 7468   2.918   5.587   9.543  1.3746  0.3537 -0.4016
   68CHL1   C12 7469   3.170   5.604   9.704 -0.4306 -0.8835 -0.5195
   68CHL1  H12A 7470   3.167   5.507   9.649  0.0665 -0.7351 -0.8132
   68CHL1  H12B 7471   3.273   5.645   9.700 -0.8463  0.2462  0.0385
   68CHL1   C11 7472   3.131   5.596   9.852  0.8734  0.0881  0.5134
   68CHL1  H11A 7473   3.036   5.539   9.853  1.2938 -0.6659 -0.6557
   68CHL1  H11B 7474   3.196   5.528   9.911 -0.2149 -1.4757 -0.0270
   68CHL1    C9 7475   3.123   5.741   9.920 -0.3598  0.1963  0.3441
   68CHL1    H9 7476   3.224   5.789   9.917 -1.1812  2.0401  0.5673
   68CHL1   C10 7477   3.079   5.733  10.064 -0.6953  0.0887  0.0398
   68CHL1   C19 7478   2.952   5.650  10.080  0.3936  0.2929 -0.2285
   68CHL1  H19A 7479   2.972   5.544  10.057  1.5343  0.3815  0.3048
   68CHL1  H19B 7480   2.931   5.656  10.189  0.1473  3.0684 -0.3383
   68CHL1  H19C 7481   2.874   5.677  10.006  0.9805 -0.7860 -1.2732
   68CHL1    C1 7482   3.188   5.668  10.147  0.1325 -0.9923  0.1711
   68CHL1   H1A 7483   3.192   5.559  10.127 -0.9722 -0.5336 -3.2357
   68CHL1   H1B 7484   3.285   5.713  10.116 -1.3279  2.0838 -0.2889
   68CHL1    C2 7485   3.177   5.675  10.298 -0.5900 -0.5938  0.4503
   68CHL1   H2A 7486   3.266   5.633  10.348  0.1059  0.0120 -0.2609
   68CHL1   H2B 7487   3.087   5.625  10.341  0.3967 -2.2149  0.7146
   68CHL1   C20 7488   3.108   5.652   9.360 -0.2836 -0.1792  0.1130
   68CHL1   H20 7489   2.997   5.650   9.350 -0.2901  0.1911  0.0787
   68CHL1   C21 7490   3.167   5.517   9.399  0.3888  0.1458  0.1750
   68CHL1  H21A 7491   3.172   5.458   9.304  0.9900 -0.0326  0.3190
   68CHL1  H21B 7492   3.093   5.470   9.468 -1.2368  4.9398  2.1394
   68CHL1  H21C 7493   3.268   5.525   9.442  0.2786  0.0573  0.4483
   68CHL1   C22 7494   3.158   5.707   9.229 -0.1389 -0.9197  0.1144
   68CHL1  H22A 7495   3.134   5.816   9.221  0.6001 -0.6374  1.3960
   68CHL1  H22B 7496   3.267   5.690   9.215 -0.0981  0.2579 -1.3101
   68CHL1   C23 7497   3.094   5.633   9.112  0.2351  0.3124  0.7064
   68CHL1  H23A 7498   3.129   5.529   9.129  1.9296  1.2112  3.3894
   68CHL1  H23B 7499   2.983   5.631   9.113  0.2444 -0.2182  1.4499
   68CHL1   C24 7500   3.145   5.677   8.976 -0.8460  0.1846  0.3310
   68CHL1  H24A 7501   3.121   5.785   8.970  1.2170  0.7971  2.0222
   68CHL1  H24B 7502   3.255   5.668   8.982 -0.9268 -1.3347  0.1623
   68CHL1   C25 7503   3.100   5.592   8.860 -0.1201 -0.0291  0.1929
   68CHL1   H25 7504   3.143   5.639   8.769 -1.0480  0.0439 -0.2277
   68CHL1   C26 7505   3.130   5.445   8.875 -0.8252  0.4388  0.3350
   68CHL1  H26A 7506   3.071   5.390   8.952 -1.3369  0.1695 -0.2439
   68CHL1  H26B 7507   3.127   5.399   8.774  2.1380  2.1345 -0.6698
   68CHL1  H26C 7508   3.238   5.437   8.898 -1.3494  1.3352  3.5757
   68CHL1   C27 7509   2.951   5.608   8.839  0.9748 -0.0503 -0.8421
   68CHL1  H27A 7510   2.920   5.544   8.754  0.4830  0.9819 -1.4647
   68CHL1  H27B 7511   2.890   5.589   8.929  0.3260 -0.2783 -1.3235
   68CHL1  H27C 7512   2.922   5.711   8.808 -1.6283 -1.0101 -1.8808
   69CHL1    C3 7513   1.908   2.103   6.804 -0.8129 -0.6353  0.4505
   69CHL1    H3 7514   1.810   2.050   6.806 -1.0375 -0.2621  2.9073
   69CHL1    O3 7515   1.958   2.123   6.675 -0.4268 -0.1106  0.1389
   69CHL1   H3' 7516   1.890   2.181   6.638  1.7183  1.8663 -0.9273
   69CHL1    C4 7517   1.893   2.241   6.871  0.5766  0.1911  0.3659
   69CHL1   H4A 7518   1.983   2.302   6.847  0.3178  1.3579  2.1033
   69CHL1   H4B 7519   1.800   2.280   6.823 -0.5704  0.6918  2.8040
   69CHL1    C5 7520   1.869   2.241   7.019 -0.0260 -0.9737 -0.6096
   69CHL1    C6 7521   1.762   2.303   7.073  0.0232 -0.3900 -0.3898
   69CHL1    H6 7522   1.693   2.357   7.007 -0.4162 -1.0428 -0.4679
   69CHL1    C7 7523   1.731   2.305   7.223  0.6012  0.2216 -0.2800
   69CHL1   H7A 7524   1.690   2.406   7.245 -3.4699 -1.1621 -0.8095
   69CHL1   H7B 7525   1.653   2.234   7.258 -1.2994  2.8628  1.2000
   69CHL1    C8 7526   1.859   2.263   7.304  0.0415 -0.0480 -0.2728
   69CHL1    H8 7527   1.933   2.346   7.301 -0.5106  0.5647  1.4225
   69CHL1   C14 7528   1.831   2.256   7.456 -0.4461 -0.1522  0.0554
   69CHL1   H14 7529   1.742   2.188   7.463 -1.0492  0.5037 -0.9851
   69CHL1   C15 7530   1.772   2.385   7.521  0.1713 -0.6410  0.0691
   69CHL1  H15A 7531   1.832   2.473   7.489 -0.3134 -0.7202 -1.1330
   69CHL1  H15B 7532   1.667   2.406   7.491 -0.3466 -1.3237  1.3375
   69CHL1   C16 7533   1.788   2.351   7.667  0.2132  0.3481 -0.6024
   69CHL1  H16A 7534   1.838   2.435   7.719  1.6753 -0.9238  0.1268
   69CHL1  H16B 7535   1.691   2.341   7.722  1.7614 -1.2176  2.0835
   69CHL1   C17 7536   1.880   2.229   7.686  0.3185 -0.1050  0.0127
   69CHL1   H17 7537   1.805   2.148   7.694  1.0813 -0.6560  2.6749
   69CHL1   C13 7538   1.942   2.211   7.548  0.3929 -0.2280 -0.7448
   69CHL1   C18 7539   2.061   2.301   7.538 -0.1429  0.1916  0.5941
   69CHL1  H18A 7540   2.094   2.323   7.434  1.7192  2.3537  1.5362
   69CHL1  H18B 7541   2.042   2.396   7.593  0.9139  1.2667 -0.8065
   69CHL1  H18C 7542   2.143   2.254   7.595 -0.1013 -0.9516 -0.3730
   69CHL1   C12 7543   1.967   2.070   7.494 -0.3778  0.5339 -0.2236
   69CHL1  H12A 7544   2.049   2.028   7.555 -1.7026 -1.7364  0.1089
   69CHL1  H12B 7545   1.885   1.994   7.495  0.4276 -0.3461  0.5375
   69CHL1   C11 7546   2.024   2.080   7.346  0.0222 -0.7494 -0.5118
   69CHL1  H11A 7547   2.122   2.130   7.341  0.3919 -1.5172 -1.4134
   69CHL1  H11B 7548   2.057   1.979   7.314  0.3527 -0.9100  0.3179
   69CHL1    C9 7549   1.919   2.137   7.248 -0.7629 -0.4885  0.7268
   69CHL1    H9 7550   1.838   2.062   7.247 -0.3572 -0.9392 -0.0618
   69CHL1   C10 7551   1.968   2.158   7.101  0.0762  0.2155  0.2416
   69CHL1   C19 7552   2.103   2.237   7.098  0.0232  0.3246  0.5090
   69CHL1  H19A 7553   2.121   2.287   7.000 -1.4660 -0.3982 -0.1659
   69CHL1  H19B 7554   2.105   2.324   7.166  1.5470  0.1106  0.7726
   69CHL1  H19C 7555   2.186   2.165   7.116 -1.7006 -1.6758  0.8866
   69CHL1    C1 7556   1.975   2.014   7.043  0.1017 -0.0027  0.6863
   69CHL1   H1A 7557   2.047   1.943   7.088  0.6004 -1.4242 -2.1544
   69CHL1   H1B 7558   1.878   1.962   7.060 -0.6125  1.0473 -0.0084
   69CHL1    C2 7559   2.011   2.026   6.895 -0.0450 -0.0825  0.0624
   69CHL1   H2A 7560   2.021   1.928   6.843  1.2286  0.5736 -0.9913
   69CHL1   H2B 7561   2.107   2.081   6.880 -1.9601  3.3060 -0.5583
   69CHL1   C20 7562   1.959   2.225   7.819 -0.5285 -0.6726  0.1050
   69CHL1   H20 7563   2.040   2.301   7.822  0.8532 -2.0395 -1.1076
   69CHL1   C21 7564   2.026   2.085   7.820 -0.5654 -0.7273  0.4725
   69CHL1  H21A 7565   1.944   2.011   7.809 -0.3309 -0.6762 -2.1214
   69CHL1  H21B 7566   2.076   2.058   7.915 -1.3395  0.4322  1.2337
   69CHL1  H21C 7567   2.107   2.074   7.745 -0.7837  3.3536 -0.5944
   69CHL1   C22 7568   1.860   2.249   7.938  0.3631  0.1161  0.4845
   69CHL1  H22A 7569   1.799   2.341   7.925 -0.2868  0.0547  2.6772
   69CHL1  H22B 7570   1.794   2.160   7.947  1.0156 -0.2896  1.4606
   69CHL1   C23 7571   1.938   2.268   8.067 -0.1094  0.0756  0.5051
   69CHL1  H23A 7572   2.001   2.177   8.075  0.9077  0.7291  0.0572
   69CHL1  H23B 7573   1.989   2.366   8.057 -1.9774  0.9259 -1.4312
   69CHL1   C24 7574   1.841   2.264   8.183 -0.5115  0.8860  0.4668
   69CHL1  H24A 7575   1.770   2.350   8.179  2.6175  3.7035  0.4395
   69CHL1  H24B 7576   1.793   2.164   8.180 -2.9419  1.9974 -2.3588
   69CHL1   C25 7577   1.912   2.285   8.316 -0.6961 -0.3459 -0.4348
   69CHL1   H25 7578   1.991   2.208   8.334 -0.7915 -0.6848 -1.3763
   69CHL1   C26 7579   1.978   2.426   8.322  0.3025  0.2109  0.1826
   69CHL1  H26A 7580   2.072   2.437   8.265  0.5067  0.7682  0.6282
   69CHL1  H26B 7581   1.901   2.500   8.289 -0.8322 -0.3426  1.5000
   69CHL1  H26C 7582   2.010   2.441   8.427 -0.0116  0.9177  0.1825
   69CHL1   C27 7583   1.808   2.284   8.427  0.3913 -0.2998  0.4614
   69CHL1  H27A 7584   1.729   2.207   8.410 -1.3724  0.7098  3.3297
   69CHL1  H27B 7585   1.849   2.268   8.529 -0.6827 -0.4099  0.8916
   69CHL1  H27C 7586   1.752   2.380   8.429  2.8163  1.2005  0.3128
   70CHL1    C3 7587   1.093   5.777   7.000 -0.0284 -0.5094 -0.0156
   70CHL1    H3 7588   1.025   5.705   7.049 -0.8206 -0.4284 -0.9515
   70CHL1    O3 7589   1.082   5.763   6.858  0.3329 -0.9365 -0.1813
   70CHL1   H3' 7590   1.164   5.803   6.828 -0.6363  0.8381 -0.5766
   70CHL1    C4 7591   1.068   5.926   7.048 -0.1406  0.8458  0.1413
   70CHL1   H4A 7592   1.155   5.981   7.007 -1.3512  1.2188 -2.0880
   70CHL1   H4B 7593   0.978   5.968   6.998 -0.2398 -0.0245 -0.4391
   70CHL1    C5 7594   1.064   5.932   7.196  0.3911 -0.2099 -0.0684
   70CHL1    C6 7595   0.949   5.972   7.250  0.1467 -0.0418  0.3162
   70CHL1    H6 7596   0.863   6.013   7.194 -0.2854 -0.9745  0.2777
   70CHL1    C7 7597   0.925   5.975   7.400 -0.5382  0.2378  0.0155
   70CHL1   H7A 7598   0.870   6.067   7.431 -1.3183  0.1911 -1.1548
   70CHL1   H7B 7599   0.857   5.891   7.423 -2.8513  1.9992  0.0444
   70CHL1    C8 7600   1.064   5.954   7.474  0.0787  0.2985  0.3779
   70CHL1    H8 7601   1.112   6.053   7.461 -2.1432  1.1665 -2.1618
   70CHL1   C14 7602   1.035   5.925   7.618 -0.1919 -0.7048 -0.2721
   70CHL1   H14 7603   0.975   5.832   7.620 -0.5642 -0.4621  0.0478
   70CHL1   C15 7604   0.950   6.025   7.689 -0.3857 -0.7091  0.4485
   70CHL1  H15A 7605   0.983   6.131   7.674 -1.2316 -0.1733  2.1603
   70CHL1  H15B 7606   0.852   6.002   7.643 -1.1294  0.5520  1.3254
   70CHL1   C16 7607   0.968   5.996   7.840 -0.0076 -1.0642 -0.3683
   70CHL1  H16A 7608   1.015   6.082   7.893  0.0090 -0.7535 -0.8826
   70CHL1  H16B 7609   0.880   5.956   7.894 -0.0046  0.4625  0.8211
   70CHL1   C17 7610   1.084   5.885   7.847 -0.0778 -0.1526 -0.8824
   70CHL1   H17 7611   1.038   5.784   7.852  0.1797 -0.2212  0.2480
   70CHL1   C13 7612   1.155   5.896   7.707 -0.1786  0.3521  0.3436
   70CHL1   C18 7613   1.253   6.017   7.713  0.1721 -0.4474 -0.3364
   70CHL1  H18A 7614   1.352   5.998   7.760 -0.6880  0.4432  1.9711
   70CHL1  H18B 7615   1.279   6.050   7.610  0.1833 -2.6138 -1.0867
   70CHL1  H18C 7616   1.205   6.101   7.768 -0.0011  0.7731 -2.2299
   70CHL1   C12 7617   1.221   5.772   7.644 -0.1438 -0.1290 -0.5762
   70CHL1  H12A 7618   1.309   5.751   7.709 -0.8027 -3.3822 -0.5711
   70CHL1  H12B 7619   1.148   5.688   7.650  0.1069 -0.2807  0.6281
   70CHL1   C11 7620   1.259   5.793   7.497 -0.2352  0.0873 -0.0806
   70CHL1  H11A 7621   1.340   5.870   7.496 -0.6231  0.5481 -2.6714
   70CHL1  H11B 7622   1.304   5.695   7.469 -0.7094 -0.1129 -0.1477
   70CHL1    C9 7623   1.149   5.836   7.415 -0.4562 -0.1482  0.1899
   70CHL1    H9 7624   1.078   5.752   7.399  0.0236 -0.0643 -3.1077
   70CHL1   C10 7625   1.187   5.869   7.273  0.1161  0.4175 -0.0805
   70CHL1   C19 7626   1.311   5.964   7.271 -0.6590  0.4842 -0.0899
   70CHL1  H19A 7627   1.404   5.905   7.290 -1.1212 -0.0092  0.7301
   70CHL1  H19B 7628   1.320   6.019   7.175  0.8085 -2.0281 -1.5190
   70CHL1  H19C 7629   1.309   6.038   7.354  3.1961  0.9868 -0.2423
   70CHL1    C1 7630   1.241   5.731   7.205  0.0612 -0.0840 -0.4495
   70CHL1   H1A 7631   1.344   5.713   7.243  0.2290  1.0363 -0.3227
   70CHL1   H1B 7632   1.177   5.648   7.240 -0.3145  1.5526  3.1594
   70CHL1    C2 7633   1.239   5.734   7.045  0.3459  0.5919  0.5937
   70CHL1   H2A 7634   1.268   5.640   6.993 -0.1667  0.2063  0.9843
   70CHL1   H2B 7635   1.305   5.812   7.002 -0.4084 -0.1103 -2.0635
   70CHL1   C20 7636   1.167   5.901   7.975  0.1608  0.0309  0.0418
   70CHL1   H20 7637   1.229   5.992   7.975  1.6192 -0.9346 -0.0753
   70CHL1   C21 7638   1.269   5.784   8.000  0.6931  0.2837  0.4136
   70CHL1  H21A 7639   1.329   5.751   7.913  1.5361  0.6911  0.8288
   70CHL1  H21B 7640   1.218   5.700   8.052  1.7554 -0.2980  0.5304
   70CHL1  H21C 7641   1.344   5.834   8.065  4.3096 -1.3764 -2.1391
   70CHL1   C22 7642   1.081   5.915   8.109 -0.2790  0.3036 -0.1422
   70CHL1  H22A 7643   1.028   6.011   8.089  2.3510  1.2482 -3.4641
   70CHL1  H22B 7644   1.015   5.831   8.136 -0.5474  0.2208 -1.0273
   70CHL1   C23 7645   1.170   5.959   8.235 -0.6080 -0.0850 -0.1171
   70CHL1  H23A 7646   1.228   5.872   8.271 -0.2516  0.2642  0.1606
   70CHL1  H23B 7647   1.234   6.045   8.205  1.8925 -1.0753  1.9690
   70CHL1   C24 7648   1.096   6.008   8.352 -0.0481 -0.0463 -0.2276
   70CHL1  H24A 7649   1.020   6.084   8.324  1.2701  2.0422  1.5992
   70CHL1  H24B 7650   1.040   5.919   8.389  1.3150 -0.7420  0.2057
   70CHL1   C25 7651   1.177   6.078   8.457  0.1753 -0.3917 -0.5047
   70CHL1   H25 7652   1.279   6.068   8.416  1.1924  0.4673  1.6557
   70CHL1   C26 7653   1.142   6.223   8.464  0.1271 -0.5389 -0.1079
   70CHL1  H26A 7654   1.161   6.270   8.365 -0.4795 -1.2007 -0.5409
   70CHL1  H26B 7655   1.038   6.239   8.499  0.3463 -0.2934  0.4362
   70CHL1  H26C 7656   1.209   6.276   8.535 -0.9011  1.0187 -0.2543
   70CHL1   C27 7657   1.172   6.008   8.596  0.5267 -0.0218  0.2568
   70CHL1  H27A 7658   1.252   6.057   8.657  0.1360  2.2781 -0.9787
   70CHL1  H27B 7659   1.070   6.030   8.632  0.2726 -0.1473 -0.3775
   70CHL1  H27C 7660   1.190   5.898   8.589  0.5065 -0.2070  2.4459
   71CHL1    C3 7661   2.172   0.929   6.941  0.0205  0.4385 -0.0964
   71CHL1    H3 7662   2.215   0.828   6.959  0.8805  0.3254 -2.4294
   71CHL1    O3 7663   2.140   0.920   6.806 -0.0761 -0.1215 -0.3802
   71CHL1   H3' 7664   2.044   0.913   6.797 -0.0817  1.7863 -2.6178
   71CHL1    C4 7665   2.043   0.963   7.014  0.1736  0.2353  0.5043
   71CHL1   H4A 7666   2.007   1.059   6.973  0.9420 -0.0800 -0.9997
   71CHL1   H4B 7667   1.967   0.885   6.989  0.4878  0.0340  0.1639
   71CHL1    C5 7668   2.071   0.965   7.158  0.7877  0.3771 -0.3961
   71CHL1    C6 7669   2.000   0.886   7.243 -1.0604  0.0836  0.0611
   71CHL1    H6 7670   1.916   0.826   7.204 -0.1838 -1.5480  0.6123
   71CHL1    C7 7671   2.023   0.877   7.389  0.1344  0.5019 -0.2169
   71CHL1   H7A 7672   1.923   0.886   7.438 -0.1583  1.1928 -0.9146
   71CHL1   H7B 7673   2.071   0.780   7.413 -0.3273  0.1057 -0.8701
   71CHL1    C8 7674   2.120   0.986   7.451  0.0597  0.5152  0.1612
   71CHL1    H8 7675   2.053   1.074   7.461 -0.4683  0.2010 -0.5869
   71CHL1   C14 7676   2.174   0.951   7.587  0.7498  0.5894 -1.2097
   71CHL1   H14 7677   2.223   0.851   7.585 -2.3862 -1.2258  1.8786
   71CHL1   C15 7678   2.060   0.926   7.695  0.6718 -0.1128 -0.2188
   71CHL1  H15A 7679   1.989   1.011   7.687 -0.9716 -1.4327 -0.2426
   71CHL1  H15B 7680   1.993   0.840   7.673 -2.6232  1.6248  1.9734
   71CHL1   C16 7681   2.138   0.920   7.823 -1.0834 -0.4375  0.1918
   71CHL1  H16A 7682   2.088   0.962   7.913 -1.4909  0.8540 -0.6017
   71CHL1  H16B 7683   2.160   0.812   7.834  1.1685 -0.2191 -1.2312
   71CHL1   C17 7684   2.276   0.981   7.799 -0.0718 -0.4535  0.2507
   71CHL1   H17 7685   2.351   0.902   7.780 -0.9008 -0.6283 -2.7672
   71CHL1   C13 7686   2.256   1.056   7.655 -0.0380 -1.3373 -0.3451
   71CHL1   C18 7687   2.188   1.196   7.670 -1.0769  0.3575 -0.0073
   71CHL1  H18A 7688   2.152   1.223   7.569 -2.0323 -1.9133 -0.3423
   71CHL1  H18B 7689   2.099   1.198   7.737 -0.0835 -0.0593  1.3775
   71CHL1  H18C 7690   2.256   1.273   7.712 -1.4002  1.1723 -0.9597
   71CHL1   C12 7691   2.378   1.078   7.561 -0.1086  0.3153  0.1708
   71CHL1  H12A 7692   2.452   1.156   7.587 -0.9102  1.9988 -2.2219
   71CHL1  H12B 7693   2.421   0.976   7.546 -0.6437  0.0142  0.6485
   71CHL1   C11 7694   2.331   1.111   7.416 -0.2996 -0.0022 -0.3513
   71CHL1  H11A 7695   2.291   1.214   7.411  0.0460  0.1890  0.7342
   71CHL1  H11B 7696   2.419   1.110   7.348 -1.0424 -2.3836 -1.4027
   71CHL1    C9 7697   2.230   1.013   7.355 -0.2954 -0.3260  0.8310
   71CHL1    H9 7698   2.292   0.921   7.348  0.6154  0.2874  0.6789
   71CHL1   C10 7699   2.186   1.046   7.215  0.0829  0.2119 -0.0515
   71CHL1   C19 7700   2.135   1.194   7.200  0.4033 -0.5439 -0.2789
   71CHL1  H19A 7701   2.112   1.220   7.094 -0.7213  0.1252  0.1131
   71CHL1  H19B 7702   2.053   1.214   7.272  1.2344  0.4831  0.4036
   71CHL1  H19C 7703   2.218   1.261   7.228  0.4951 -1.0426  0.6790
   71CHL1    C1 7704   2.305   1.010   7.122 -1.3120  0.4688  0.0190
   71CHL1   H1A 7705   2.397   1.061   7.158 -1.2641 -1.2079  2.4910
   71CHL1   H1B 7706   2.327   0.904   7.147 -2.3739  0.0672 -0.6492
   71CHL1    C2 7707   2.277   1.025   6.974 -0.3341 -0.1209 -0.5830
   71CHL1   H2A 7708   2.357   0.998   6.903 -0.8984 -0.5795 -1.0515
   71CHL1   H2B 7709   2.252   1.133   6.958 -0.5340  0.0323  0.6276
   71CHL1   C20 7710   2.337   1.054   7.925  0.0347  0.2299 -0.8048
   71CHL1   H20 7711   2.275   1.146   7.926 -2.4169 -1.2218  2.8849
   71CHL1   C21 7712   2.481   1.094   7.901 -0.5374 -0.3624 -0.2904
   71CHL1  H21A 7713   2.551   1.012   7.929  1.1113  1.3634  0.9156
   71CHL1  H21B 7714   2.493   1.177   7.974 -2.9905 -0.2453  0.0709
   71CHL1  H21C 7715   2.495   1.134   7.798 -1.3326 -0.9251 -0.6300
   71CHL1   C22 7716   2.321   0.976   8.064 -0.7024 -0.8381 -0.1132
   71CHL1  H22A 7717   2.220   0.928   8.068 -0.8516 -0.4758  0.5830
   71CHL1  H22B 7718   2.399   0.897   8.060 -0.8782 -0.9775 -3.1190
   71CHL1   C23 7719   2.341   1.069   8.192  0.1742  0.7287 -0.1009
   71CHL1  H23A 7720   2.446   1.103   8.202  0.7803 -1.4519  1.5250
   71CHL1  H23B 7721   2.265   1.151   8.185 -0.1311  0.5070  0.5790
   71CHL1   C24 7722   2.324   0.984   8.323 -0.1646 -0.2415 -0.0023
   71CHL1  H24A 7723   2.224   0.936   8.323  0.5828 -1.8853 -1.2217
   71CHL1  H24B 7724   2.401   0.904   8.333  2.0521  1.4808 -2.0957
   71CHL1   C25 7725   2.324   1.079   8.455 -0.0984 -0.4509 -0.0854
   71CHL1   H25 7726   2.265   1.171   8.432  0.9710  0.0770 -0.7816
   71CHL1   C26 7727   2.254   1.016   8.571  0.2057 -0.4242  0.2376
   71CHL1  H26A 7728   2.144   1.023   8.555  0.2557 -2.7966 -1.7560
   71CHL1  H26B 7729   2.273   0.908   8.586 -2.8684 -1.1223 -0.1879
   71CHL1  H26C 7730   2.277   1.074   8.663 -1.4471 -1.3211  1.2722
   71CHL1   C27 7731   2.472   1.122   8.487  0.0383 -0.3971 -0.1779
   71CHL1  H27A 7732   2.511   1.163   8.391 -0.7504  1.2226  0.1421
   71CHL1  H27B 7733   2.476   1.203   8.563 -0.4408 -0.8795  0.3711
   71CHL1  H27C 7734   2.546   1.051   8.527  0.1370 -0.1266  0.1264
   72CHL1    C3 7735   0.670   5.354   6.956 -0.5826 -0.5409 -0.0244
   72CHL1    H3 7736   0.610   5.447   6.957  2.2402  1.4333  0.6434
   72CHL1    O3 7737   0.688   5.330   6.818  0.2304 -0.5659 -0.1890
   72CHL1   H3' 7738   0.762   5.271   6.803 -1.9630 -2.9170 -3.1155
   72CHL1    C4 7739   0.811   5.371   7.021 -0.2415 -0.1746  0.0019
   72CHL1   H4A 7740   0.882   5.288   7.003 -0.3438 -0.3911  0.5795
   72CHL1   H4B 7741   0.852   5.463   6.974 -1.7749 -0.8451 -2.9039
   72CHL1    C5 7742   0.798   5.401   7.164 -0.1509  0.2238  0.1079
   72CHL1    C6 7743   0.833   5.517   7.223 -0.0028  0.0890 -0.3020
   72CHL1    H6 7744   0.877   5.598   7.163 -0.7125  1.1887  0.6104
   72CHL1    C7 7745   0.820   5.540   7.373 -0.0368 -0.0040 -0.3254
   72CHL1   H7A 7746   0.926   5.567   7.393 -0.1371  0.3746 -0.2963
   72CHL1   H7B 7747   0.762   5.629   7.405  1.3678  1.6225 -2.0636
   72CHL1    C8 7748   0.786   5.416   7.458  0.2033 -0.1124  0.3089
   72CHL1    H8 7749   0.877   5.354   7.476 -1.4315 -2.7039  0.1658
   72CHL1   C14 7750   0.721   5.458   7.588 -0.4290 -0.1887  0.2558
   72CHL1   H14 7751   0.627   5.513   7.564  0.6804  1.8619  0.4192
   72CHL1   C15 7752   0.799   5.562   7.668 -0.0713 -0.4721 -0.6565
   72CHL1  H15A 7753   0.908   5.553   7.647  0.5309  0.8567  1.5448
   72CHL1  H15B 7754   0.768   5.665   7.640  1.3071  0.3416  0.6096
   72CHL1   C16 7755   0.758   5.547   7.813 -0.3611  0.1300 -0.0850
   72CHL1  H16A 7756   0.854   5.525   7.866  0.3174  2.6879 -0.1212
   72CHL1  H16B 7757   0.708   5.638   7.853 -1.1722 -0.4081  0.1443
   72CHL1   C17 7758   0.655   5.434   7.813 -0.2101  0.2336  0.2176
   72CHL1   H17 7759   0.556   5.481   7.797 -0.2593 -0.0939 -0.4608
   72CHL1   C13 7760   0.683   5.346   7.686  0.4390 -0.2690  0.8194
   72CHL1   C18 7761   0.797   5.248   7.716  0.2483  0.0831  0.2527
   72CHL1  H18A 7762   0.853   5.225   7.623 -1.4399  0.7039 -0.9754
   72CHL1  H18B 7763   0.866   5.285   7.795 -0.1263  1.2451  0.0593
   72CHL1  H18C 7764   0.752   5.153   7.752 -4.1428  2.0945  0.7756
   72CHL1   C12 7765   0.558   5.273   7.618 -0.0710  0.6080  0.0545
   72CHL1  H12A 7766   0.525   5.193   7.688  1.0752 -0.9059 -1.0485
   72CHL1  H12B 7767   0.482   5.354   7.605 -0.1444  0.3170 -1.5317
   72CHL1   C11 7768   0.594   5.226   7.472 -0.3439 -0.6381  0.3965
   72CHL1  H11A 7769   0.678   5.154   7.483  1.1454  0.9351 -0.2004
   72CHL1  H11B 7770   0.505   5.185   7.420  1.3283 -3.4169 -0.4642
   72CHL1    C9 7771   0.671   5.337   7.379 -0.1491  0.1188 -0.3708
   72CHL1    H9 7772   0.590   5.412   7.369 -0.2117 -0.0179 -0.9466
   72CHL1   C10 7773   0.713   5.292   7.237 -0.2909 -0.8082 -0.1638
   72CHL1   C19 7774   0.812   5.176   7.260 -0.1526  1.1304 -0.4905
   72CHL1  H19A 7775   0.845   5.137   7.162 -1.3821  2.6125 -1.5289
   72CHL1  H19B 7776   0.910   5.215   7.296 -0.2778 -0.1467  1.3704
   72CHL1  H19C 7777   0.770   5.097   7.326 -1.7674  1.2760 -1.3000
   72CHL1    C1 7778   0.588   5.236   7.163 -0.6314  0.0948  0.4494
   72CHL1   H1A 7779   0.542   5.148   7.212 -0.8247 -0.4112 -0.6090
   72CHL1   H1B 7780   0.510   5.313   7.183  0.6554  1.7715 -0.6539
   72CHL1    C2 7781   0.604   5.226   7.006  0.2980 -0.2010 -0.1830
   72CHL1   H2A 7782   0.506   5.216   6.955  0.3085  1.2040 -0.5077
   72CHL1   H2B 7783   0.661   5.137   6.973 -0.7400 -1.5182  1.4168
   72CHL1   C20 7784   0.660   5.375   7.955 -0.2774 -0.0960  0.6775
   72CHL1   H20 7785   0.764   5.339   7.970 -0.5310 -1.1918 -0.0700
   72CHL1   C21 7786   0.565   5.257   7.959 -0.6707  0.2316 -0.0609
   72CHL1  H21A 7787   0.464   5.284   7.919 -0.6714  0.5937  0.1883
   72CHL1  H21B 7788   0.561   5.224   8.065  1.2911  1.4001  0.4134
   72CHL1  H21C 7789   0.595   5.170   7.896 -0.0538  1.0299 -0.8802
   72CHL1   C22 7790   0.634   5.475   8.069 -0.1716  0.8065 -0.6348
   72CHL1  H22A 7791   0.674   5.574   8.038  0.7211 -0.1946 -2.9044
   72CHL1  H22B 7792   0.523   5.482   8.068 -0.1554  1.2188 -0.0023
   72CHL1   C23 7793   0.681   5.441   8.216 -0.3635  0.0347  0.1181
   72CHL1  H23A 7794   0.641   5.343   8.250 -0.6361 -0.1051 -0.5894
   72CHL1  H23B 7795   0.792   5.429   8.211 -0.3026  0.7964 -0.8815
   72CHL1   C24 7796   0.624   5.553   8.299  0.3258 -0.2341  0.0461
   72CHL1  H24A 7797   0.634   5.654   8.252 -1.0474  0.1261  0.4708
   72CHL1  H24B 7798   0.515   5.532   8.306 -0.1190  1.9345  0.3840
   72CHL1   C25 7799   0.687   5.570   8.445 -0.4264 -0.1903  1.1736
   72CHL1   H25 7800   0.624   5.647   8.495 -1.7770 -0.2213 -0.4150
   72CHL1   C26 7801   0.684   5.444   8.537 -0.1774 -0.7818  0.4779
   72CHL1  H26A 7802   0.771   5.376   8.521  0.4770  0.3102 -0.9141
   72CHL1  H26B 7803   0.709   5.479   8.639  1.7936 -0.6943  0.0169
   72CHL1  H26C 7804   0.590   5.385   8.542  0.7987 -2.3270  1.4253
   72CHL1   C27 7805   0.826   5.630   8.436  0.0510  0.6529  0.4241
   72CHL1  H27A 7806   0.831   5.736   8.403  2.1462  0.3301 -0.5020
   72CHL1  H27B 7807   0.858   5.625   8.542 -0.6344 -0.5436  0.5913
   72CHL1  H27C 7808   0.893   5.566   8.375 -0.3710  0.2548  0.3698
   73CHL1    C3 7809   5.893   1.120   6.953 -0.1169  0.1776 -0.1338
   73CHL1    H3 7810   5.969   1.040   6.937  0.8060  0.5830  1.9646
   73CHL1    O3 7811   5.872   1.195   6.835  0.0622  0.3840  0.1249
   73CHL1   H3' 7812   5.935   1.267   6.836  0.4467  0.0781 -0.7472
   73CHL1    C4 7813   5.766   1.051   7.003  0.3297 -0.5185  0.0270
   73CHL1   H4A 7814   5.684   1.126   6.996  0.0494 -0.8949 -0.9077
   73CHL1   H4B 7815   5.743   0.973   6.928  0.9638  0.3866 -1.1358
   73CHL1    C5 7816   5.778   0.998   7.146 -0.5267  0.1173  0.0531
   73CHL1    C6 7817   5.752   0.869   7.169  0.4950  0.1599  0.9348
   73CHL1    H6 7818   5.724   0.798   7.089  1.9894 -0.9668  1.3725
   73CHL1    C7 7819   5.757   0.806   7.305 -0.0524 -0.1228  0.2424
   73CHL1   H7A 7820   5.669   0.740   7.319 -1.0337  1.1591  0.2712
   73CHL1   H7B 7821   5.847   0.740   7.304  1.3384  1.6447  1.7582
   73CHL1    C8 7822   5.770   0.901   7.419  0.9822 -0.1741  0.1913
   73CHL1    H8 7823   5.672   0.945   7.446 -0.0593 -1.1314 -1.8153
   73CHL1   C14 7824   5.822   0.833   7.546 -0.5381  0.2778 -0.1898
   73CHL1   H14 7825   5.928   0.806   7.527 -0.7794  0.8515 -2.6616
   73CHL1   C15 7826   5.751   0.708   7.596  0.5600 -0.6028 -0.3230
   73CHL1  H15A 7827   5.641   0.713   7.583  0.5834  0.2140 -0.2057
   73CHL1  H15B 7828   5.782   0.613   7.547  1.4054 -0.1297 -0.7407
   73CHL1   C16 7829   5.776   0.694   7.745 -0.4892  0.2690  0.5173
   73CHL1  H16A 7830   5.684   0.676   7.804 -0.2678 -1.8679  0.2948
   73CHL1  H16B 7831   5.842   0.606   7.758 -1.6946 -1.1607 -2.2917
   73CHL1   C17 7832   5.859   0.822   7.786 -0.0795 -0.7879 -0.1080
   73CHL1   H17 7833   5.968   0.798   7.788  0.1270  0.1162 -0.1138
   73CHL1   C13 7834   5.827   0.925   7.672 -0.6393  0.7286 -0.3358
   73CHL1   C18 7835   5.692   0.993   7.703 -0.5386  0.6079  0.3350
   73CHL1  H18A 7836   5.615   0.921   7.735 -1.9003  2.0474  0.4397
   73CHL1  H18B 7837   5.707   1.066   7.786  0.7235  2.9929 -1.8286
   73CHL1  H18C 7838   5.655   1.057   7.620  1.3292  2.2167  0.6662
   73CHL1   C12 7839   5.933   1.031   7.644  0.3952  0.4333 -0.0223
   73CHL1  H12A 7840   5.940   1.108   7.724 -1.4897 -0.0828  0.6975
   73CHL1  H12B 7841   6.033   0.987   7.625 -0.9233 -2.5494 -0.5919
   73CHL1   C11 7842   5.909   1.102   7.506 -0.5057 -0.1089  0.4027
   73CHL1  H11A 7843   5.838   1.186   7.522 -0.8388 -0.2181 -0.4979
   73CHL1  H11B 7844   6.004   1.156   7.485 -1.0869  0.1008 -1.8577
   73CHL1    C9 7845   5.865   1.016   7.385  0.2475 -0.3789  0.6866
   73CHL1    H9 7846   5.954   0.953   7.363 -2.1527 -4.0487  0.5869
   73CHL1   C10 7847   5.834   1.098   7.246 -0.5202  0.2994 -0.1409
   73CHL1   C19 7848   5.735   1.204   7.291 -0.2117 -0.0302  0.3224
   73CHL1  H19A 7849   5.687   1.254   7.204 -0.9005  1.4275  1.5059
   73CHL1  H19B 7850   5.649   1.168   7.351 -0.7605 -0.1344 -0.5038
   73CHL1  H19C 7851   5.790   1.287   7.340  1.0717 -0.8516  0.3223
   73CHL1    C1 7852   5.963   1.163   7.190  0.0432  0.3495  0.3271
   73CHL1   H1A 7853   5.989   1.244   7.262 -1.9148 -0.5432  2.1710
   73CHL1   H1B 7854   6.039   1.082   7.184 -1.6630 -1.2332 -0.9582
   73CHL1    C2 7855   5.949   1.220   7.051  0.0732 -0.8928 -0.0267
   73CHL1   H2A 7856   6.041   1.273   7.018 -2.0646  2.8609 -0.5420
   73CHL1   H2B 7857   5.878   1.304   7.065  0.1493 -1.1403  2.2265
   73CHL1   C20 7858   5.816   0.868   7.931 -0.0653 -0.8693 -0.1656
   73CHL1   H20 7859   5.711   0.902   7.938 -0.8283 -3.2735  1.2559
   73CHL1   C21 7860   5.910   0.982   7.972  0.3656 -0.4280 -0.0759
   73CHL1  H21A 7861   6.015   0.946   7.961  0.6149 -0.8953  2.9827
   73CHL1  H21B 7862   5.889   1.011   8.077 -0.1356 -0.2053 -0.2351
   73CHL1  H21C 7863   5.905   1.073   7.909 -0.6492 -0.2471  0.2488
   73CHL1   C22 7864   5.827   0.755   8.036  0.2141  0.4210  0.3554
   73CHL1  H22A 7865   5.794   0.658   7.993  0.6382 -0.4712  1.9426
   73CHL1  H22B 7866   5.935   0.744   8.059  0.2695 -1.9012 -0.7121
   73CHL1   C23 7867   5.746   0.786   8.162 -0.2051 -0.5263  0.0047
   73CHL1  H23A 7868   5.791   0.868   8.222 -1.5719 -0.5752  1.1491
   73CHL1  H23B 7869   5.639   0.808   8.142  0.1702  1.4124 -0.0477
   73CHL1   C24 7870   5.741   0.667   8.264  0.9405 -0.9857  0.1341
   73CHL1  H24A 7871   5.690   0.584   8.211  1.9773 -0.7626 -1.3012
   73CHL1  H24B 7872   5.842   0.625   8.289  1.7126  0.8149  0.1615
   73CHL1   C25 7873   5.676   0.710   8.395 -0.4727 -0.1627  0.1032
   73CHL1   H25 7874   5.585   0.769   8.369 -2.1420 -2.7753 -0.3553
   73CHL1   C26 7875   5.641   0.586   8.477  0.0038  0.0374  0.2728
   73CHL1  H26A 7876   5.574   0.524   8.414 -1.0879  0.5572  0.8899
   73CHL1  H26B 7877   5.731   0.521   8.489  0.7881  1.2710  1.3910
   73CHL1  H26C 7878   5.603   0.620   8.576  1.4847  0.4251  0.7472
   73CHL1   C27 7879   5.773   0.795   8.475 -0.0301 -0.2544 -0.5885
   73CHL1  H27A 7880   5.868   0.742   8.502 -0.0320 -0.1438 -0.3552
   73CHL1  H27B 7881   5.798   0.886   8.417 -2.0184  1.0002  0.4482
   73CHL1  H27C 7882   5.720   0.832   8.565  0.3969  1.9976 -1.2150
   74CHL1    C3 7883   2.538   1.988   6.910 -0.2859 -0.0545 -0.3691
   74CHL1    H3 7884   2.579   1.886   6.892 -2.9744 -1.6576  1.7662
   74CHL1    O3 7885   2.504   2.055   6.787 -0.4152  0.3808  0.5600
   74CHL1   H3' 7886   2.473   2.141   6.814 -0.2930  1.3516 -2.1636
   74CHL1    C4 7887   2.410   1.977   6.995  0.4887  0.6652 -0.3172
   74CHL1   H4A 7888   2.344   2.064   6.975  0.7368  0.7701 -0.6915
   74CHL1   H4B 7889   2.353   1.888   6.961  0.7951  1.2949 -2.6070
   74CHL1    C5 7890   2.431   1.956   7.146  0.1743  0.2985 -0.2811
   74CHL1    C6 7891   2.354   1.875   7.218  0.5806 -0.2038 -0.5429
   74CHL1    H6 7892   2.270   1.822   7.170  0.4629 -0.0808 -0.4719
   74CHL1    C7 7893   2.364   1.870   7.369  0.6020  0.1064 -1.0354
   74CHL1   H7A 7894   2.269   1.874   7.426  2.5465 -0.8267  2.6891
   74CHL1   H7B 7895   2.389   1.763   7.386  1.3365  0.3040 -0.8248
   74CHL1    C8 7896   2.452   1.971   7.444  0.6676 -0.2130 -0.1691
   74CHL1    H8 7897   2.379   2.055   7.449 -0.3236 -0.8973 -2.0614
   74CHL1   C14 7898   2.496   1.925   7.588 -0.4607  0.0970 -0.9750
   74CHL1   H14 7899   2.559   1.834   7.575 -2.1581 -1.5463  1.4208
   74CHL1   C15 7900   2.385   1.869   7.678 -0.3780 -0.2245 -0.0328
   74CHL1  H15A 7901   2.297   1.932   7.652  1.4253  1.4046 -2.6392
   74CHL1  H15B 7902   2.349   1.767   7.654 -3.1660  0.6622 -0.0174
   74CHL1   C16 7903   2.430   1.891   7.823 -0.1433  0.7369  0.3689
   74CHL1  H16A 7904   2.357   1.957   7.874 -2.4999 -1.2514 -0.2260
   74CHL1  H16B 7905   2.428   1.797   7.882  3.2754 -0.5762 -1.3225
   74CHL1   C17 7906   2.572   1.954   7.809 -0.4081  0.4548  0.1295
   74CHL1   H17 7907   2.646   1.871   7.808 -0.1116  0.7086  0.4937
   74CHL1   C13 7908   2.580   2.023   7.672  0.2871  0.1863  0.2622
   74CHL1   C18 7909   2.504   2.156   7.678  0.5358  0.1299 -0.5339
   74CHL1  H18A 7910   2.492   2.214   7.584 -0.1275 -0.3820 -0.7761
   74CHL1  H18B 7911   2.402   2.134   7.716  0.0619 -0.4349 -2.0331
   74CHL1  H18C 7912   2.555   2.220   7.753 -0.4036  0.3628 -0.0784
   74CHL1   C12 7913   2.708   2.044   7.597  0.0849  0.5744  0.1856
   74CHL1  H12A 7914   2.781   2.121   7.629  0.7234 -0.1182  0.3996
   74CHL1  H12B 7915   2.761   1.947   7.594  3.0014  2.0799 -2.0836
   74CHL1   C11 7916   2.676   2.087   7.442  0.9514 -0.1696 -0.1084
   74CHL1  H11A 7917   2.636   2.189   7.456 -0.3814 -0.6847 -0.0123
   74CHL1  H11B 7918   2.775   2.099   7.393  0.9603  0.5709  0.0855
   74CHL1    C9 7919   2.572   2.003   7.363 -0.4090  0.0556  0.0993
   74CHL1    H9 7920   2.633   1.912   7.348 -0.0144  0.3807 -0.2684
   74CHL1   C10 7921   2.538   2.044   7.216 -0.2071  0.4126  0.1066
   74CHL1   C19 7922   2.475   2.182   7.220 -0.2360 -0.0331 -0.0927
   74CHL1  H19A 7923   2.465   2.231   7.120  1.3592  1.8248  0.5881
   74CHL1  H19B 7924   2.376   2.198   7.268 -0.5527  1.3227 -1.1198
   74CHL1  H19C 7925   2.549   2.247   7.273  2.0389  0.7354 -3.8270
   74CHL1    C1 7926   2.671   2.040   7.131  0.7682  0.6667 -0.1093
   74CHL1   H1A 7927   2.723   2.127   7.176  1.3249  0.6229 -0.6589
   74CHL1   H1B 7928   2.712   1.938   7.143 -2.3352 -0.8646 -1.2821
   74CHL1    C2 7929   2.639   2.074   6.982 -0.6991 -0.2794 -0.8115
   74CHL1   H2A 7930   2.731   2.051   6.924  0.3928 -0.4680  0.9060
   74CHL1   H2B 7931   2.620   2.182   6.965 -1.4846 -0.4864 -1.2945
   74CHL1   C20 7932   2.613   2.041   7.930  0.1810  0.3202 -0.3477
   74CHL1   H20 7933   2.537   2.119   7.950  1.8452  2.1342 -0.7671
   74CHL1   C21 7934   2.751   2.104   7.920 -0.1124  0.1914  0.2366
   74CHL1  H21A 7935   2.761   2.172   8.008 -0.9351  1.1195 -0.3630
   74CHL1  H21B 7936   2.775   2.167   7.831  1.5146  0.0910  0.5659
   74CHL1  H21C 7937   2.828   2.024   7.919  1.2443  1.4392  0.0456
   74CHL1   C22 7938   2.625   1.941   8.061 -0.5460  0.0023 -0.0938
   74CHL1  H22A 7939   2.529   1.887   8.073 -0.9632  0.5381 -0.9415
   74CHL1  H22B 7940   2.703   1.864   8.044  0.1382 -0.1702  3.1263
   74CHL1   C23 7941   2.656   2.008   8.196 -0.1954 -0.3384 -0.5942
   74CHL1  H23A 7942   2.751   2.064   8.190  0.7382 -1.7469  0.2515
   74CHL1  H23B 7943   2.571   2.076   8.220 -1.4490 -1.7215 -0.8958
   74CHL1   C24 7944   2.697   1.922   8.320 -0.1194 -0.0549  0.5317
   74CHL1  H24A 7945   2.614   1.860   8.361 -0.5258  0.2657  0.1953
   74CHL1  H24B 7946   2.768   1.849   8.277  0.1511 -0.3409  1.4342
   74CHL1   C25 7947   2.755   1.995   8.436 -0.5137 -0.3327 -0.3604
   74CHL1   H25 7948   2.851   2.043   8.408  0.9288 -0.4950  3.7002
   74CHL1   C26 7949   2.663   2.116   8.477  0.2651 -0.1212  0.0884
   74CHL1  H26A 7950   2.631   2.177   8.390  1.1936 -0.2122 -0.3287
   74CHL1  H26B 7951   2.564   2.081   8.514  1.1908  0.0943  3.0161
   74CHL1  H26C 7952   2.705   2.171   8.564  0.3722 -0.2584  0.1252
   74CHL1   C27 7953   2.796   1.912   8.562 -0.2996 -0.1439  0.3858
   74CHL1  H27A 7954   2.711   1.854   8.602  0.7988 -0.3313  2.6165
   74CHL1  H27B 7955   2.880   1.841   8.545 -1.3575 -2.1453  2.8347
   74CHL1  H27C 7956   2.817   1.989   8.639 -2.6238  0.4074  0.5367
   75CHL1    C3 7957   5.625   2.177   6.805  0.2813 -0.3701  0.0678
   75CHL1    H3 7958   5.521   2.213   6.789 -0.1299 -2.0737 -1.5336
   75CHL1    O3 7959   5.654   2.105   6.687  0.2647 -0.2244  0.4409
   75CHL1   H3' 7960   5.615   2.166   6.624 -0.2456  0.1605  1.1181
   75CHL1    C4 7961   5.718   2.299   6.828 -0.2826  0.4910  0.5984
   75CHL1   H4A 7962   5.818   2.251   6.826 -0.6565 -0.3032  0.1648
   75CHL1   H4B 7963   5.707   2.370   6.743  2.9086  1.3910  0.8278
   75CHL1    C5 7964   5.696   2.361   6.962  0.5126 -0.1927 -0.0223
   75CHL1    C6 7965   5.668   2.494   6.977 -0.6601 -0.0429 -0.0755
   75CHL1    H6 7966   5.657   2.557   6.887 -1.9635  0.9361  0.7416
   75CHL1    C7 7967   5.643   2.572   7.108  0.0303 -0.5722  0.3750
   75CHL1   H7A 7968   5.688   2.674   7.106 -0.0877 -0.5256 -1.1078
   75CHL1   H7B 7969   5.535   2.582   7.133  0.5760 -0.5383  3.0794
   75CHL1    C8 7970   5.686   2.481   7.233  0.3243  0.3609 -0.1922
   75CHL1    H8 7971   5.796   2.482   7.248  0.5100 -0.6208 -1.3252
   75CHL1   C14 7972   5.612   2.537   7.354 -0.0354 -0.0366 -0.5568
   75CHL1   H14 7973   5.503   2.526   7.340  0.0124 -1.0423 -0.1860
   75CHL1   C15 7974   5.630   2.688   7.386  0.0252  0.5824  0.7506
   75CHL1  H15A 7975   5.732   2.727   7.366 -0.3153  1.4733  0.7032
   75CHL1  H15B 7976   5.563   2.738   7.312  0.2731 -1.5438 -1.0071
   75CHL1   C16 7977   5.597   2.700   7.537  0.2644 -0.4405 -0.4136
   75CHL1  H16A 7978   5.691   2.736   7.585  0.3897 -1.4572  0.1230
   75CHL1  H16B 7979   5.512   2.770   7.550  1.3526  0.6935  0.8803
   75CHL1   C17 7980   5.572   2.556   7.586 -0.5297 -0.4185 -0.9595
   75CHL1   H17 7981   5.461   2.555   7.579 -0.5027 -1.8446 -1.5519
   75CHL1   C13 7982   5.645   2.464   7.484  0.2479  0.0703  0.1032
   75CHL1   C18 7983   5.792   2.455   7.511 -0.4371  0.1164  0.0316
   75CHL1  H18A 7984   5.823   2.554   7.550 -2.5890  0.0539  2.1131
   75CHL1  H18B 7985   5.812   2.386   7.595 -0.2306  1.2250  0.9127
   75CHL1  H18C 7986   5.849   2.419   7.422  0.6113  0.2381  0.6362
   75CHL1   C12 7987   5.588   2.317   7.462  0.4046  0.1936 -0.6424
   75CHL1  H12A 7988   5.598   2.262   7.557  0.3742  1.4005  0.0801
   75CHL1  H12B 7989   5.478   2.328   7.451  0.1988  0.2304  1.2481
   75CHL1   C11 7990   5.651   2.249   7.343 -0.0320 -1.0560  0.0652
   75CHL1  H11A 7991   5.756   2.225   7.366 -0.0848  0.9833  3.0370
   75CHL1  H11B 7992   5.598   2.152   7.334 -1.3969 -0.7825  3.6224
   75CHL1    C9 7993   5.633   2.332   7.214 -0.0157  0.3923  0.1525
   75CHL1    H9 7994   5.524   2.352   7.202 -0.4973 -0.8054  1.9845
   75CHL1   C10 7995   5.688   2.263   7.081  1.0659 -0.8805  0.5578
   75CHL1   C19 7996   5.829   2.204   7.118 -0.4495 -0.4529  0.3229
   75CHL1  H19A 7997   5.898   2.179   7.034  0.4782  0.7767  0.6969
   75CHL1  H19B 7998   5.885   2.284   7.171 -1.1930  0.5021 -0.3074
   75CHL1  H19C 7999   5.809   2.110   7.174 -1.1409 -0.4837  0.0309
   75CHL1    C1 8000   5.593   2.142   7.053  0.5648 -0.1277 -0.0851
   75CHL1   H1A 8001   5.606   2.068   7.136  0.9228 -1.7676 -1.5491
   75CHL1   H1B 8002   5.489   2.179   7.058 -0.2073 -2.3108  2.1265
   75CHL1    C2 8003   5.637   2.079   6.922  0.2754  0.1308  0.0291
   75CHL1   H2A 8004   5.568   1.997   6.895  0.2244 -0.4197  1.7430
   75CHL1   H2B 8005   5.742   2.044   6.924  1.0459  2.0191 -2.2520
   75CHL1   C20 8006   5.599   2.543   7.738 -0.0603 -0.5258  0.2280
   75CHL1   H20 8007   5.704   2.567   7.767 -0.5974 -1.2497  3.0543
   75CHL1   C21 8008   5.583   2.402   7.792  0.7676 -0.5577  0.8995
   75CHL1  H21A 8009   5.588   2.402   7.903  1.5710 -0.9763  0.8686
   75CHL1  H21B 8010   5.665   2.331   7.769 -0.2511 -0.9504 -1.8698
   75CHL1  H21C 8011   5.489   2.358   7.750 -1.2724  2.9459  1.3782
   75CHL1   C22 8012   5.526   2.650   7.823  0.1777  0.7774  0.5020
   75CHL1  H22A 8013   5.532   2.754   7.785  1.7073  1.2778  1.9794
   75CHL1  H22B 8014   5.416   2.637   7.821  0.4224 -1.6774 -0.1837
   75CHL1   C23 8015   5.568   2.660   7.972 -0.1018  0.4733  0.6100
   75CHL1  H23A 8016   5.554   2.570   8.037  2.7975 -2.3397 -2.2670
   75CHL1  H23B 8017   5.677   2.673   7.989 -0.0840  1.7963 -0.3340
   75CHL1   C24 8018   5.496   2.780   8.034  0.1080 -0.2839 -0.0581
   75CHL1  H24A 8019   5.555   2.867   7.998 -0.4161 -0.9326 -2.6868
   75CHL1  H24B 8020   5.395   2.807   7.999 -0.5477  1.6869  2.9564
   75CHL1   C25 8021   5.501   2.782   8.188 -0.1355 -0.1802 -0.4501
   75CHL1   H25 8022   5.438   2.865   8.227  2.5162  1.4333  0.7516
   75CHL1   C26 8023   5.439   2.650   8.245 -0.2850  0.0179  0.5390
   75CHL1  H26A 8024   5.408   2.664   8.351  1.5140 -2.4231  1.4698
   75CHL1  H26B 8025   5.349   2.631   8.183  0.9407 -1.6550 -0.8222
   75CHL1  H26C 8026   5.513   2.568   8.236  0.2237  0.4883  0.3324
   75CHL1   C27 8027   5.644   2.803   8.246  0.2475  0.2284  0.0639
   75CHL1  H27A 8028   5.648   2.853   8.345 -0.9231  1.7758 -0.6208
   75CHL1  H27B 8029   5.694   2.705   8.252  0.0155  0.1434  0.7115
   75CHL1  H27C 8030   5.697   2.872   8.177  1.0088 -2.3141 -2.0571
   76CHL1    C3 8031   0.996   3.687   7.277 -0.5918 -0.3998  0.3435
   76CHL1    H3 8032   0.912   3.618   7.258 -1.2653  0.9332 -1.8933
   76CHL1    O3 8033   1.021   3.734   7.142 -0.4328 -0.5948  0.1279
   76CHL1   H3' 8034   1.088   3.800   7.161 -1.2343 -0.0314  1.1468
   76CHL1    C4 8035   0.974   3.800   7.371  0.1828 -0.1886  0.7791
   76CHL1   H4A 8036   1.057   3.872   7.360 -1.4929  2.2304  2.7911
   76CHL1   H4B 8037   0.891   3.857   7.323  1.5704  0.8357 -0.4979
   76CHL1    C5 8038   0.957   3.749   7.511  0.2616  0.2683  0.4914
   76CHL1    C6 8039   0.849   3.789   7.581 -0.1419  0.2441 -0.3093
   76CHL1    H6 8040   0.778   3.866   7.546  1.1404  0.8003 -1.8004
   76CHL1    C7 8041   0.826   3.761   7.727  0.3041 -0.1927  0.0953
   76CHL1   H7A 8042   0.816   3.849   7.794  0.3259 -0.7641  0.8597
   76CHL1   H7B 8043   0.738   3.694   7.740 -0.5212  0.7734 -0.3803
   76CHL1    C8 8044   0.933   3.666   7.786 -0.0929  0.2234 -0.3402
   76CHL1    H8 8045   1.011   3.735   7.826  0.7369 -1.2460  0.6888
   76CHL1   C14 8046   0.881   3.583   7.908  0.0919  0.2914 -0.4748
   76CHL1   H14 8047   0.813   3.515   7.853  0.9106  0.4893 -1.7778
   76CHL1   C15 8048   0.795   3.646   8.015  0.8044 -0.3199 -0.2980
   76CHL1  H15A 8049   0.835   3.746   8.044  0.9787  0.2181 -2.2660
   76CHL1  H15B 8050   0.686   3.660   7.995  0.9880  0.1651 -1.0044
   76CHL1   C16 8051   0.806   3.555   8.140 -0.1187  0.0923 -0.4377
   76CHL1  H16A 8052   0.837   3.628   8.218 -3.4211  0.1898  0.9764
   76CHL1  H16B 8053   0.707   3.514   8.171 -0.9445 -0.2157 -3.2348
   76CHL1   C17 8054   0.912   3.451   8.109  0.0714  0.4542 -0.2974
   76CHL1   H17 8055   0.857   3.360   8.077 -1.6604  1.3989 -0.0800
   76CHL1   C13 8056   0.989   3.508   7.977  0.0689  0.1242 -0.7451
   76CHL1   C18 8057   1.105   3.598   8.022  0.3759 -0.3379 -0.1305
   76CHL1  H18A 8058   1.175   3.636   7.944 -0.3551  0.1632 -0.5529
   76CHL1  H18B 8059   1.071   3.691   8.072 -0.0644  0.4379 -1.8118
   76CHL1  H18C 8060   1.173   3.538   8.087  1.2761  0.1092 -0.6331
   76CHL1   C12 8061   1.047   3.402   7.881 -0.2403 -0.3345 -0.9083
   76CHL1  H12A 8062   1.134   3.348   7.923 -0.4020 -0.3840 -0.6412
   76CHL1  H12B 8063   0.963   3.332   7.863  1.0339 -2.2927  0.3455
   76CHL1   C11 8064   1.095   3.465   7.743  0.0853  0.4863 -0.3183
   76CHL1  H11A 8065   1.187   3.515   7.779  0.1204 -0.5685  1.1268
   76CHL1  H11B 8066   1.123   3.378   7.680 -0.2580 -0.2766  0.5648
   76CHL1    C9 8067   0.997   3.569   7.682 -0.1231  0.3226 -0.7913
   76CHL1    H9 8068   0.910   3.508   7.649 -0.6920  0.3802  0.5528
   76CHL1   C10 8069   1.059   3.641   7.564  0.0702 -0.0231 -0.6381
   76CHL1   C19 8070   1.187   3.715   7.601 -0.1317  0.2220  0.6811
   76CHL1  H19A 8071   1.231   3.776   7.519  0.9058  1.7166  2.2832
   76CHL1  H19B 8072   1.177   3.787   7.685  0.8932  2.7358 -1.2496
   76CHL1  H19C 8073   1.268   3.645   7.630 -1.3848 -1.9086 -0.6980
   76CHL1    C1 8074   1.089   3.531   7.460 -1.0633 -0.6332  0.6350
   76CHL1   H1A 8075   1.178   3.475   7.497 -1.1036 -1.9659 -1.1172
   76CHL1   H1B 8076   1.001   3.466   7.443 -1.0098 -0.8602  1.1990
   76CHL1    C2 8077   1.113   3.591   7.318 -0.5619  0.2067 -0.7460
   76CHL1   H2A 8078   1.121   3.510   7.243  0.1369  1.1352 -1.6911
   76CHL1   H2B 8079   1.207   3.649   7.322  0.4528 -1.4169  2.7688
   76CHL1   C20 8080   0.986   3.414   8.242  0.8469  0.7224 -0.3332
   76CHL1   H20 8081   1.052   3.491   8.287  0.4991  0.5059  0.5738
   76CHL1   C21 8082   1.075   3.288   8.216 -0.0938  0.0389  0.2659
   76CHL1  H21A 8083   1.146   3.276   8.301 -1.8982  2.0292  2.1767
   76CHL1  H21B 8084   1.140   3.307   8.129  0.8479  1.3904  1.2164
   76CHL1  H21C 8085   1.018   3.193   8.205  0.3926 -0.3491  0.9743
   76CHL1   C22 8086   0.885   3.365   8.352 -0.6303  0.1161 -0.4636
   76CHL1  H22A 8087   0.802   3.435   8.373 -1.0630 -0.6362  0.4373
   76CHL1  H22B 8088   0.840   3.271   8.312  1.4823 -0.8335 -0.7543
   76CHL1   C23 8089   0.951   3.331   8.488  0.1870 -0.4656  0.3146
   76CHL1  H23A 8090   1.041   3.267   8.477  0.6264  0.4924 -2.1779
   76CHL1  H23B 8091   0.982   3.425   8.538  1.3987 -1.1243  0.8260
   76CHL1   C24 8092   0.851   3.254   8.572 -0.2678 -0.2421 -0.1885
   76CHL1  H24A 8093   0.768   3.314   8.616  0.1659  0.3658 -0.1807
   76CHL1  H24B 8094   0.811   3.175   8.506  0.7464 -1.8526  1.0607
   76CHL1   C25 8095   0.913   3.186   8.696  0.2115 -0.4038 -0.3733
   76CHL1   H25 8096   0.972   3.262   8.752  0.7525 -0.8392 -0.3479
   76CHL1   C26 8097   0.801   3.136   8.788  0.2238  0.7893  0.0517
   76CHL1  H26A 8098   0.723   3.212   8.811 -0.5133 -0.5262  2.1480
   76CHL1  H26B 8099   0.746   3.045   8.752  0.5989  0.5399  0.1096
   76CHL1  H26C 8100   0.843   3.129   8.890 -3.3928  0.9712  1.7301
   76CHL1   C27 8101   1.009   3.074   8.660 -0.3473 -0.0200  0.5202
   76CHL1  H27A 8102   0.941   3.000   8.612 -0.2680 -0.3816  0.9617
   76CHL1  H27B 8103   1.089   3.099   8.587  1.3299  0.9081  2.5741
   76CHL1  H27C 8104   1.061   3.028   8.746  0.6622  0.9636  0.4653
   77CHL1    C3 8105   6.796   2.597   6.872  0.2337  0.4627  0.7686
   77CHL1    H3 8106   6.756   2.700   6.874  0.3617  0.5648 -0.9151
   77CHL1    O3 8107   6.845   2.580   6.742 -0.2246  0.3255  0.2449
   77CHL1   H3' 8108   6.873   2.488   6.746  1.5287  0.8307  0.5113
   77CHL1    C4 8109   6.906   2.566   6.978  0.1166 -0.4490  0.2718
   77CHL1   H4A 8110   6.961   2.476   6.942  0.4626 -0.6448  1.2687
   77CHL1   H4B 8111   6.974   2.653   6.965 -0.1029 -0.5093 -1.5339
   77CHL1    C5 8112   6.864   2.546   7.123  0.2473  0.2484  0.3248
   77CHL1    C6 8113   6.916   2.616   7.224 -0.2522 -0.4342  0.5895
   77CHL1    H6 8114   6.997   2.687   7.202  1.3470 -1.6837  2.1803
   77CHL1    C7 8115   6.891   2.584   7.372 -0.1875  0.1209  0.9690
   77CHL1   H7A 8116   6.986   2.571   7.428 -0.3341 -1.3797  0.8944
   77CHL1   H7B 8117   6.839   2.671   7.417  1.7803  2.6925 -1.3439
   77CHL1    C8 8118   6.803   2.456   7.386 -0.3628  0.5650  0.1729
   77CHL1    H8 8119   6.878   2.375   7.375  0.4181  1.0731  1.5097
   77CHL1   C14 8120   6.745   2.449   7.524 -0.2722 -0.1175  0.2804
   77CHL1   H14 8121   6.679   2.535   7.548 -1.3010 -1.2682  1.8681
   77CHL1   C15 8122   6.839   2.451   7.650 -0.5720  0.7395 -0.4295
   77CHL1  H15A 8123   6.920   2.381   7.623 -2.0904 -1.3611  0.1586
   77CHL1  H15B 8124   6.884   2.551   7.667  1.0880  0.1618 -1.2449
   77CHL1   C16 8125   6.749   2.406   7.764 -0.1452  0.3743  1.5956
   77CHL1  H16A 8126   6.798   2.321   7.817 -1.0579  0.0283  1.8983
   77CHL1  H16B 8127   6.723   2.494   7.825 -2.2340 -0.2958  1.7383
   77CHL1   C17 8128   6.611   2.358   7.697 -0.0915  0.0842 -0.0881
   77CHL1   H17 8129   6.554   2.453   7.708  1.2976  0.7995  1.3451
   77CHL1   C13 8130   6.643   2.338   7.550  0.0181  0.4806 -0.4226
   77CHL1   C18 8131   6.718   2.206   7.527  0.1287 -0.2617  0.0430
   77CHL1  H18A 8132   6.806   2.191   7.593  1.4484  2.1786 -1.0304
   77CHL1  H18B 8133   6.653   2.116   7.531 -0.9819  0.4922 -0.6060
   77CHL1  H18C 8134   6.764   2.193   7.427  2.4711  2.2633  0.6721
   77CHL1   C12 8135   6.525   2.350   7.450 -0.0157  0.3476 -0.0580
   77CHL1  H12A 8136   6.449   2.270   7.459 -1.2005  1.3530 -0.9079
   77CHL1  H12B 8137   6.469   2.444   7.468 -0.0366 -0.1428  2.8418
   77CHL1   C11 8138   6.575   2.360   7.301  0.2822 -0.0627  0.6608
   77CHL1  H11A 8139   6.605   2.260   7.264  2.5933  1.1178 -0.8799
   77CHL1  H11B 8140   6.493   2.397   7.236  0.8664  1.7169  0.8676
   77CHL1    C9 8141   6.690   2.460   7.277  0.0852  0.7849 -0.1377
   77CHL1    H9 8142   6.649   2.563   7.286  1.2590  1.3444 -0.8251
   77CHL1   C10 8143   6.749   2.442   7.138 -0.6811 -0.6523  0.3314
   77CHL1   C19 8144   6.804   2.299   7.113  0.2598 -0.3481  0.8273
   77CHL1  H19A 8145   6.883   2.267   7.184  2.8590  0.0697 -1.7021
   77CHL1  H19B 8146   6.729   2.218   7.118 -0.1652 -0.2035 -1.8692
   77CHL1  H19C 8147   6.855   2.287   7.015  1.6068 -0.0086  1.4643
   77CHL1    C1 8148   6.634   2.477   7.025  0.1351  0.2622 -0.5001
   77CHL1   H1A 8149   6.567   2.389   7.024 -1.9859  1.8044 -0.2060
   77CHL1   H1B 8150   6.571   2.562   7.061 -1.7174 -1.2786  0.0562
   77CHL1    C2 8151   6.687   2.492   6.890  0.2572 -0.4673  0.2219
   77CHL1   H2A 8152   6.598   2.504   6.825  0.8638  4.1337 -0.0894
   77CHL1   H2B 8153   6.733   2.393   6.870  0.5050 -0.6360  1.5400
   77CHL1   C20 8154   6.554   2.243   7.783  0.1421  0.1419  1.2700
   77CHL1   H20 8155   6.622   2.156   7.773 -1.9924 -1.6215  1.3778
   77CHL1   C21 8156   6.421   2.176   7.724 -0.3351  0.5936 -0.1045
   77CHL1  H21A 8157   6.328   2.235   7.739 -1.2796 -0.8436 -0.1951
   77CHL1  H21B 8158   6.394   2.080   7.774  0.0597  0.9363  0.7982
   77CHL1  H21C 8159   6.436   2.155   7.617 -1.3850  2.1363 -0.5956
   77CHL1   C22 8160   6.536   2.279   7.924  0.6584  0.1148  0.1455
   77CHL1  H22A 8161   6.624   2.336   7.960  1.1270  0.3114 -1.2646
   77CHL1  H22B 8162   6.454   2.353   7.931 -0.8320 -1.3478 -0.8742
   77CHL1   C23 8163   6.520   2.155   8.016  0.5936 -0.1997  0.1582
   77CHL1  H23A 8164   6.433   2.093   7.985 -1.0227  2.2288 -0.4673
   77CHL1  H23B 8165   6.601   2.081   8.001 -0.2140 -1.1507  0.3358
   77CHL1   C24 8166   6.520   2.192   8.162  0.0275 -0.0692 -0.0501
   77CHL1  H24A 8167   6.428   2.253   8.180  0.6703  1.2215 -1.0112
   77CHL1  H24B 8168   6.509   2.098   8.221  1.8061 -1.7603 -2.2811
   77CHL1   C25 8169   6.641   2.265   8.220 -0.6025 -0.3673  0.0567
   77CHL1   H25 8170   6.649   2.365   8.173  3.0491 -1.5741 -2.3578
   77CHL1   C26 8171   6.615   2.289   8.367  0.1902  0.3392  0.2440
   77CHL1  H26A 8172   6.700   2.334   8.422  0.2037  0.9713 -0.2779
   77CHL1  H26B 8173   6.538   2.370   8.374 -0.0061  0.2893 -1.0521
   77CHL1  H26C 8174   6.582   2.196   8.418 -0.4859 -1.3152 -2.9521
   77CHL1   C27 8175   6.774   2.192   8.205  0.3781  0.1990 -0.5226
   77CHL1  H27A 8176   6.787   2.150   8.103 -0.7856  0.0790 -0.6412
   77CHL1  H27B 8177   6.859   2.247   8.249  1.0457 -1.0901 -0.1372
   77CHL1  H27C 8178   6.759   2.103   8.271  0.7461  1.2482  1.0400
   78CHL1    C3 8179   4.064   3.792   6.773  0.2770 -0.8028  0.6991
   78CHL1    H3 8180   4.066   3.903   6.775  3.1136 -0.7765  2.4206
   78CHL1    O3 8181   4.128   3.756   6.654 -0.4341 -0.0358  0.2625
   78CHL1   H3' 8182   4.196   3.823   6.643 -1.4965  1.1697  0.8044
   78CHL1    C4 8183   4.148   3.749   6.891  0.2637 -1.0049 -0.1823
   78CHL1   H4A 8184   4.169   3.641   6.882  1.6167 -0.9535  1.6796
   78CHL1   H4B 8185   4.244   3.804   6.877 -1.2006  2.1751  1.3054
   78CHL1    C5 8186   4.071   3.767   7.026 -0.0484  0.1265  0.9600
   78CHL1    C6 8187   4.129   3.842   7.121 -0.3107  0.6702  0.2503
   78CHL1    H6 8188   4.232   3.877   7.109  0.0030 -0.8742 -2.2216
   78CHL1    C7 8189   4.070   3.871   7.246  0.3434  0.0407 -0.0331
   78CHL1   H7A 8190   4.138   3.864   7.334 -0.0080 -2.0938  0.1216
   78CHL1   H7B 8191   4.055   3.981   7.248 -0.2785 -0.0516  0.6132
   78CHL1    C8 8192   3.941   3.791   7.272  0.3907  0.2388 -0.2727
   78CHL1    H8 8193   3.970   3.687   7.300  0.9696  0.5638  0.3459
   78CHL1   C14 8194   3.861   3.851   7.393  0.2820 -0.1527  0.4334
   78CHL1   H14 8195   3.825   3.952   7.363 -0.9449 -1.0402 -1.2733
   78CHL1   C15 8196   3.949   3.862   7.516 -0.0087 -0.1848 -0.1216
   78CHL1  H15A 8197   4.010   3.770   7.532  0.9304  0.7804  2.3911
   78CHL1  H15B 8198   4.000   3.960   7.512 -0.5692  0.3427  3.0544
   78CHL1   C16 8199   3.847   3.862   7.626 -0.4893  0.2512  0.4696
   78CHL1  H16A 8200   3.863   3.774   7.692  0.9100 -0.0047 -0.1696
   78CHL1  H16B 8201   3.846   3.954   7.688  2.2279  0.7207 -0.0513
   78CHL1   C17 8202   3.703   3.838   7.563 -0.5502 -0.3292  0.2577
   78CHL1   H17 8203   3.674   3.942   7.536  1.1658  0.1262  0.0632
   78CHL1   C13 8204   3.733   3.767   7.434 -0.1131  0.0061  0.0843
   78CHL1   C18 8205   3.770   3.623   7.466  0.5833 -0.0229 -0.1255
   78CHL1  H18A 8206   3.689   3.558   7.504  0.6160 -0.0304 -0.0670
   78CHL1  H18B 8207   3.802   3.572   7.373 -1.1593 -0.0988 -0.7086
   78CHL1  H18C 8208   3.865   3.616   7.525  0.0060 -1.1017  0.7175
   78CHL1   C12 8209   3.635   3.780   7.314 -0.6428 -0.5377 -0.2226
   78CHL1  H12A 8210   3.554   3.706   7.332 -1.0406  0.1796  1.0537
   78CHL1  H12B 8211   3.594   3.883   7.319  0.9999  0.2124 -1.4854
   78CHL1   C11 8212   3.703   3.728   7.183 -0.5890 -0.0587 -0.5924
   78CHL1  H11A 8213   3.705   3.617   7.190  1.4393  0.0229  0.9185
   78CHL1  H11B 8214   3.645   3.761   7.094 -2.0642 -0.1369  0.3023
   78CHL1    C9 8215   3.846   3.781   7.151  0.9458 -0.6600  0.3523
   78CHL1    H9 8216   3.824   3.885   7.121 -1.3559 -0.5438  2.2306
   78CHL1   C10 8217   3.927   3.718   7.037  0.8317 -0.1320  0.2906
   78CHL1   C19 8218   3.916   3.565   7.051  0.3314  0.0480 -0.7192
   78CHL1  H19A 8219   3.991   3.519   6.984  0.5370  1.7570 -1.7049
   78CHL1  H19B 8220   3.933   3.541   7.158 -0.4861 -1.8539 -0.9714
   78CHL1  H19C 8221   3.815   3.522   7.029  0.2100  1.1134 -2.3728
   78CHL1    C1 8222   3.851   3.764   6.909 -0.2840  0.3458 -0.5687
   78CHL1   H1A 8223   3.762   3.698   6.914 -1.5276  2.0731  1.8088
   78CHL1   H1B 8224   3.822   3.870   6.920  0.2742  0.2664  2.2358
   78CHL1    C2 8225   3.923   3.735   6.772 -0.0991  0.5276  0.6906
   78CHL1   H2A 8226   3.865   3.773   6.685 -0.7506 -1.9958 -0.0552
   78CHL1   H2B 8227   3.944   3.626   6.762 -3.6114 -0.2804  0.9197
   78CHL1   C20 8228   3.613   3.776   7.669  0.2041  0.1488  0.7038
   78CHL1   H20 8229   3.665   3.681   7.696 -0.8380 -0.0797  1.9715
   78CHL1   C21 8230   3.468   3.755   7.617  0.1561 -0.0184 -0.1219
   78CHL1  H21A 8231   3.465   3.683   7.532 -0.8363 -1.5656  1.1610
   78CHL1  H21B 8232   3.435   3.855   7.580  0.7103 -0.1046 -0.8748
   78CHL1  H21C 8233   3.394   3.713   7.688 -2.3823  0.9269 -2.0010
   78CHL1   C22 8234   3.610   3.852   7.797  0.1408  0.6545  0.0437
   78CHL1  H22A 8235   3.708   3.895   7.825 -0.4172  1.8125  0.2932
   78CHL1  H22B 8236   3.543   3.938   7.775 -1.2530  0.4343  2.8831
   78CHL1   C23 8237   3.546   3.784   7.915 -0.2346  0.7686 -0.0542
   78CHL1  H23A 8238   3.446   3.740   7.894 -0.2321  0.6662  0.1504
   78CHL1  H23B 8239   3.613   3.702   7.950  0.9568  1.6947 -0.0999
   78CHL1   C24 8240   3.523   3.873   8.034  0.3520 -0.9864 -0.7125
   78CHL1  H24A 8241   3.622   3.922   8.051 -0.3264 -0.3994  1.8899
   78CHL1  H24B 8242   3.453   3.958   8.016  0.5128 -0.0344  2.5415
   78CHL1   C25 8243   3.479   3.802   8.170 -0.1386  0.3743 -0.2601
   78CHL1   H25 8244   3.384   3.749   8.150 -0.3739  1.1101 -1.1936
   78CHL1   C26 8245   3.591   3.716   8.239 -0.5409 -0.2618 -0.1802
   78CHL1  H26A 8246   3.619   3.624   8.183  1.0415 -1.4049  2.2900
   78CHL1  H26B 8247   3.688   3.770   8.243  0.3108 -1.7526  0.1250
   78CHL1  H26C 8248   3.568   3.688   8.344 -2.6941  1.2385 -0.2023
   78CHL1   C27 8249   3.435   3.907   8.280  0.2817  0.2365  0.6936
   78CHL1  H27A 8250   3.503   3.995   8.280 -1.1126  1.5523 -3.3751
   78CHL1  H27B 8251   3.341   3.953   8.246  0.5419 -0.1577 -0.6138
   78CHL1  H27C 8252   3.410   3.865   8.380  0.4137 -0.0543  0.6057
   79CHL1    C3 8253   2.423   4.289   7.113 -0.6153  0.6361  0.1155
   79CHL1    H3 8254   2.352   4.363   7.071 -0.5980  0.5733 -0.0255
   79CHL1    O3 8255   2.510   4.274   7.000  0.0605  0.7467  0.1613
   79CHL1   H3' 8256   2.508   4.187   6.959 -0.9564  0.7382  0.2102
   79CHL1    C4 8257   2.516   4.345   7.228  0.3371 -0.3753 -0.6458
   79CHL1   H4A 8258   2.607   4.282   7.241  0.6949 -0.2121 -2.1736
   79CHL1   H4B 8259   2.554   4.441   7.187 -1.3653  0.3238 -0.6625
   79CHL1    C5 8260   2.447   4.350   7.361  0.1048  0.0787 -0.4806
   79CHL1    C6 8261   2.425   4.469   7.428  0.4732  0.4988  0.5196
   79CHL1    H6 8262   2.465   4.564   7.390 -1.5469  1.0742 -0.2538
   79CHL1    C7 8263   2.344   4.491   7.551 -0.2470 -0.2745 -0.3171
   79CHL1   H7A 8264   2.396   4.569   7.610  1.0331  0.6082 -2.5075
   79CHL1   H7B 8265   2.238   4.516   7.527 -0.7757 -0.1772  1.9287
   79CHL1    C8 8266   2.332   4.357   7.627 -0.1489  0.2384  0.7715
   79CHL1    H8 8267   2.428   4.327   7.675 -0.5774 -4.0440 -0.6359
   79CHL1   C14 8268   2.228   4.380   7.745  0.9976  0.1283  0.4185
   79CHL1   H14 8269   2.131   4.407   7.696 -0.2975 -3.1365  0.9313
   79CHL1   C15 8270   2.256   4.491   7.854 -0.0223 -0.2595 -0.4453
   79CHL1  H15A 8271   2.362   4.471   7.881 -0.1754  0.5498  0.7976
   79CHL1  H15B 8272   2.237   4.590   7.808 -0.1006 -1.9958 -4.7182
   79CHL1   C16 8273   2.156   4.455   7.961  0.6066 -0.3643 -0.6478
   79CHL1  H16A 8274   2.209   4.445   8.058 -0.2469  0.0262 -0.1166
   79CHL1  H16B 8275   2.074   4.529   7.979  1.6244  0.3779  1.2298
   79CHL1   C17 8276   2.093   4.318   7.919  0.6980  0.0893  0.3040
   79CHL1   H17 8277   1.998   4.346   7.868 -0.5265 -0.1497  2.3573
   79CHL1   C13 8278   2.191   4.258   7.822 -0.3716  0.5075  0.3553
   79CHL1   C18 8279   2.315   4.202   7.904  0.1003 -0.2160  0.0829
   79CHL1  H18A 8280   2.392   4.168   7.831 -1.6450 -0.1218 -1.9054
   79CHL1  H18B 8281   2.352   4.282   7.972 -1.7908  1.7030 -0.9964
   79CHL1  H18C 8282   2.278   4.120   7.969 -0.2120  0.2372  0.4887
   79CHL1   C12 8283   2.130   4.159   7.724 -0.3544  0.6631 -0.1677
   79CHL1  H12A 8284   2.102   4.067   7.780 -3.2089  0.1743 -2.1749
   79CHL1  H12B 8285   2.036   4.191   7.673  0.7807  2.5319 -1.1960
   79CHL1   C11 8286   2.222   4.117   7.604 -0.3275 -0.2350 -0.9600
   79CHL1  H11A 8287   2.307   4.062   7.650  0.2991  0.6798 -0.9708
   79CHL1  H11B 8288   2.167   4.054   7.531 -0.3812  0.2315 -1.3271
   79CHL1    C9 8289   2.279   4.247   7.526  0.6428  0.0399 -0.0452
   79CHL1    H9 8290   2.195   4.297   7.474  0.1042 -1.2588 -0.4651
   79CHL1   C10 8291   2.373   4.221   7.405  0.0495  0.3553 -0.0819
   79CHL1   C19 8292   2.489   4.121   7.449  0.4531 -0.5426  0.1259
   79CHL1  H19A 8293   2.445   4.022   7.474 -0.0885  0.1356  2.0112
   79CHL1  H19B 8294   2.566   4.108   7.370 -0.0570  0.2794 -0.5236
   79CHL1  H19C 8295   2.543   4.161   7.537  0.3051 -0.1402  0.0337
   79CHL1    C1 8296   2.284   4.166   7.288 -0.0066  0.3134 -0.1335
   79CHL1   H1A 8297   2.253   4.065   7.321  1.3348 -0.6145 -1.5980
   79CHL1   H1B 8298   2.191   4.226   7.277 -0.9152 -1.0621 -0.1685
   79CHL1    C2 8299   2.351   4.149   7.156  0.4590  0.3429 -0.5679
   79CHL1   H2A 8300   2.280   4.115   7.078  0.8672  0.6815 -1.0994
   79CHL1   H2B 8301   2.434   4.078   7.180  1.5844  1.3223 -1.4165
   79CHL1   C20 8302   2.045   4.247   8.046  0.1584  0.2219  0.5088
   79CHL1   H20 8303   2.133   4.207   8.100  0.3695  0.8211  0.6140
   79CHL1   C21 8304   1.946   4.133   8.010  0.5415  0.2798 -0.2025
   79CHL1  H21A 8305   2.007   4.045   7.982  1.1354  0.5980  0.0636
   79CHL1  H21B 8306   1.866   4.150   7.934  0.6839 -2.2426 -1.0124
   79CHL1  H21C 8307   1.892   4.107   8.103  0.9083 -0.1082 -0.0999
   79CHL1   C22 8308   1.979   4.339   8.163 -0.1867  0.7870  0.3852
   79CHL1  H22A 8309   2.051   4.422   8.179  1.9970 -1.3780  2.8294
   79CHL1  H22B 8310   1.887   4.383   8.119 -0.0959  1.4741  0.8743
   79CHL1   C23 8311   1.971   4.267   8.298  0.2097 -0.1388 -0.0883
   79CHL1  H23A 8312   1.894   4.187   8.296 -2.7181  2.4935  0.1342
   79CHL1  H23B 8313   2.068   4.225   8.332 -0.7077 -1.0891  1.4333
   79CHL1   C24 8314   1.925   4.353   8.433  0.9828  0.5258  0.7534
   79CHL1  H24A 8315   1.982   4.448   8.425  1.1649  0.2923 -1.3720
   79CHL1  H24B 8316   1.819   4.380   8.416  0.9802  0.2227  0.2473
   79CHL1   C25 8317   1.941   4.281   8.570 -0.1435 -0.1602 -0.0103
   79CHL1   H25 8318   2.044   4.244   8.590 -0.2985  0.4442  2.0623
   79CHL1   C26 8319   1.915   4.397   8.669  0.1063  0.2999  0.0467
   79CHL1  H26A 8320   1.923   4.367   8.776 -1.5861  2.3865  0.8391
   79CHL1  H26B 8321   1.985   4.481   8.648 -0.2595  0.2177 -1.6324
   79CHL1  H26C 8322   1.812   4.439   8.658  0.1639  0.8101  1.2755
   79CHL1   C27 8323   1.856   4.161   8.590 -0.2781  0.9722 -0.3603
   79CHL1  H27A 8324   1.867   4.074   8.523  3.7015  2.1836 -1.5395
   79CHL1  H27B 8325   1.887   4.119   8.688 -1.7264  1.2379  0.2338
   79CHL1  H27C 8326   1.749   4.189   8.600 -0.6287  0.7903 -2.8833
   80CHL1    C3 8327   0.897   0.287   6.954 -0.4715 -0.8231 -0.1406
   80CHL1    H3 8328   0.992   0.233   6.980  0.8987  0.3074 -2.4852
   80CHL1    O3 8329   0.914   0.348   6.824  0.0992  0.0831  0.3653
   80CHL1   H3' 8330   1.008   0.366   6.813 -0.1852  1.0878 -0.6134
   80CHL1    C4 8331   0.785   0.188   6.959 -0.1743  0.0862  0.2175
   80CHL1   H4A 8332   0.691   0.237   6.926 -1.0581 -1.6387  0.0481
   80CHL1   H4B 8333   0.807   0.108   6.885  1.9914 -0.1259  1.0024
   80CHL1    C5 8334   0.769   0.143   7.103  0.7199 -0.1555  0.1176
   80CHL1    C6 8335   0.791   0.016   7.137 -0.2546 -0.1124  0.1281
   80CHL1    H6 8336   0.815  -0.053   7.056 -0.2710 -0.7570  0.6640
   80CHL1    C7 8337   0.777  -0.038   7.276  0.2399  0.8130 -0.2164
   80CHL1   H7A 8338   0.716  -0.130   7.275 -1.2094  1.7012  1.4560
   80CHL1   H7B 8339   0.878  -0.055   7.319  1.0611  1.4415 -1.8095
   80CHL1    C8 8340   0.694   0.054   7.374 -0.6299 -0.6096 -1.3545
   80CHL1    H8 8341   0.586   0.051   7.349 -1.6003  2.7704  1.6643
   80CHL1   C14 8342   0.719   0.006   7.520  0.4977  0.0127  0.1240
   80CHL1   H14 8343   0.825   0.024   7.548  0.0348 -0.9454  2.8668
   80CHL1   C15 8344   0.688  -0.143   7.541 -0.6596 -0.6947  0.3390
   80CHL1  H15A 8345   0.595  -0.172   7.488 -1.8048  2.7073  0.2427
   80CHL1  H15B 8346   0.771  -0.210   7.510 -0.2253 -0.8352  1.7415
   80CHL1   C16 8347   0.669  -0.147   7.695 -0.2100 -0.1266 -0.4562
   80CHL1  H16A 8348   0.578  -0.208   7.709 -1.4582  1.6249 -0.5929
   80CHL1  H16B 8349   0.752  -0.211   7.732 -1.7090 -1.5803  0.5042
   80CHL1   C17 8350   0.677   0.000   7.748 -0.1245  0.8327 -0.1266
   80CHL1   H17 8351   0.783   0.034   7.752 -0.0971  0.7199  0.0969
   80CHL1   C13 8352   0.634   0.086   7.625  0.8346  0.1916  0.3497
   80CHL1   C18 8353   0.485   0.067   7.598 -0.1881  0.9083  0.1731
   80CHL1  H18A 8354   0.422   0.100   7.683  0.3877  1.0099  0.5695
   80CHL1  H18B 8355   0.454   0.113   7.503  0.7798 -0.8478 -1.0593
   80CHL1  H18C 8356   0.461  -0.040   7.578  2.0224  0.6076 -1.1938
   80CHL1   C12 8357   0.683   0.230   7.624  0.0576  0.8067  0.0138
   80CHL1  H12A 8358   0.636   0.291   7.704 -0.9589  0.0114  0.0585
   80CHL1  H12B 8359   0.784   0.229   7.670 -0.3516  2.8221  1.0724
   80CHL1   C11 8360   0.680   0.288   7.479 -0.6212 -0.0725  0.8741
   80CHL1  H11A 8361   0.571   0.304   7.470 -0.6638 -0.1593  1.2142
   80CHL1  H11B 8362   0.716   0.393   7.482 -2.3692  0.6523 -0.9938
   80CHL1    C9 8363   0.745   0.197   7.370  0.2094  0.2654  0.3978
   80CHL1    H9 8364   0.854   0.194   7.391  0.3079 -1.7889 -0.1934
   80CHL1   C10 8365   0.745   0.245   7.213  0.5117  0.2374  0.5277
   80CHL1   C19 8366   0.598   0.300   7.191 -0.0698  0.5657  0.1514
   80CHL1  H19A 8367   0.588   0.332   7.085 -1.4094  1.0251  0.3943
   80CHL1  H19B 8368   0.535   0.212   7.215 -0.8031  1.6235  2.3693
   80CHL1  H19C 8369   0.570   0.386   7.255  0.1558 -0.1831  1.2859
   80CHL1    C1 8370   0.853   0.358   7.196  0.0587 -0.4989  0.0150
   80CHL1   H1A 8371   0.833   0.450   7.256 -4.7367  1.7481 -4.2818
   80CHL1   H1B 8372   0.955   0.321   7.221  1.0196  1.6493 -0.4991
   80CHL1    C2 8373   0.868   0.409   7.050  0.1940 -0.2114 -0.0069
   80CHL1   H2A 8374   0.957   0.476   7.040  0.1819 -0.4110 -1.8650
   80CHL1   H2B 8375   0.775   0.464   7.024  0.9222  0.8762 -0.3964
   80CHL1   C20 8376   0.614   0.011   7.883  0.4985 -0.3870 -0.4707
   80CHL1   H20 8377   0.506  -0.015   7.872  0.3225  0.0526  0.1719
   80CHL1   C21 8378   0.614   0.156   7.942  0.2168  0.6655 -0.5207
   80CHL1  H21A 8379   0.565   0.226   7.872  0.8341  0.2298 -1.4054
   80CHL1  H21B 8380   0.714   0.200   7.966  0.1146 -0.5146  2.5081
   80CHL1  H21C 8381   0.562   0.160   8.040 -0.0309  0.5519 -0.6492
   80CHL1   C22 8382   0.673  -0.087   7.987 -0.6220  0.4086 -0.5441
   80CHL1  H22A 8383   0.611  -0.096   8.079  1.4096  1.5833  1.0426
   80CHL1  H22B 8384   0.680  -0.190   7.948 -1.2194 -0.0085  0.4103
   80CHL1   C23 8385   0.822  -0.046   8.022  0.2463  0.3879 -0.5545
   80CHL1  H23A 8386   0.875  -0.030   7.926  0.4855  1.9433 -0.1939
   80CHL1  H23B 8387   0.827   0.050   8.077  0.0769 -0.4677  1.0181
   80CHL1   C24 8388   0.898  -0.157   8.096 -0.5963 -0.1142  0.1516
   80CHL1  H24A 8389   0.902  -0.250   8.035  2.5636  0.4550 -0.6671
   80CHL1  H24B 8390   0.999  -0.119   8.120 -1.0296  0.3329  1.3460
   80CHL1   C25 8391   0.842  -0.185   8.238 -0.3754  0.2348  0.1398
   80CHL1   H25 8392   0.736  -0.217   8.228  0.1255 -1.1099 -1.3809
   80CHL1   C26 8393   0.911  -0.317   8.286  0.3419  0.1436  0.4814
   80CHL1  H26A 8394   0.996  -0.289   8.352 -0.4768  1.4311  1.0227
   80CHL1  H26B 8395   0.834  -0.377   8.340 -0.5206  0.1477 -0.7220
   80CHL1  H26C 8396   0.955  -0.385   8.210 -0.2158 -0.3051  0.5533
   80CHL1   C27 8397   0.855  -0.076   8.343  0.1658  1.0869  0.1240
   80CHL1  H27A 8398   0.800   0.019   8.323  1.3696  1.9260  0.6933
   80CHL1  H27B 8399   0.800  -0.122   8.428  0.8776  0.6079  0.3289
   80CHL1  H27C 8400   0.955  -0.043   8.378  0.3767 -0.2313  0.8558
   81CHL1    C3 8401   6.722   4.687   6.940 -0.2891 -0.2213 -0.2720
   81CHL1    H3 8402   6.692   4.793   6.959 -0.0704 -0.4689  1.6826
   81CHL1    O3 8403   6.792   4.672   6.816  0.1162  0.4379 -0.1282
   81CHL1   H3' 8404   6.732   4.686   6.743 -0.8027  0.5440  0.6360
   81CHL1    C4 8405   6.817   4.634   7.052  0.0649 -0.1335 -0.1837
   81CHL1   H4A 8406   6.855   4.536   7.015 -4.8249 -1.6630 -1.8913
   81CHL1   H4B 8407   6.910   4.695   7.056  2.8259 -3.8308 -1.7275
   81CHL1    C5 8408   6.753   4.625   7.191 -0.1024 -0.6393  0.8088
   81CHL1    C6 8409   6.812   4.689   7.294  0.6360  0.1984  0.6114
   81CHL1    H6 8410   6.914   4.729   7.284  0.3667  0.9547  0.8202
   81CHL1    C7 8411   6.754   4.680   7.429 -0.0400  0.0446  0.4160
   81CHL1   H7A 8412   6.825   4.672   7.515 -0.0561  0.2693  0.4524
   81CHL1   H7B 8413   6.699   4.777   7.426 -4.1319 -2.0984 -1.5470
   81CHL1    C8 8414   6.652   4.560   7.442  0.1892 -0.1736  1.0201
   81CHL1    H8 8415   6.699   4.460   7.447 -0.7767 -0.7756 -1.0457
   81CHL1   C14 8416   6.566   4.582   7.565 -0.2756  0.3450 -0.3025
   81CHL1   H14 8417   6.497   4.668   7.552 -2.8098 -1.5059  0.0212
   81CHL1   C15 8418   6.640   4.601   7.699  0.5717  0.4722 -0.4609
   81CHL1  H15A 8419   6.725   4.532   7.718  1.4302  0.9967 -2.2049
   81CHL1  H15B 8420   6.682   4.704   7.698 -0.0714  0.7339 -1.5844
   81CHL1   C16 8421   6.528   4.581   7.805 -0.0704  0.1212 -0.6578
   81CHL1  H16A 8422   6.573   4.506   7.873  1.0081  1.0589 -0.2980
   81CHL1  H16B 8423   6.506   4.674   7.862  4.0055 -1.4165  4.2226
   81CHL1   C17 8424   6.411   4.524   7.731  0.5226  0.8035  0.0827
   81CHL1   H17 8425   6.345   4.610   7.708  0.6541  0.3715 -2.0873
   81CHL1   C13 8426   6.466   4.470   7.594  0.1686 -0.2819  0.4636
   81CHL1   C18 8427   6.535   4.333   7.612 -0.3002 -0.4568 -0.4116
   81CHL1  H18A 8428   6.463   4.261   7.657 -0.7227  0.8672  1.1438
   81CHL1  H18B 8429   6.566   4.308   7.509  0.7216  2.8585 -1.0542
   81CHL1  H18C 8430   6.632   4.329   7.667 -0.9904  0.1848  0.9259
   81CHL1   C12 8431   6.364   4.468   7.473 -0.1646 -0.4920  0.1817
   81CHL1  H12A 8432   6.291   4.384   7.471  1.3312 -1.8306 -0.0627
   81CHL1  H12B 8433   6.307   4.563   7.478  1.3471  0.4474  0.1918
   81CHL1   C11 8434   6.438   4.452   7.343 -0.5534  0.0664  0.2414
   81CHL1  H11A 8435   6.481   4.350   7.339 -0.3447  0.1669 -0.1089
   81CHL1  H11B 8436   6.366   4.451   7.259  0.1819 -0.1282 -0.4018
   81CHL1    C9 8437   6.555   4.557   7.323  0.2782  0.0271  0.8946
   81CHL1    H9 8438   6.500   4.653   7.325 -2.1423 -1.2858  2.7126
   81CHL1   C10 8439   6.624   4.544   7.186  0.1527 -0.2893  0.3219
   81CHL1   C19 8440   6.674   4.396   7.156 -0.2783  0.4895 -0.0758
   81CHL1  H19A 8441   6.754   4.368   7.228  1.0503 -2.0795 -2.3597
   81CHL1  H19B 8442   6.590   4.323   7.156 -0.3259  0.5423  0.1557
   81CHL1  H19C 8443   6.713   4.379   7.054 -1.2911 -1.6762 -0.1490
   81CHL1    C1 8444   6.530   4.593   7.077 -0.7114 -0.6363  0.4494
   81CHL1   H1A 8445   6.443   4.525   7.077 -1.9835  0.8338 -1.7795
   81CHL1   H1B 8446   6.494   4.692   7.114  1.4816  0.2052  0.5150
   81CHL1    C2 8447   6.591   4.606   6.932 -0.2743 -0.4472 -0.1190
   81CHL1   H2A 8448   6.508   4.647   6.870  1.1010  0.8043 -1.2164
   81CHL1   H2B 8449   6.609   4.505   6.890 -0.7493 -0.7403  0.3740
   81CHL1   C20 8450   6.323   4.429   7.816 -0.1030  0.7020  0.2266
   81CHL1   H20 8451   6.391   4.346   7.845 -1.6389 -0.0495  1.8656
   81CHL1   C21 8452   6.191   4.384   7.746  0.2002 -0.5941 -1.0704
   81CHL1  H21A 8453   6.219   4.324   7.656  0.7845 -0.5306 -0.9354
   81CHL1  H21B 8454   6.146   4.480   7.714  1.3888  0.1702 -0.5149
   81CHL1  H21C 8455   6.118   4.328   7.808  1.7657 -0.9656  0.5033
   81CHL1   C22 8456   6.296   4.504   7.952 -0.3150  0.6116  0.7992
   81CHL1  H22A 8457   6.392   4.537   7.998 -0.2010  2.2458 -0.5006
   81CHL1  H22B 8458   6.240   4.597   7.927 -0.0720  0.6687  0.4565
   81CHL1   C23 8459   6.215   4.422   8.055  0.3453  0.8061 -0.1961
   81CHL1  H23A 8460   6.116   4.390   8.017  1.2106 -0.4012 -1.5268
   81CHL1  H23B 8461   6.274   4.330   8.073  3.2009  2.2829 -1.2780
   81CHL1   C24 8462   6.178   4.495   8.188  0.5855 -0.7217  0.3401
   81CHL1  H24A 8463   6.115   4.585   8.169 -0.1341 -1.2090  0.3868
   81CHL1  H24B 8464   6.110   4.438   8.255 -0.2603  1.0957  1.1182
   81CHL1   C25 8465   6.286   4.558   8.276 -0.6870  0.1355 -0.0125
   81CHL1   H25 8466   6.341   4.630   8.212  0.2124 -0.3809  0.1539
   81CHL1   C26 8467   6.227   4.630   8.401  0.2720 -0.2081 -0.4642
   81CHL1  H26A 8468   6.180   4.722   8.362  3.0996  2.3564  1.6968
   81CHL1  H26B 8469   6.170   4.562   8.468  0.5253  0.6404  0.6470
   81CHL1  H26C 8470   6.319   4.666   8.452  0.8025 -1.2767 -0.6418
   81CHL1   C27 8471   6.390   4.450   8.316 -0.7073  0.4378 -0.5472
   81CHL1  H27A 8472   6.353   4.381   8.394  0.2762  0.2155 -0.2555
   81CHL1  H27B 8473   6.412   4.389   8.226  1.0981  0.7436 -0.3655
   81CHL1  H27C 8474   6.486   4.502   8.340 -1.6775  2.0674 -0.0140
   82CHL1    C3 8475   1.149   3.354   6.988 -1.0136 -0.0181 -0.1355
   82CHL1    H3 8476   1.152   3.452   7.042  1.0085 -0.2382  0.2378
   82CHL1    O3 8477   1.192   3.382   6.849 -0.5643 -0.1405  0.3112
   82CHL1   H3' 8478   1.197   3.295   6.808 -1.9676 -0.3671  0.5471
   82CHL1    C4 8479   1.250   3.256   7.057  0.0458  0.3296  0.1311
   82CHL1   H4A 8480   1.264   3.157   7.008  0.6161  0.4143  0.1092
   82CHL1   H4B 8481   1.349   3.308   7.056 -0.7346  2.1448  3.1795
   82CHL1    C5 8482   1.204   3.216   7.192 -0.0775 -0.2988  0.6779
   82CHL1    C6 8483   1.283   3.234   7.294  0.5275  0.1218 -0.4019
   82CHL1    H6 8484   1.386   3.274   7.291  0.4723  0.2202 -1.1071
   82CHL1    C7 8485   1.251   3.185   7.431 -0.4427 -0.5872 -0.3980
   82CHL1   H7A 8486   1.324   3.118   7.481 -0.7474 -1.0301 -0.5362
   82CHL1   H7B 8487   1.220   3.269   7.496  1.9451  0.6883 -0.8135
   82CHL1    C8 8488   1.130   3.084   7.442  0.1126  0.7536 -0.2166
   82CHL1    H8 8489   1.173   2.988   7.407  0.2672  0.2457  1.2809
   82CHL1   C14 8490   1.074   3.081   7.586  0.2365 -0.6426 -0.2947
   82CHL1   H14 8491   1.047   3.184   7.617 -2.8479 -0.8179 -2.0663
   82CHL1   C15 8492   1.159   3.030   7.702  0.2860  0.1596  0.6344
   82CHL1  H15A 8493   1.201   2.935   7.662  0.7346  1.2938 -1.8222
   82CHL1  H15B 8494   1.245   3.093   7.732  1.1536 -0.7204  0.0805
   82CHL1   C16 8495   1.061   3.020   7.809 -0.2704 -0.5136 -0.6271
   82CHL1  H16A 8496   1.100   2.941   7.876 -0.8219  1.2687  1.9595
   82CHL1  H16B 8497   1.064   3.114   7.869  0.1403 -1.4503  0.8639
   82CHL1   C17 8498   0.917   3.010   7.750 -0.4342  0.3234  0.1513
   82CHL1   H17 8499   0.873   3.110   7.770  1.9569  1.2759  0.9671
   82CHL1   C13 8500   0.944   2.999   7.600  0.2378  0.0129  0.2128
   82CHL1   C18 8501   0.966   2.851   7.579 -0.0096  0.0241  0.0265
   82CHL1  H18A 8502   1.043   2.797   7.639  1.5263 -0.6784 -2.4224
   82CHL1  H18B 8503   0.876   2.794   7.608 -0.5308  0.2520 -1.0882
   82CHL1  H18C 8504   0.993   2.813   7.478  2.5413 -2.1154  1.3667
   82CHL1   C12 8505   0.835   3.063   7.513 -0.5182  0.0318  0.8193
   82CHL1  H12A 8506   0.735   3.014   7.519 -0.0218 -1.1593 -0.1232
   82CHL1  H12B 8507   0.817   3.170   7.539  1.0077  0.8874 -1.2977
   82CHL1   C11 8508   0.885   3.071   7.367 -0.0472 -0.9720 -0.4748
   82CHL1  H11A 8509   0.885   2.968   7.324 -0.1639 -1.5060  0.7526
   82CHL1  H11B 8510   0.801   3.117   7.310 -0.9860  0.3291  1.8168
   82CHL1    C9 8511   1.017   3.139   7.350  0.0458  0.1718 -1.2283
   82CHL1    H9 8512   1.006   3.247   7.373 -0.7281  0.2239 -1.8284
   82CHL1   C10 8513   1.062   3.153   7.202 -0.3182  0.4786 -0.7068
   82CHL1   C19 8514   1.055   3.015   7.130  0.1518  0.3765  0.2913
   82CHL1  H19A 8515   1.102   2.932   7.187  3.4746  0.6621 -1.7817
   82CHL1  H19B 8516   0.948   2.996   7.109 -0.0983  1.2720  0.6873
   82CHL1  H19C 8517   1.105   3.026   7.032 -0.0127  1.4562  0.3085
   82CHL1    C1 8518   0.967   3.253   7.138 -0.0815  0.5059  0.3633
   82CHL1   H1A 8519   0.864   3.214   7.126  0.8777 -2.1527 -0.1042
   82CHL1   H1B 8520   0.962   3.349   7.193 -0.5688  0.3012  0.6774
   82CHL1    C2 8521   1.015   3.283   6.992 -0.1210 -1.0496 -0.2624
   82CHL1   H2A 8522   0.946   3.349   6.934  2.2087  0.5729 -1.3544
   82CHL1   H2B 8523   1.018   3.192   6.929 -2.4960 -1.4049  0.0172
   82CHL1   C20 8524   0.821   2.915   7.825  0.7153  0.3641 -0.2310
   82CHL1   H20 8525   0.859   2.810   7.822  0.2536  0.0055  2.8064
   82CHL1   C21 8526   0.678   2.915   7.760  0.1049  0.3374  0.8417
   82CHL1  H21A 8527   0.652   3.023   7.763  0.2319  0.3988  0.0939
   82CHL1  H21B 8528   0.602   2.857   7.816 -0.5022  0.5398  0.2419
   82CHL1  H21C 8529   0.686   2.874   7.657 -0.1679  4.0872 -0.8314
   82CHL1   C22 8530   0.809   2.948   7.973  0.2899  0.0548 -0.2984
   82CHL1  H22A 8531   0.910   2.964   8.017  0.3905  0.6617 -0.7364
   82CHL1  H22B 8532   0.746   3.039   7.978  0.8060  0.4114 -0.2222
   82CHL1   C23 8533   0.740   2.838   8.058 -0.2418 -0.3515  0.8202
   82CHL1  H23A 8534   0.637   2.813   8.026  0.3285 -0.9894 -0.6116
   82CHL1  H23B 8535   0.797   2.742   8.063 -1.3856 -1.0266  1.7119
   82CHL1   C24 8536   0.717   2.886   8.205 -0.1587  0.6163  0.5784
   82CHL1  H24A 8537   0.813   2.913   8.255  0.2269  1.1467 -0.4058
   82CHL1  H24B 8538   0.658   2.980   8.203  0.2628  0.9195  1.4534
   82CHL1   C25 8539   0.651   2.797   8.310  0.3723 -0.3771  0.1226
   82CHL1   H25 8540   0.703   2.699   8.308 -2.6955 -2.2335  2.3493
   82CHL1   C26 8541   0.683   2.843   8.455  0.1200 -0.6986 -0.1268
   82CHL1  H26A 8542   0.649   2.947   8.473 -2.2837 -1.2327 -1.0991
   82CHL1  H26B 8543   0.637   2.781   8.535  1.7009 -3.0940 -0.9506
   82CHL1  H26C 8544   0.793   2.842   8.465  0.1332  0.1645 -0.1336
   82CHL1   C27 8545   0.502   2.785   8.293 -0.1259 -0.0288 -0.1606
   82CHL1  H27A 8546   0.473   2.739   8.196 -0.2277  2.0003 -1.1349
   82CHL1  H27B 8547   0.456   2.731   8.379 -2.4809  0.2584 -1.1872
   82CHL1  H27C 8548   0.465   2.889   8.290  0.6861  0.2469 -1.1289
   83CHL1    C3 8549   4.203   2.582   6.956  0.4216  0.9651 -0.3058
   83CHL1    H3 8550   4.189   2.472   6.962 -0.9514  1.1248 -0.4155
   83CHL1    O3 8551   4.187   2.609   6.818  0.1552  0.4376  0.0911
   83CHL1   H3' 8552   4.131   2.540   6.782 -0.6468  1.4455 -0.6413
   83CHL1    C4 8553   4.094   2.654   7.032 -0.0137 -0.1375 -0.4034
   83CHL1   H4A 8554   4.110   2.762   7.010  3.1954 -0.6941 -1.4071
   83CHL1   H4B 8555   3.995   2.618   6.999 -0.4370 -2.0495  2.5511
   83CHL1    C5 8556   4.103   2.647   7.184 -0.9016  0.5193  0.1727
   83CHL1    C6 8557   4.001   2.595   7.255 -0.2992 -0.4474 -0.1153
   83CHL1    H6 8558   3.910   2.570   7.199 -1.2365 -1.5142  1.7749
   83CHL1    C7 8559   4.001   2.582   7.405 -0.1516  0.8333 -0.2338
   83CHL1   H7A 8560   3.901   2.612   7.444 -0.0082  0.2042  0.6370
   83CHL1   H7B 8561   4.009   2.476   7.437  0.0391  0.5564 -1.1514
   83CHL1    C8 8562   4.120   2.659   7.473  0.1576 -0.3762  0.4192
   83CHL1    H8 8563   4.103   2.767   7.452 -0.7068 -0.4626  0.6372
   83CHL1   C14 8564   4.139   2.632   7.620 -0.3968 -0.2055 -0.6289
   83CHL1   H14 8565   4.147   2.521   7.624 -2.9959 -0.4445  1.9555
   83CHL1   C15 8566   4.021   2.663   7.720  0.2119  0.1200 -0.3051
   83CHL1  H15A 8567   4.001   2.767   7.687  1.2819  0.6442  0.6395
   83CHL1  H15B 8568   3.929   2.601   7.710 -0.9527  2.0231 -2.0549
   83CHL1   C16 8569   4.095   2.655   7.857  0.1942 -0.4970 -0.0716
   83CHL1  H16A 8570   4.073   2.753   7.904  0.7983  0.4202 -1.6386
   83CHL1  H16B 8571   4.051   2.568   7.910  0.3568 -0.7517 -0.3517
   83CHL1   C17 8572   4.248   2.640   7.828  0.1047 -0.0965 -0.1957
   83CHL1   H17 8573   4.252   2.529   7.821 -1.5263 -0.0865 -2.0956
   83CHL1   C13 8574   4.262   2.690   7.691 -0.0630 -0.3611  0.5344
   83CHL1   C18 8575   4.251   2.845   7.679 -0.5459 -0.0929  0.0102
   83CHL1  H18A 8576   4.169   2.885   7.743 -0.7230 -1.3692  0.6101
   83CHL1  H18B 8577   4.341   2.889   7.727 -0.6495  1.5578 -1.2063
   83CHL1  H18C 8578   4.249   2.886   7.576  0.6411  0.4257  0.1789
   83CHL1   C12 8579   4.385   2.629   7.616 -0.1692  0.3608  0.2490
   83CHL1  H12A 8580   4.473   2.668   7.672 -0.2913  0.4459  0.3810
   83CHL1  H12B 8581   4.389   2.520   7.637 -1.9997  0.7524  3.3188
   83CHL1   C11 8582   4.388   2.660   7.466  0.8005  0.1829  0.2231
   83CHL1  H11A 8583   4.414   2.768   7.473  0.3370  0.3057  0.0992
   83CHL1  H11B 8584   4.468   2.612   7.405 -1.0999 -1.2230 -1.2778
   83CHL1    C9 8585   4.250   2.637   7.395 -0.2193  0.7667  0.3647
   83CHL1    H9 8586   4.252   2.526   7.389  0.3971  0.7856  0.1430
   83CHL1   C10 8587   4.245   2.686   7.243  0.4806  0.1229  0.0928
   83CHL1   C19 8588   4.269   2.833   7.239 -0.1452 -0.2503  0.4927
   83CHL1  H19A 8589   4.211   2.885   7.319  0.2443 -0.3118  0.8167
   83CHL1  H19B 8590   4.378   2.848   7.254  0.1624 -1.9965  0.2617
   83CHL1  H19C 8591   4.243   2.878   7.141 -0.0606 -1.3254 -0.0340
   83CHL1    C1 8592   4.349   2.609   7.159 -0.0765 -0.4707 -0.2212
   83CHL1   H1A 8593   4.451   2.631   7.196 -0.4416 -0.1209  0.5874
   83CHL1   H1B 8594   4.336   2.499   7.164  1.3174 -0.7563 -1.7665
   83CHL1    C2 8595   4.343   2.630   7.006  0.3736  0.0774 -1.3218
   83CHL1   H2A 8596   4.413   2.563   6.951 -1.7904 -0.7740 -3.2027
   83CHL1   H2B 8597   4.363   2.736   6.979 -0.1015 -0.0255 -2.1044
   83CHL1   C20 8598   4.348   2.688   7.940 -0.1007  0.0078 -0.3315
   83CHL1   H20 8599   4.448   2.693   7.892 -0.0606  1.3505 -0.1634
   83CHL1   C21 8600   4.355   2.578   8.041 -0.0837  0.1537  0.3391
   83CHL1  H21A 8601   4.254   2.561   8.085  0.2294  0.4281  1.1872
   83CHL1  H21B 8602   4.420   2.606   8.127  1.5756 -1.1233 -0.4268
   83CHL1  H21C 8603   4.407   2.492   7.993  1.6109  1.5095 -0.3701
   83CHL1   C22 8604   4.323   2.827   7.998 -0.1208  0.3325 -0.7478
   83CHL1  H22A 8605   4.309   2.908   7.923 -0.3888  2.3821  1.3877
   83CHL1  H22B 8606   4.231   2.813   8.059  0.2991 -2.2087 -0.5972
   83CHL1   C23 8607   4.440   2.873   8.085 -0.2736 -0.5892 -0.6514
   83CHL1  H23A 8608   4.441   2.800   8.169 -0.1217 -1.4635 -1.3854
   83CHL1  H23B 8609   4.532   2.870   8.023  0.0737  1.2772 -0.2892
   83CHL1   C24 8610   4.419   3.008   8.157  0.2998  0.0516  0.0576
   83CHL1  H24A 8611   4.409   3.086   8.078  1.2906 -0.7733 -0.9159
   83CHL1  H24B 8612   4.331   3.016   8.225  0.3483  1.5543 -0.0079
   83CHL1   C25 8613   4.530   3.048   8.253 -0.2747 -0.3712 -0.1675
   83CHL1   H25 8614   4.525   2.986   8.345 -3.1520  0.0569  0.0869
   83CHL1   C26 8615   4.666   3.030   8.186 -0.0224  0.9933  0.0924
   83CHL1  H26A 8616   4.652   3.071   8.084 -1.1581  0.4849  0.0330
   83CHL1  H26B 8617   4.743   3.094   8.235  0.0409  1.8911 -1.1576
   83CHL1  H26C 8618   4.700   2.924   8.190 -1.4021  0.5582  0.8354
   83CHL1   C27 8619   4.507   3.190   8.292  0.4389  0.4872 -0.0252
   83CHL1  H27A 8620   4.412   3.200   8.349  0.2543  2.5622 -0.6034
   83CHL1  H27B 8621   4.589   3.223   8.360  0.3743  1.1334 -0.2562
   83CHL1  H27C 8622   4.501   3.251   8.200 -1.0786 -1.8241 -1.5646
   84CHL1    C3 8623   1.694   6.788   6.849 -0.7184 -0.8544 -0.1265
   84CHL1    H3 8624   1.751   6.697   6.878  0.9366  0.4831  1.0174
   84CHL1    O3 8625   1.663   6.808   6.713  0.0017 -0.2904 -0.2503
   84CHL1   H3' 8626   1.735   6.780   6.656 -1.1115  0.3106 -2.0242
   84CHL1    C4 8627   1.565   6.800   6.930 -0.6971  0.5188  0.8023
   84CHL1   H4A 8628   1.523   6.902   6.920 -0.0615  0.8634  1.4880
   84CHL1   H4B 8629   1.499   6.720   6.889 -0.9256  0.5654  1.0731
   84CHL1    C5 8630   1.597   6.788   7.073 -0.0467 -0.4951 -0.7546
   84CHL1    C6 8631   1.550   6.681   7.136  1.0546  0.6328  0.1785
   84CHL1    H6 8632   1.481   6.609   7.089  0.6710 -0.5697  2.4397
   84CHL1    C7 8633   1.569   6.658   7.287 -0.0014  0.1077 -0.1707
   84CHL1   H7A 8634   1.476   6.623   7.337 -0.4830 -0.7279 -1.5732
   84CHL1   H7B 8635   1.642   6.578   7.312 -0.2156  0.3269  1.2233
   84CHL1    C8 8636   1.604   6.793   7.358 -0.2318  0.6814  0.0831
   84CHL1    H8 8637   1.518   6.864   7.363 -0.0753  0.8094  2.0659
   84CHL1   C14 8638   1.662   6.764   7.501  0.3799 -0.3778 -0.8270
   84CHL1   H14 8639   1.748   6.699   7.478  2.9704  1.9825  1.5178
   84CHL1   C15 8640   1.574   6.672   7.589 -0.2645 -0.8054  0.4948
   84CHL1  H15A 8641   1.470   6.709   7.587 -0.4445 -1.2524 -2.2198
   84CHL1  H15B 8642   1.559   6.569   7.550 -1.4328 -0.9230  1.2027
   84CHL1   C16 8643   1.635   6.696   7.729  0.4635  0.4808 -0.2227
   84CHL1  H16A 8644   1.554   6.714   7.803 -1.2885 -2.4895 -1.2269
   84CHL1  H16B 8645   1.689   6.604   7.761 -2.1986 -2.1924 -2.8198
   84CHL1   C17 8646   1.749   6.808   7.716  0.1852  0.3940 -0.2832
   84CHL1   H17 8647   1.837   6.747   7.687 -2.5533 -2.2075 -3.9746
   84CHL1   C13 8648   1.703   6.883   7.587 -0.2529 -0.5375 -0.2128
   84CHL1   C18 8649   1.585   6.978   7.621 -0.4684  0.3090 -0.0403
   84CHL1  H18A 8650   1.504   6.933   7.683 -1.0698 -1.0943 -1.7660
   84CHL1  H18B 8651   1.631   7.068   7.667  0.4061 -1.1201  2.0255
   84CHL1  H18C 8652   1.539   7.000   7.522 -0.9439 -1.9124 -0.3806
   84CHL1   C12 8653   1.803   6.961   7.512  0.0480  0.2924  0.2221
   84CHL1  H12A 8654   1.827   7.061   7.553 -0.4451  0.3472  0.3903
   84CHL1  H12B 8655   1.888   6.891   7.506 -0.2466 -0.0270 -0.4239
   84CHL1   C11 8656   1.767   6.981   7.363  0.2422  0.1311  0.3339
   84CHL1  H11A 8657   1.691   7.061   7.360 -1.8664 -1.7454  1.1719
   84CHL1  H11B 8658   1.858   7.026   7.318  1.1569  0.6807  2.5787
   84CHL1    C9 8659   1.721   6.861   7.286 -0.0127  1.3500 -0.1904
   84CHL1    H9 8660   1.801   6.784   7.277 -1.8609 -0.5287 -1.4131
   84CHL1   C10 8661   1.684   6.892   7.143  0.2282 -0.3828 -0.5087
   84CHL1   C19 8662   1.597   7.019   7.147 -0.3845 -0.3116  0.1035
   84CHL1  H19A 8663   1.540   7.054   7.057 -0.3798  0.2532  0.3141
   84CHL1  H19B 8664   1.527   7.012   7.232 -0.3635  0.7204  0.2249
   84CHL1  H19C 8665   1.653   7.113   7.169 -1.0423  0.6135 -1.8748
   84CHL1    C1 8666   1.807   6.913   7.050 -0.2637  1.3161  0.4238
   84CHL1   H1A 8667   1.861   7.006   7.077  0.8324  1.4549 -2.0049
   84CHL1   H1B 8668   1.878   6.830   7.068  0.8357  1.9514 -0.8554
   84CHL1    C2 8669   1.779   6.901   6.894  0.0167  0.5645 -0.2866
   84CHL1   H2A 8670   1.868   6.908   6.828 -0.0292 -0.0370 -0.4114
   84CHL1   H2B 8671   1.722   6.996   6.881 -0.0485  0.7224  0.9665
   84CHL1   C20 8672   1.762   6.878   7.854 -0.4288 -0.3663 -0.1715
   84CHL1   H20 8673   1.658   6.909   7.876 -0.7707  1.6167 -3.8733
   84CHL1   C21 8674   1.858   7.001   7.854  0.1851  0.0633 -0.3262
   84CHL1  H21A 8675   1.832   7.064   7.767  0.4078  0.3903 -0.1586
   84CHL1  H21B 8676   1.964   6.969   7.846 -0.0721 -0.2884 -4.0927
   84CHL1  H21C 8677   1.855   7.070   7.941  2.3255  1.1427 -1.0582
   84CHL1   C22 8678   1.798   6.791   7.985  0.1901  0.3967 -0.1417
   84CHL1  H22A 8679   1.717   6.716   7.995 -0.0670  0.6716 -0.1552
   84CHL1  H22B 8680   1.896   6.740   7.977  0.2865  0.0249  2.5094
   84CHL1   C23 8681   1.807   6.875   8.117  0.2625  1.0240 -0.1269
   84CHL1  H23A 8682   1.895   6.943   8.125  1.4556 -0.2869 -1.4739
   84CHL1  H23B 8683   1.709   6.926   8.115 -0.5678 -0.5242 -1.0759
   84CHL1   C24 8684   1.818   6.792   8.242  0.2391 -0.2874  0.0869
   84CHL1  H24A 8685   1.752   6.703   8.230  2.2668 -1.9502  0.4673
   84CHL1  H24B 8686   1.927   6.771   8.244  0.8070  2.4298  0.3728
   84CHL1   C25 8687   1.779   6.854   8.380 -0.3537 -0.1133  0.3404
   84CHL1   H25 8688   1.836   6.949   8.393  2.1820 -1.0826 -2.6513
   84CHL1   C26 8689   1.630   6.887   8.397 -0.7015 -1.0138  0.1826
   84CHL1  H26A 8690   1.574   6.795   8.370  1.1729 -1.5582 -2.1828
   84CHL1  H26B 8691   1.602   6.921   8.499 -0.1898 -2.5507  0.8605
   84CHL1  H26C 8692   1.617   6.964   8.317  2.3438 -0.7969 -0.2091
   84CHL1   C27 8693   1.830   6.760   8.495 -0.1102  0.2413  0.3359
   84CHL1  H27A 8694   1.814   6.810   8.593 -1.7444  0.2557  0.0756
   84CHL1  H27B 8695   1.776   6.664   8.504 -0.4982  0.3613 -0.6056
   84CHL1  H27C 8696   1.940   6.741   8.490 -0.5744 -2.3988 -1.8959
   85CHL1    C3 8697   2.796   3.178   6.984  0.1554  0.3966 -0.5326
   85CHL1    H3 8698   2.860   3.102   7.034 -2.2832 -0.8637  0.9068
   85CHL1    O3 8699   2.814   3.169   6.846 -0.1212  0.0871 -0.2150
   85CHL1   H3' 8700   2.898   3.211   6.828 -0.2422  1.0009  1.1475
   85CHL1    C4 8701   2.658   3.123   7.020  0.0897 -0.1023  0.1405
   85CHL1   H4A 8702   2.587   3.179   6.956 -0.0712 -0.0912  0.3277
   85CHL1   H4B 8703   2.666   3.018   6.986 -0.7011 -0.4053  0.8585
   85CHL1    C5 8704   2.619   3.128   7.160 -0.3459 -0.1737 -0.9700
   85CHL1    C6 8705   2.584   3.013   7.229  0.3065 -0.3890  0.3165
   85CHL1    H6 8706   2.583   2.918   7.174  2.7266  0.5824 -1.5561
   85CHL1    C7 8707   2.549   3.025   7.374 -0.7761  0.5491 -0.6537
   85CHL1   H7A 8708   2.455   2.968   7.390 -0.5948  0.5073  0.3432
   85CHL1   H7B 8709   2.626   2.970   7.432 -0.8327 -0.3750 -1.4237
   85CHL1    C8 8710   2.531   3.168   7.424  0.7501  0.1621  0.4447
   85CHL1    H8 8711   2.431   3.201   7.390  1.5321  2.3233  0.0587
   85CHL1   C14 8712   2.518   3.153   7.577  0.0943 -0.0085 -0.4711
   85CHL1   H14 8713   2.613   3.102   7.603 -0.2317  0.4293  1.8361
   85CHL1   C15 8714   2.410   3.057   7.635 -0.0277 -0.1227  0.6609
   85CHL1  H15A 8715   2.325   3.082   7.569  2.1853  1.5594 -1.7572
   85CHL1  H15B 8716   2.432   2.949   7.626 -0.1860 -0.1426  0.5310
   85CHL1   C16 8717   2.392   3.109   7.777 -0.0692 -0.5057  0.1828
   85CHL1  H16A 8718   2.288   3.148   7.782  0.3967  0.6535  1.5078
   85CHL1  H16B 8719   2.399   3.036   7.860 -1.9192  1.9720  2.6918
   85CHL1   C17 8720   2.484   3.227   7.799 -0.6551 -0.2887 -0.4131
   85CHL1   H17 8721   2.583   3.191   7.834 -0.9479 -0.2304  0.4942
   85CHL1   C13 8722   2.510   3.282   7.651 -0.4590 -0.4572  0.0480
   85CHL1   C18 8723   2.388   3.366   7.607  0.0502 -0.2438 -0.5380
   85CHL1  H18A 8724   2.403   3.464   7.657  0.2522 -0.8509  0.6317
   85CHL1  H18B 8725   2.378   3.380   7.497 -0.9179  3.2001 -0.1450
   85CHL1  H18C 8726   2.291   3.324   7.639  0.8133 -1.5234  0.1672
   85CHL1   C12 8727   2.644   3.360   7.618 -0.1198  0.5041  0.1296
   85CHL1  H12A 8728   2.640   3.462   7.662 -2.6173  0.9395 -0.9496
   85CHL1  H12B 8729   2.724   3.296   7.662 -2.0151 -1.3505  1.0707
   85CHL1   C11 8730   2.666   3.374   7.468 -0.5467  0.7981  0.8053
   85CHL1  H11A 8731   2.607   3.457   7.424 -0.5439  0.6776  0.5749
   85CHL1  H11B 8732   2.769   3.414   7.460 -0.3578 -0.0311 -2.6937
   85CHL1    C9 8733   2.653   3.250   7.380  0.4764  0.0095 -0.3581
   85CHL1    H9 8734   2.740   3.183   7.398  0.6918  0.2893 -0.3465
   85CHL1   C10 8735   2.650   3.265   7.227  0.8602 -0.2731 -0.1431
   85CHL1   C19 8736   2.539   3.368   7.185  0.3736  0.3468  0.0025
   85CHL1  H19A 8737   2.446   3.343   7.240  0.6025 -2.1727 -0.6082
   85CHL1  H19B 8738   2.573   3.471   7.208 -0.4263  0.7566 -0.6201
   85CHL1  H19C 8739   2.520   3.373   7.076 -0.1036  0.4540  0.0910
   85CHL1    C1 8740   2.794   3.328   7.182  1.1462  0.5430  0.0065
   85CHL1   H1A 8741   2.793   3.434   7.216 -0.4897  1.1383 -1.7491
   85CHL1   H1B 8742   2.870   3.270   7.240  2.2208  3.2775  1.5409
   85CHL1    C2 8743   2.820   3.318   7.035  0.6603 -0.3367  0.2999
   85CHL1   H2A 8744   2.921   3.358   7.011  1.5910 -2.2982  0.7359
   85CHL1   H2B 8745   2.754   3.377   6.967 -0.6289 -1.2257  0.7463
   85CHL1   C20 8746   2.440   3.335   7.895  0.4586 -0.3556 -0.4701
   85CHL1   H20 8747   2.346   3.378   7.856  0.2463 -0.1887  0.2116
   85CHL1   C21 8748   2.551   3.436   7.907  0.5354  0.3003  0.1869
   85CHL1  H21A 8749   2.542   3.519   7.833  2.5411  1.2001  0.8450
   85CHL1  H21B 8750   2.649   3.392   7.879  0.4705 -0.3280  0.9194
   85CHL1  H21C 8751   2.549   3.474   8.012  0.8214  0.2530  0.2110
   85CHL1   C22 8752   2.422   3.272   8.041  1.1244 -0.2466 -0.3391
   85CHL1  H22A 8753   2.355   3.184   8.040 -0.3056  0.7608  1.1881
   85CHL1  H22B 8754   2.518   3.249   8.092  1.0473  1.0121  0.4261
   85CHL1   C23 8755   2.342   3.358   8.139 -0.0485  0.2937  0.1236
   85CHL1  H23A 8756   2.385   3.460   8.148  1.5144 -0.4327  1.2362
   85CHL1  H23B 8757   2.247   3.369   8.082 -0.2803 -3.6262 -0.5217
   85CHL1   C24 8758   2.324   3.289   8.276 -0.5604  0.4810  0.2041
   85CHL1  H24A 8759   2.284   3.186   8.275 -2.4394  1.1722 -0.9781
   85CHL1  H24B 8760   2.423   3.305   8.324 -0.4154  0.4049 -0.0653
   85CHL1   C25 8761   2.219   3.369   8.359  0.4319  0.2634  0.3340
   85CHL1   H25 8762   2.135   3.384   8.289  0.9357 -0.4619 -0.4448
   85CHL1   C26 8763   2.177   3.286   8.483  0.1546 -1.4051  0.1389
   85CHL1  H26A 8764   2.126   3.195   8.443 -1.9404 -1.6011  3.0048
   85CHL1  H26B 8765   2.264   3.258   8.545  1.6931 -0.0948 -1.3406
   85CHL1  H26C 8766   2.104   3.329   8.554  2.7426  0.7505  1.6556
   85CHL1   C27 8767   2.280   3.504   8.413 -0.9312 -1.0482  0.0194
   85CHL1  H27A 8768   2.373   3.469   8.464  0.3400 -0.2882 -1.6916
   85CHL1  H27B 8769   2.303   3.567   8.324 -1.0779 -1.5386 -0.3726
   85CHL1  H27C 8770   2.204   3.552   8.477  1.0140  0.4341  1.3415
   86CHL1    C3 8771   6.350   1.508   7.069  0.1091 -0.2735  0.4739
   86CHL1    H3 8772   6.242   1.516   7.090 -0.1419 -1.7487 -0.1461
   86CHL1    O3 8773   6.366   1.527   6.929  1.1096  0.1087  0.4456
   86CHL1   H3' 8774   6.332   1.611   6.897  1.1195 -0.0571 -0.0006
   86CHL1    C4 8775   6.440   1.614   7.136  0.0354 -1.2901 -0.6562
   86CHL1   H4A 8776   6.545   1.612   7.100  0.7676  1.5211  0.9641
   86CHL1   H4B 8777   6.401   1.716   7.113 -1.0719 -1.0690  1.8372
   86CHL1    C5 8778   6.437   1.592   7.283  0.1843  0.7571  1.0852
   86CHL1    C6 8779   6.400   1.682   7.373  0.0720 -0.4192 -0.2778
   86CHL1    H6 8780   6.370   1.779   7.329  1.0329 -1.1497 -2.6773
   86CHL1    C7 8781   6.386   1.659   7.528  0.0834 -0.3181  0.6147
   86CHL1   H7A 8782   6.434   1.748   7.573  1.2245 -0.1527 -0.8502
   86CHL1   H7B 8783   6.275   1.662   7.542  0.2775  4.0782  2.8950
   86CHL1    C8 8784   6.455   1.534   7.577  0.5313  0.1069 -0.0999
   86CHL1    H8 8785   6.564   1.558   7.577  0.7257 -0.6960  0.7172
   86CHL1   C14 8786   6.404   1.497   7.710 -0.2789  0.0101  0.1401
   86CHL1   H14 8787   6.298   1.470   7.689 -0.0442 -0.6191 -0.2511
   86CHL1   C15 8788   6.403   1.598   7.831 -0.2056 -0.2931  0.1345
   86CHL1  H15A 8789   6.500   1.651   7.831  0.3130 -0.8639 -4.1324
   86CHL1  H15B 8790   6.322   1.674   7.819  1.1784  0.9296 -2.2490
   86CHL1   C16 8791   6.399   1.517   7.959  1.0543 -0.1194  0.4063
   86CHL1  H16A 8792   6.494   1.527   8.016  1.1835  0.6887  0.0650
   86CHL1  H16B 8793   6.311   1.530   8.027 -0.0329 -2.8405 -0.3642
   86CHL1   C17 8794   6.383   1.373   7.908  0.2138  0.3510 -0.0762
   86CHL1   H17 8795   6.282   1.348   7.872 -0.6385  1.1768  1.5932
   86CHL1   C13 8796   6.459   1.369   7.774 -0.1128 -0.1549  0.3321
   86CHL1   C18 8797   6.614   1.391   7.799 -0.5537 -0.4450  0.8717
   86CHL1  H18A 8798   6.654   1.302   7.852  0.9471  0.5572  1.5158
   86CHL1  H18B 8799   6.672   1.400   7.705 -1.0893 -2.1280  0.3504
   86CHL1  H18C 8800   6.625   1.477   7.869  2.0193  1.9293 -2.1226
   86CHL1   C12 8801   6.442   1.248   7.687 -1.4727 -0.6089 -0.3995
   86CHL1  H12A 8802   6.504   1.160   7.713 -0.6452  0.3342  1.0117
   86CHL1  H12B 8803   6.335   1.220   7.678 -0.7337 -3.0963 -2.3279
   86CHL1   C11 8804   6.487   1.280   7.542 -0.5582  0.0685 -0.4527
   86CHL1  H11A 8805   6.597   1.285   7.557 -0.5782  0.5723 -0.4557
   86CHL1  H11B 8806   6.456   1.194   7.480 -1.4321 -2.0747  2.7220
   86CHL1    C9 8807   6.437   1.416   7.482 -0.4180 -0.0353  0.0697
   86CHL1    H9 8808   6.326   1.413   7.479 -0.5394  1.0327  1.7932
   86CHL1   C10 8809   6.476   1.448   7.337  0.5515  0.2235  0.1282
   86CHL1   C19 8810   6.627   1.424   7.306 -0.8614  0.1323 -0.0178
   86CHL1  H19A 8811   6.697   1.501   7.344 -2.1146  0.3046  2.1622
   86CHL1  H19B 8812   6.657   1.318   7.326  0.7881  0.1909 -1.8929
   86CHL1  H19C 8813   6.652   1.437   7.199  2.9372 -0.2012  0.6771
   86CHL1    C1 8814   6.398   1.347   7.249 -0.2799 -0.0205 -0.4910
   86CHL1   H1A 8815   6.453   1.252   7.265  0.0997  0.3425  0.4691
   86CHL1   H1B 8816   6.297   1.330   7.292 -0.5503  1.1214 -0.6439
   86CHL1    C2 8817   6.402   1.371   7.100  0.0437 -0.3515 -0.5457
   86CHL1   H2A 8818   6.345   1.295   7.044 -0.4955 -2.6810  2.8614
   86CHL1   H2B 8819   6.507   1.362   7.064  1.6126  2.1215  2.7704
   86CHL1   C20 8820   6.419   1.258   8.008 -0.5219 -0.3489 -0.3125
   86CHL1   H20 8821   6.447   1.172   7.943  0.5834 -0.0102 -0.2976
   86CHL1   C21 8822   6.292   1.222   8.089 -0.1654 -0.2177  0.9535
   86CHL1  H21A 8823   6.218   1.161   8.033 -0.3114  1.1702 -0.4389
   86CHL1  H21B 8824   6.235   1.311   8.124 -0.0037 -0.2829  1.3879
   86CHL1  H21C 8825   6.314   1.167   8.183 -0.0718  0.7576  1.5156
   86CHL1   C22 8826   6.535   1.292   8.108  0.6749 -0.5029 -0.2835
   86CHL1  H22A 8827   6.631   1.338   8.076  0.1089  2.4377  1.8789
   86CHL1  H22B 8828   6.488   1.364   8.178  1.8058  0.9510 -0.9631
   86CHL1   C23 8829   6.583   1.172   8.195 -0.2171 -0.6440  0.4885
   86CHL1  H23A 8830   6.499   1.112   8.235 -0.2112  1.1397  3.5112
   86CHL1  H23B 8831   6.640   1.112   8.121 -2.5425 -0.0014 -2.0181
   86CHL1   C24 8832   6.666   1.218   8.321 -0.3980 -0.3142  0.9091
   86CHL1  H24A 8833   6.748   1.290   8.302 -1.2721  0.5737  0.3405
   86CHL1  H24B 8834   6.609   1.277   8.397  0.9587  1.7127  0.4257
   86CHL1   C25 8835   6.722   1.097   8.392  0.6742 -0.2893 -1.0628
   86CHL1   H25 8836   6.737   1.022   8.311  1.3242  0.1723 -1.3863
   86CHL1   C26 8837   6.853   1.123   8.459 -0.7229  0.4632  0.8784
   86CHL1  H26A 8838   6.930   1.159   8.387 -0.1510 -0.7876  0.8394
   86CHL1  H26B 8839   6.860   1.198   8.541  0.8997  1.3576 -0.0171
   86CHL1  H26C 8840   6.889   1.029   8.505  1.4244  0.4236 -0.7225
   86CHL1   C27 8841   6.624   1.052   8.499 -0.5105 -0.5645  0.7879
   86CHL1  H27A 8842   6.643   0.949   8.535 -1.5593 -0.6418  1.1454
   86CHL1  H27B 8843   6.634   1.119   8.587  0.2243  0.4657 -0.0482
   86CHL1  H27C 8844   6.521   1.061   8.457 -0.5103 -0.6241  0.7762
   87CHL1    C3 8845   2.623   5.968   7.138  0.0464  0.2322  0.3180
   87CHL1    H3 8846   2.551   5.883   7.143  1.6591 -1.3904 -1.8062
   87CHL1    O3 8847   2.639   5.990   7.000  1.1023  0.1109 -0.0322
   87CHL1   H3' 8848   2.580   5.932   6.949 -0.5003  2.5821 -1.1923
   87CHL1    C4 8849   2.577   6.100   7.210 -0.2578 -0.5117 -0.2889
   87CHL1   H4A 8850   2.662   6.166   7.185  0.2599 -1.2002 -0.3764
   87CHL1   H4B 8851   2.482   6.140   7.167 -0.9412 -1.7091  0.0393
   87CHL1    C5 8852   2.565   6.090   7.362 -0.0612  0.0655 -0.6753
   87CHL1    C6 8853   2.444   6.100   7.425  0.0864  0.6677  0.2443
   87CHL1    H6 8854   2.351   6.099   7.367 -0.1288 -1.0076  0.5570
   87CHL1    C7 8855   2.432   6.093   7.574 -0.3950 -0.0593  0.6068
   87CHL1   H7A 8856   2.360   6.171   7.608  0.6347  1.9431 -1.5096
   87CHL1   H7B 8857   2.383   5.995   7.592  1.0843 -0.6949  1.3464
   87CHL1    C8 8858   2.565   6.099   7.654 -1.1493  0.2903  1.0265
   87CHL1    H8 8859   2.597   6.205   7.641  0.1824 -0.3378 -1.7221
   87CHL1   C14 8860   2.539   6.066   7.801  0.1929  0.1392  0.4554
   87CHL1   H14 8861   2.512   5.958   7.800  0.3860  0.0191  2.6658
   87CHL1   C15 8862   2.420   6.135   7.873 -0.3626 -0.6203  0.3206
   87CHL1  H15A 8863   2.407   6.241   7.842 -1.0956 -0.6192  0.6121
   87CHL1  H15B 8864   2.328   6.080   7.844  0.0975 -1.4979  0.5103
   87CHL1   C16 8865   2.453   6.133   8.019 -0.1203  1.1474 -0.4374
   87CHL1  H16A 8866   2.457   6.240   8.046  0.2053  1.9150 -3.2389
   87CHL1  H16B 8867   2.376   6.073   8.073  0.9070  0.5339  0.3893
   87CHL1   C17 8868   2.585   6.055   8.024 -0.6268 -0.2871  0.4090
   87CHL1   H17 8869   2.551   5.950   8.023 -0.1305 -0.4664  1.1048
   87CHL1   C13 8870   2.660   6.082   7.892 -0.0597 -0.2042  0.2127
   87CHL1   C18 8871   2.693   6.235   7.899  0.3193  0.4086  0.0391
   87CHL1  H18A 8872   2.605   6.299   7.917 -0.2625  0.2716 -2.0213
   87CHL1  H18B 8873   2.756   6.259   7.987 -0.9783 -0.7985  1.3492
   87CHL1  H18C 8874   2.722   6.282   7.803 -1.8524  1.0852 -0.3419
   87CHL1   C12 8875   2.767   5.983   7.830 -0.3509  0.1709 -0.3786
   87CHL1  H12A 8876   2.860   6.003   7.888 -1.2567  2.9067  0.2537
   87CHL1  H12B 8877   2.752   5.873   7.837  0.7569  0.0136 -0.3451
   87CHL1   C11 8878   2.799   6.025   7.679 -0.5356  0.7104 -0.4976
   87CHL1  H11A 8879   2.850   6.124   7.684 -1.5907  1.2714 -0.3227
   87CHL1  H11B 8880   2.867   5.942   7.652 -0.3838  0.6046  0.1829
   87CHL1    C9 8881   2.677   6.019   7.587 -0.0212  0.5039  0.3136
   87CHL1    H9 8882   2.643   5.913   7.579  0.9036  0.0740  1.6250
   87CHL1   C10 8883   2.700   6.058   7.437 -0.3291 -0.3013 -0.2578
   87CHL1   C19 8884   2.802   6.181   7.421 -0.2204 -0.2490 -0.7753
   87CHL1  H19A 8885   2.896   6.168   7.478 -2.2518  0.9352  3.1676
   87CHL1  H19B 8886   2.830   6.173   7.313  3.2103  0.5177 -0.0611
   87CHL1  H19C 8887   2.745   6.275   7.433 -0.2439 -0.2457 -0.9109
   87CHL1    C1 8888   2.759   5.934   7.358  0.2951  0.0051  0.4254
   87CHL1   H1A 8889   2.864   5.906   7.382 -0.1346 -1.7912  0.3426
   87CHL1   H1B 8890   2.696   5.844   7.375  1.2668 -0.8818 -0.5057
   87CHL1    C2 8891   2.762   5.936   7.200  0.3312  0.3056  0.2910
   87CHL1   H2A 8892   2.772   5.829   7.170  0.1225 -0.6056  3.1286
   87CHL1   H2B 8893   2.830   6.003   7.145 -2.3128  1.5839 -1.6545
   87CHL1   C20 8894   2.664   6.087   8.157  0.6254 -0.4848  0.0653
   87CHL1   H20 8895   2.702   6.191   8.161  2.8801 -1.2876  1.0365
   87CHL1   C21 8896   2.782   5.985   8.159  0.8105  0.0017 -0.7813
   87CHL1  H21A 8897   2.735   5.888   8.132 -0.1852 -0.0864  1.0914
   87CHL1  H21B 8898   2.828   5.989   8.260  1.5589  3.0719 -1.1388
   87CHL1  H21C 8899   2.858   6.013   8.084  0.7292  1.2017 -0.4350
   87CHL1   C22 8900   2.579   6.055   8.278 -0.1229 -0.1257 -0.5765
   87CHL1  H22A 8901   2.472   6.083   8.266  0.0608  1.0551  0.3436
   87CHL1  H22B 8902   2.583   5.944   8.279 -0.3519 -0.1418 -1.0527
   87CHL1   C23 8903   2.636   6.110   8.416 -0.0875  0.2915  0.1760
   87CHL1  H23A 8904   2.728   6.052   8.439 -0.5552 -1.3389 -1.7774
   87CHL1  H23B 8905   2.660   6.216   8.397  0.5772 -0.2476 -2.3781
   87CHL1   C24 8906   2.538   6.101   8.526 -0.4773  0.2765  0.6949
   87CHL1  H24A 8907   2.436   6.143   8.507  0.8238  2.5894 -1.9159
   87CHL1  H24B 8908   2.527   5.992   8.544  2.0594  0.2292  2.4247
   87CHL1   C25 8909   2.594   6.169   8.658 -0.5206  0.1132  0.4983
   87CHL1   H25 8910   2.518   6.165   8.738 -1.2433 -1.8847 -0.2280
   87CHL1   C26 8911   2.714   6.109   8.717  0.6821  0.3262 -0.8848
   87CHL1  H26A 8912   2.784   6.053   8.651 -0.4874 -3.4343  0.8416
   87CHL1  H26B 8913   2.778   6.182   8.771 -0.3191  0.5992 -0.0498
   87CHL1  H26C 8914   2.688   6.034   8.794 -0.5939  1.2352 -0.4041
   87CHL1   C27 8915   2.632   6.313   8.630  0.0623 -0.6663  0.3317
   87CHL1  H27A 8916   2.559   6.365   8.564 -1.2906 -0.8086  1.6717
   87CHL1  H27B 8917   2.639   6.377   8.720 -0.9659 -0.4052  0.2385
   87CHL1  H27C 8918   2.725   6.326   8.571  0.5195  2.9132  1.6262
   88CHL1    C3 8919   5.258   2.989   6.964 -0.7481 -0.0565 -0.3950
   88CHL1    H3 8920   5.250   3.100   6.972  1.9442  0.1825  0.1120
   88CHL1    O3 8921   5.282   2.948   6.829 -0.6281 -0.3776 -0.8714
   88CHL1   H3' 8922   5.200   2.954   6.779 -0.3461  0.6600 -1.2277
   88CHL1    C4 8923   5.377   2.958   7.056  0.0738  0.4831  0.2338
   88CHL1   H4A 8924   5.414   2.854   7.044 -0.7238  0.1721  0.4131
   88CHL1   H4B 8925   5.455   3.026   7.015 -1.7119 -0.0679 -4.7212
   88CHL1    C5 8926   5.341   2.986   7.204 -0.5533  0.6491  0.7406
   88CHL1    C6 8927   5.418   3.070   7.271  0.2564 -0.3284 -0.2954
   88CHL1    H6 8928   5.499   3.128   7.224 -0.3066 -0.3947 -1.3806
   88CHL1    C7 8929   5.396   3.101   7.417 -0.4125  0.1086  0.0492
   88CHL1   H7A 8930   5.490   3.109   7.475  0.6326 -0.3986 -1.5040
   88CHL1   H7B 8931   5.344   3.198   7.422  0.0404  0.3724 -0.2236
   88CHL1    C8 8932   5.300   3.002   7.489 -0.0873 -0.0716  0.8019
   88CHL1    H8 8933   5.347   2.902   7.504 -1.0855 -0.8647 -1.0440
   88CHL1   C14 8934   5.258   3.057   7.624  0.6911  0.1428  0.3666
   88CHL1   H14 8935   5.200   3.146   7.592 -1.4825 -2.2339 -3.0359
   88CHL1   C15 8936   5.360   3.092   7.726  0.2759 -0.2763  0.2091
   88CHL1  H15A 8937   5.439   3.014   7.730 -0.3313 -0.8510  2.2108
   88CHL1  H15B 8938   5.404   3.192   7.707  0.5138 -0.1799  1.2172
   88CHL1   C16 8939   5.283   3.095   7.862  0.0041 -0.7150 -0.1033
   88CHL1  H16A 8940   5.318   3.003   7.913 -0.4420 -0.4131  0.7563
   88CHL1  H16B 8941   5.306   3.189   7.917  0.4319  0.0009 -1.4614
   88CHL1   C17 8942   5.133   3.056   7.826  0.0513  0.2393  0.1843
   88CHL1   H17 8943   5.091   3.153   7.791  1.1874  0.5241 -0.4667
   88CHL1   C13 8944   5.146   2.975   7.699 -0.1893 -0.1183  0.6328
   88CHL1   C18 8945   5.207   2.837   7.739 -0.0691 -0.6399 -0.0463
   88CHL1  H18A 8946   5.128   2.773   7.783 -0.0450  1.3505  3.2348
   88CHL1  H18B 8947   5.251   2.796   7.646  0.7117 -0.7352  0.3574
   88CHL1  H18C 8948   5.291   2.834   7.812  0.5836 -1.1806 -0.8148
   88CHL1   C12 8949   5.025   2.967   7.606  0.6034 -0.2351 -0.6785
   88CHL1  H12A 8950   4.937   2.909   7.642  0.7935 -0.6979 -0.9423
   88CHL1  H12B 8951   4.998   3.074   7.589 -2.1056 -0.7630 -0.2481
   88CHL1   C11 8952   5.061   2.907   7.471  0.3003 -0.5919 -0.5629
   88CHL1  H11A 8953   5.108   2.812   7.504 -1.3129 -0.8158  1.2806
   88CHL1  H11B 8954   4.969   2.875   7.417 -1.3621  0.7150  1.3485
   88CHL1    C9 8955   5.173   2.985   7.395  0.3700  0.0657 -0.1806
   88CHL1    H9 8956   5.125   3.082   7.371  0.8480  0.0354 -1.2908
   88CHL1   C10 8957   5.213   2.924   7.261  0.0814 -0.4766  0.1436
   88CHL1   C19 8958   5.224   2.771   7.274 -0.3855  0.2270  0.0853
   88CHL1  H19A 8959   5.124   2.727   7.297 -0.8055  1.0940 -0.0404
   88CHL1  H19B 8960   5.260   2.733   7.176  1.1056  0.2824  0.5949
   88CHL1  H19C 8961   5.298   2.747   7.353 -0.6418 -0.7667  0.0372
   88CHL1    C1 8962   5.100   2.962   7.161  0.4963 -0.5328 -0.3617
   88CHL1   H1A 8963   5.005   2.913   7.192 -0.5392  1.8903  0.5804
   88CHL1   H1B 8964   5.078   3.071   7.166 -1.1372 -0.8499  0.0025
   88CHL1    C2 8965   5.130   2.934   7.015 -0.2233  0.2430 -0.2802
   88CHL1   H2A 8966   5.052   2.971   6.945  1.8148  1.8723 -1.8087
   88CHL1   H2B 8967   5.120   2.824   7.003 -2.0087  0.4569 -1.0004
   88CHL1   C20 8968   5.062   2.995   7.950  0.5134  0.2554  0.6266
   88CHL1   H20 8969   5.123   2.908   7.982  1.3426  0.4886 -0.2760
   88CHL1   C21 8970   4.913   2.950   7.920  0.3199 -0.0301 -0.2272
   88CHL1  H21A 8971   4.865   3.034   7.865  1.4081  1.4768  1.0166
   88CHL1  H21B 8972   4.854   2.918   8.008  0.3803 -2.3874 -0.9762
   88CHL1  H21C 8973   4.928   2.864   7.852 -1.7788 -0.3312 -0.3588
   88CHL1   C22 8974   5.061   3.088   8.069 -0.0274 -0.3967  0.0534
   88CHL1  H22A 8975   5.154   3.148   8.063  0.7394 -1.4627  0.8769
   88CHL1  H22B 8976   4.972   3.155   8.072  0.6945  0.6109 -0.5408
   88CHL1   C23 8977   5.061   3.011   8.201  0.3469 -0.7205 -0.2081
   88CHL1  H23A 8978   4.975   2.941   8.206  0.7720 -1.4018 -1.8498
   88CHL1  H23B 8979   5.151   2.949   8.215  0.4273 -0.8099 -1.0762
   88CHL1   C24 8980   5.061   3.123   8.312  0.2473 -0.5127 -0.7736
   88CHL1  H24A 8981   5.133   3.202   8.280 -1.1359  1.1558  0.0680
   88CHL1  H24B 8982   4.961   3.170   8.303 -0.2094 -1.7125 -2.3717
   88CHL1   C25 8983   5.081   3.063   8.451 -0.1825 -0.1277 -0.5560
   88CHL1   H25 8984   5.161   2.986   8.446 -0.6105 -1.0101  3.1930
   88CHL1   C26 8985   5.144   3.159   8.550  0.5446 -0.3645  0.4261
   88CHL1  H26A 8986   5.073   3.244   8.560  0.8438  0.0309 -0.6401
   88CHL1  H26B 8987   5.144   3.113   8.651  1.0847 -1.5937 -0.1117
   88CHL1  H26C 8988   5.243   3.206   8.529 -0.2748  0.8080 -0.9983
   88CHL1   C27 8989   4.957   2.999   8.504 -0.4798 -0.3590  0.2192
   88CHL1  H27A 8990   4.971   2.960   8.607 -2.0553 -0.7472  0.3094
   88CHL1  H27B 8991   4.884   3.083   8.505  1.0334  1.0129 -0.3131
   88CHL1  H27C 8992   4.915   2.919   8.439 -2.6291 -0.7009  1.9028
   89CHL1    C3 8993   6.459   3.005   6.972  0.2108  0.4181  0.0736
   89CHL1    H3 8994   6.349   2.988   6.981 -0.3479  2.0797 -2.5430
   89CHL1    O3 8995   6.491   3.013   6.837 -0.5697 -0.0679 -0.0152
   89CHL1   H3' 8996   6.580   3.048   6.836 -0.2680 -0.8169 -0.5451
   89CHL1    C4 8997   6.488   3.139   7.055  0.0548  0.3466  0.0307
   89CHL1   H4A 8998   6.590   3.174   7.029 -0.7935  1.1035 -2.6047
   89CHL1   H4B 8999   6.435   3.231   7.022 -0.1188  0.3025  0.1801
   89CHL1    C5 9000   6.473   3.111   7.208  0.2759  0.1746  0.2855
   89CHL1    C6 9001   6.388   3.176   7.288  0.5310  0.4423 -0.2029
   89CHL1    H6 9002   6.340   3.267   7.248  3.4453  2.3492  0.3292
   89CHL1    C7 9003   6.379   3.160   7.436 -0.4113 -0.6850 -0.2694
   89CHL1   H7A 9004   6.378   3.254   7.496 -0.4935 -0.2790 -0.8941
   89CHL1   H7B 9005   6.283   3.109   7.459 -1.7808  2.1553  0.7101
   89CHL1    C8 9006   6.493   3.079   7.495  0.0037 -0.1895  0.9583
   89CHL1    H8 9007   6.591   3.132   7.502 -0.5946  1.4159 -1.5041
   89CHL1   C14 9008   6.448   3.025   7.635  0.7923 -0.3961  0.1477
   89CHL1   H14 9009   6.355   2.967   7.618 -0.0766  0.6833  1.0909
   89CHL1   C15 9010   6.394   3.130   7.730  0.1697 -0.5378  0.4949
   89CHL1  H15A 9011   6.459   3.220   7.732  0.0053 -0.4266  1.1292
   89CHL1  H15B 9012   6.291   3.161   7.704  0.0735  0.2857  1.7514
   89CHL1   C16 9013   6.402   3.063   7.858  0.0827  0.3158 -0.3274
   89CHL1  H16A 9014   6.463   3.120   7.931  1.7628 -0.7183 -0.8490
   89CHL1  H16B 9015   6.303   3.051   7.906  0.9785 -2.7583  1.0520
   89CHL1   C17 9016   6.464   2.918   7.838  0.2911 -0.0860 -0.2493
   89CHL1   H17 9017   6.377   2.851   7.820  0.7933 -1.4084  1.9003
   89CHL1   C13 9018   6.542   2.936   7.701  0.5315 -0.7762 -0.2217
   89CHL1   C18 9019   6.677   3.006   7.743  0.4988 -0.1221 -0.3992
   89CHL1  H18A 9020   6.723   3.059   7.657  0.5145 -0.7358 -0.7759
   89CHL1  H18B 9021   6.646   3.078   7.822 -1.1819 -0.8979 -0.2969
   89CHL1  H18C 9022   6.740   2.923   7.783 -2.2343 -1.5696  1.2442
   89CHL1   C12 9023   6.563   2.813   7.609  0.5199 -0.1633  0.0256
   89CHL1  H12A 9024   6.651   2.757   7.647  1.4525  2.0775  1.4076
   89CHL1  H12B 9025   6.475   2.746   7.613  0.9003 -0.7291 -0.7591
   89CHL1   C11 9026   6.616   2.855   7.467  0.5639 -0.8351 -0.0733
   89CHL1  H11A 9027   6.711   2.910   7.484  0.0097 -0.1444  0.8868
   89CHL1  H11B 9028   6.625   2.762   7.407  1.5044 -0.6844 -0.1700
   89CHL1    C9 9029   6.516   2.953   7.407 -0.4602 -0.1998 -0.1210
   89CHL1    H9 9030   6.419   2.901   7.424  0.4681 -1.4356  1.5748
   89CHL1   C10 9031   6.549   2.988   7.260 -0.2922  0.4192 -0.1104
   89CHL1   C19 9032   6.703   3.017   7.242  0.0820 -0.1318  0.9760
   89CHL1  H19A 9033   6.760   2.922   7.248  0.1996 -0.3887 -2.3897
   89CHL1  H19B 9034   6.729   3.061   7.143  1.9819  0.9812  1.9065
   89CHL1  H19C 9035   6.755   3.081   7.317 -1.6417  2.9888 -0.2988
   89CHL1    C1 9036   6.511   2.857   7.179 -0.8468  0.0810  0.5590
   89CHL1   H1A 9037   6.579   2.770   7.194 -0.7835 -0.1017 -0.6594
   89CHL1   H1B 9038   6.409   2.824   7.209 -0.9547  1.7006  2.1882
   89CHL1    C2 9039   6.529   2.880   7.030 -0.1776  0.4193  0.4280
   89CHL1   H2A 9040   6.491   2.796   6.969  0.5456  1.6909 -1.9217
   89CHL1   H2B 9041   6.635   2.885   6.998 -0.0033 -0.8362  0.7607
   89CHL1   C20 9042   6.528   2.855   7.962 -0.2648 -0.3077  0.1645
   89CHL1   H20 9043   6.609   2.924   7.996 -1.0178 -0.7623  3.0587
   89CHL1   C21 9044   6.599   2.720   7.931  0.6176  0.1541 -0.1627
   89CHL1  H21A 9045   6.532   2.652   7.873 -1.0804  0.6140  1.1657
   89CHL1  H21B 9046   6.639   2.667   8.020 -0.7554 -2.2317 -0.8825
   89CHL1  H21C 9047   6.694   2.737   7.876  0.6510  1.7148  0.3443
   89CHL1   C22 9048   6.429   2.839   8.082 -0.1223  0.2657  1.0503
   89CHL1  H22A 9049   6.357   2.923   8.091  0.5088  1.1514 -1.2720
   89CHL1  H22B 9050   6.374   2.743   8.083 -0.4591  0.4236  3.4304
   89CHL1   C23 9051   6.511   2.859   8.210  0.0175  0.2907  0.5615
   89CHL1  H23A 9052   6.569   2.765   8.219 -1.8405 -1.3093 -2.4367
   89CHL1  H23B 9053   6.573   2.951   8.206  0.9162 -0.2302  1.8734
   89CHL1   C24 9054   6.418   2.859   8.335 -0.1988  1.0143  0.1031
   89CHL1  H24A 9055   6.389   2.964   8.357 -0.6431  0.9808 -0.3342
   89CHL1  H24B 9056   6.331   2.790   8.336  0.1262  0.5935 -0.3812
   89CHL1   C25 9057   6.505   2.826   8.459  0.6979 -0.7748  0.2829
   89CHL1   H25 9058   6.577   2.746   8.432  0.4684 -1.1948  0.8705
   89CHL1   C26 9059   6.579   2.947   8.518 -0.0879  0.6105  0.0596
   89CHL1  H26A 9060   6.658   2.974   8.446  0.1979  1.7134  0.7644
   89CHL1  H26B 9061   6.509   3.032   8.531 -0.4655  0.3455 -0.2197
   89CHL1  H26C 9062   6.625   2.927   8.617 -0.6582 -1.5516 -0.0561
   89CHL1   C27 9063   6.407   2.768   8.575  0.9445 -0.0285 -0.3025
   89CHL1  H27A 9064   6.465   2.733   8.662  0.8165 -0.6204 -0.4500
   89CHL1  H27B 9065   6.345   2.846   8.624  1.7436  0.7026 -0.4520
   89CHL1  H27C 9066   6.340   2.689   8.533  3.1023 -2.9206  1.3930
   90CHL1    C3 9067   4.007   5.618   6.978  0.6260 -0.2186 -0.6569
   90CHL1    H3 9068   3.928   5.694   6.961 -0.1970 -1.0175 -0.5109
   90CHL1    O3 9069   4.031   5.527   6.874  0.0319  0.7046 -0.0020
   90CHL1   H3' 9070   3.959   5.538   6.811  0.5028  1.9062 -0.3535
   90CHL1    C4 9071   4.138   5.686   7.015 -0.0474  0.1898  0.2278
   90CHL1   H4A 9072   4.212   5.603   7.014  0.3777  0.5569  0.8340
   90CHL1   H4B 9073   4.164   5.742   6.923 -1.6007 -0.0169 -0.3807
   90CHL1    C5 9074   4.132   5.761   7.144  0.2524 -0.8500  0.0352
   90CHL1    C6 9075   4.156   5.890   7.155 -0.4827 -0.1464  0.7925
   90CHL1    H6 9076   4.189   5.946   7.066  0.3319 -1.6058  0.1376
   90CHL1    C7 9077   4.159   5.974   7.278 -0.2680  0.5020 -0.1517
   90CHL1   H7A 9078   4.251   6.036   7.283  0.9016 -1.1725 -0.1479
   90CHL1   H7B 9079   4.067   6.037   7.273 -1.5671 -1.3877 -2.1287
   90CHL1    C8 9080   4.141   5.888   7.405 -0.2763  0.0997 -0.5434
   90CHL1    H8 9081   4.241   5.848   7.432 -0.4061 -0.0464 -0.2852
   90CHL1   C14 9082   4.094   5.978   7.522 -0.1836 -0.0463  0.9603
   90CHL1   H14 9083   3.994   6.005   7.482  0.7489  0.6744 -1.0047
   90CHL1   C15 9084   4.158   6.116   7.546  0.3508 -0.0488 -0.1370
   90CHL1  H15A 9085   4.268   6.103   7.549  0.3761  0.1737  2.5741
   90CHL1  H15B 9086   4.128   6.195   7.474 -1.1840 -0.4388  0.0316
   90CHL1   C16 9087   4.100   6.146   7.686 -0.3579 -0.0043 -0.6601
   90CHL1  H16A 9088   4.175   6.194   7.752  0.7313  1.3956 -2.7852
   90CHL1  H16B 9089   4.029   6.231   7.690  0.8162  0.9757  1.3473
   90CHL1   C17 9090   4.032   6.022   7.734 -0.1805  0.2896  0.3689
   90CHL1   H17 9091   3.926   6.039   7.706  0.6074  2.3645 -1.7480
   90CHL1   C13 9092   4.084   5.904   7.651  0.4140  0.0631 -1.0499
   90CHL1   C18 9093   4.219   5.840   7.699 -0.6197  0.3473  0.7184
   90CHL1  H18A 9094   4.258   5.774   7.620 -1.4482  2.7271 -1.8515
   90CHL1  H18B 9095   4.301   5.912   7.719  0.1044  1.4462 -4.6945
   90CHL1  H18C 9096   4.197   5.776   7.787 -0.3266 -0.0448  0.5039
   90CHL1   C12 9097   3.980   5.794   7.636  0.7177 -0.2000  0.4014
   90CHL1  H12A 9098   3.974   5.731   7.727  0.5029  1.3410  1.4808
   90CHL1  H12B 9099   3.881   5.842   7.624 -0.6331 -2.4861  1.7226
   90CHL1   C11 9100   4.016   5.702   7.516  0.5433 -0.3824  0.0804
   90CHL1  H11A 9101   4.109   5.648   7.543 -0.9608 -2.4815  1.3978
   90CHL1  H11B 9102   3.941   5.621   7.530  0.1816  0.3785  3.4651
   90CHL1    C9 9103   4.037   5.778   7.383 -0.6167  0.7411  0.4707
   90CHL1    H9 9104   3.941   5.827   7.358 -0.9503  0.7088  1.6625
   90CHL1   C10 9105   4.076   5.687   7.260 -0.1964 -0.2096  0.0352
   90CHL1   C19 9106   4.187   5.592   7.313  0.7811 -0.0023 -0.4947
   90CHL1  H19A 9107   4.243   5.529   7.241 -0.2314  0.7168 -1.9580
   90CHL1  H19B 9108   4.261   5.641   7.380  0.0255  1.9268 -0.9824
   90CHL1  H19C 9109   4.147   5.518   7.385  2.4148  0.7170  1.2683
   90CHL1    C1 9110   3.949   5.607   7.229 -0.1340 -0.3177  0.1308
   90CHL1   H1A 9111   3.916   5.535   7.308  1.1633 -0.3068  0.6980
   90CHL1   H1B 9112   3.872   5.684   7.206 -0.7095 -1.1252 -0.7418
   90CHL1    C2 9113   3.969   5.523   7.099 -0.0156 -0.1714  0.6814
   90CHL1   H2A 9114   3.875   5.467   7.077 -0.1844 -0.1174  1.2401
   90CHL1   H2B 9115   4.054   5.453   7.114  0.0503 -0.1125  0.5840
   90CHL1   C20 9116   4.048   6.014   7.888  0.2162 -0.1328 -0.2864
   90CHL1   H20 9117   4.155   6.025   7.912  0.2480  3.0508 -1.4331
   90CHL1   C21 9118   3.985   5.877   7.950  0.2785 -0.1870  0.4362
   90CHL1  H21A 9119   4.050   5.797   7.907  1.3452  1.6914 -1.7097
   90CHL1  H21B 9120   3.881   5.853   7.920 -0.4362  1.5704  1.3629
   90CHL1  H21C 9121   3.993   5.874   8.060 -0.0029 -0.0557  0.4609
   90CHL1   C22 9122   3.983   6.135   7.965  0.1571 -0.6033  0.8463
   90CHL1  H22A 9123   4.012   6.234   7.923 -0.8423  0.5274  2.6638
   90CHL1  H22B 9124   3.873   6.131   7.954 -0.1606  1.3015  2.7350
   90CHL1   C23 9125   3.994   6.144   8.124  1.1059 -0.2558  0.6297
   90CHL1  H23A 9126   3.942   6.059   8.173  0.1628 -0.4146 -0.6150
   90CHL1  H23B 9127   4.103   6.137   8.147  1.0838  0.7917  1.1213
   90CHL1   C24 9128   3.944   6.275   8.174 -0.2462  0.1424  0.2829
   90CHL1  H24A 9129   4.016   6.359   8.159 -0.2537  0.1516  0.2963
   90CHL1  H24B 9130   3.863   6.300   8.103  2.1045  2.1861 -1.9000
   90CHL1   C25 9131   3.891   6.277   8.317 -0.2500 -0.6331 -0.2811
   90CHL1   H25 9132   3.837   6.183   8.345  2.9314 -2.1377  1.3553
   90CHL1   C26 9133   3.999   6.293   8.424  0.4783  0.1823 -0.2899
   90CHL1  H26A 9134   4.064   6.203   8.421  0.4031  0.1530 -2.2476
   90CHL1  H26B 9135   4.068   6.378   8.405  0.9080  0.1739  1.0833
   90CHL1  H26C 9136   3.961   6.299   8.529  0.4658  0.7790 -0.3213
   90CHL1   C27 9137   3.796   6.397   8.319 -0.2788  0.4720 -0.2702
   90CHL1  H27A 9138   3.692   6.373   8.290 -0.6704  1.1601  0.5041
   90CHL1  H27B 9139   3.780   6.434   8.423 -1.1134  1.0787 -0.6049
   90CHL1  H27C 9140   3.835   6.485   8.263  1.0642 -0.6315 -1.1189
   91CHL1    C3 9141   1.090   4.589   7.271 -0.3116  0.1463  0.3036
   91CHL1    H3 9142   1.042   4.500   7.317 -2.5515  0.9000 -0.4415
   91CHL1    O3 9143   1.099   4.580   7.126  0.1773 -0.0448 -0.0068
   91CHL1   H3' 9144   1.186   4.616   7.104  1.1661 -1.1638  1.7647
   91CHL1    C4 9145   1.002   4.707   7.308  0.3025 -0.2757 -0.3892
   91CHL1   H4A 9146   1.053   4.796   7.266  1.9326 -0.6604  0.6702
   91CHL1   H4B 9147   0.900   4.697   7.264 -0.3491  0.8471  0.7731
   91CHL1    C5 9148   0.992   4.725   7.455 -0.4346 -0.5762  0.1540
   91CHL1    C6 9149   0.880   4.708   7.523 -0.0960 -0.0433 -0.5806
   91CHL1    H6 9150   0.789   4.682   7.467  0.3830  2.6977 -2.8301
   91CHL1    C7 9151   0.857   4.734   7.669 -0.0336 -0.4059 -0.6448
   91CHL1   H7A 9152   0.763   4.792   7.665  0.0439 -0.2857 -0.7201
   91CHL1   H7B 9153   0.840   4.639   7.724  0.7993 -0.9100 -1.2204
   91CHL1    C8 9154   0.978   4.814   7.737  0.2246  0.2849  0.3176
   91CHL1    H8 9155   0.967   4.920   7.708  1.0182 -0.0399 -1.3349
   91CHL1   C14 9156   0.966   4.802   7.886  0.1108 -0.3193  0.2641
   91CHL1   H14 9157   0.979   4.694   7.907 -0.7014 -0.8416 -1.6821
   91CHL1   C15 9158   0.833   4.843   7.965  0.2742 -0.7846 -0.3524
   91CHL1  H15A 9159   0.780   4.929   7.919 -0.6984 -1.4903 -0.5848
   91CHL1  H15B 9160   0.763   4.757   7.963  0.0974 -0.6348 -1.9072
   91CHL1   C16 9161   0.883   4.885   8.106 -0.2297 -1.2597  0.0102
   91CHL1  H16A 9162   0.878   4.995   8.121  0.2216 -1.2612  0.1814
   91CHL1  H16B 9163   0.817   4.848   8.188 -0.5437  0.0370  0.3665
   91CHL1   C17 9164   1.032   4.847   8.109  0.6431 -0.9642 -0.5680
   91CHL1   H17 9165   1.029   4.737   8.128 -0.0886 -0.8901 -0.2129
   91CHL1   C13 9166   1.086   4.862   7.965  0.5105 -0.6609  0.0012
   91CHL1   C18 9167   1.090   5.016   7.937 -0.2104  0.8342  0.2946
   91CHL1  H18A 9168   0.993   5.070   7.936 -0.8446 -0.2558 -0.5546
   91CHL1  H18B 9169   1.151   5.075   8.008 -1.1155  1.1455  0.8249
   91CHL1  H18C 9170   1.113   5.029   7.829 -3.0736 -1.1054 -0.6717
   91CHL1   C12 9171   1.212   4.789   7.921 -0.2646 -0.1607 -0.0073
   91CHL1  H12A 9172   1.299   4.836   7.972  0.3884 -0.2624 -1.0019
   91CHL1  H12B 9173   1.214   4.680   7.941 -0.5052 -0.1180  0.2548
   91CHL1   C11 9174   1.236   4.790   7.771  0.5197  0.1701  0.0525
   91CHL1  H11A 9175   1.283   4.890   7.753  2.4431 -0.4178  1.4204
   91CHL1  H11B 9176   1.311   4.711   7.750  0.4521  0.7401 -2.8201
   91CHL1    C9 9177   1.108   4.748   7.687  0.2574 -0.2565  0.3924
   91CHL1    H9 9178   1.090   4.642   7.716  1.7898 -0.3432  1.1457
   91CHL1   C10 9179   1.129   4.755   7.529 -0.3632 -0.5345  0.0449
   91CHL1   C19 9180   1.171   4.899   7.488 -0.8003  0.3400 -0.6381
   91CHL1  H19A 9181   1.192   4.915   7.380 -1.8754 -0.0416 -0.9237
   91CHL1  H19B 9182   1.094   4.969   7.528 -1.3848  0.3439 -1.7312
   91CHL1  H19C 9183   1.261   4.925   7.547 -2.5521 -0.1338  2.4731
   91CHL1    C1 9184   1.242   4.652   7.478  1.4603  0.2962  0.1681
   91CHL1   H1A 9185   1.341   4.700   7.490  0.7341  2.6202 -2.1410
   91CHL1   H1B 9186   1.228   4.559   7.537 -1.3256  0.5808  0.1291
   91CHL1    C2 9187   1.234   4.622   7.323  0.4828 -0.3251  0.0752
   91CHL1   H2A 9188   1.302   4.539   7.293  0.3030 -0.7773  0.8759
   91CHL1   H2B 9189   1.269   4.710   7.266  0.2525 -0.6379 -0.5548
   91CHL1   C20 9190   1.112   4.904   8.228 -0.3784  0.3260 -0.1393
   91CHL1   H20 9191   1.146   5.005   8.197  0.6486  0.0207 -0.0374
   91CHL1   C21 9192   1.240   4.816   8.251  0.0256  0.6967 -0.7502
   91CHL1  H21A 9193   1.205   4.711   8.265 -1.2154  1.3758  1.7976
   91CHL1  H21B 9194   1.293   4.856   8.340 -1.0994 -0.5483  0.5282
   91CHL1  H21C 9195   1.314   4.820   8.168  0.2804 -4.2621 -1.0819
   91CHL1   C22 9196   1.033   4.918   8.358  1.3434  0.6699  0.3833
   91CHL1  H22A 9197   0.940   4.977   8.346  0.6498  0.3824  3.5017
   91CHL1  H22B 9198   1.004   4.811   8.361  1.9850  0.4485 -0.9534
   91CHL1   C23 9199   1.098   4.966   8.487  0.4701  0.5601  0.2711
   91CHL1  H23A 9200   1.179   4.896   8.515 -0.7011 -0.9821 -0.0635
   91CHL1  H23B 9201   1.142   5.066   8.466  0.0828  0.2992 -2.0730
   91CHL1   C24 9202   1.004   4.958   8.601  0.1214  0.0371  0.2859
   91CHL1  H24A 9203   0.922   5.027   8.573  1.7694  1.5914 -0.8855
   91CHL1  H24B 9204   0.970   4.852   8.597  1.0268 -0.2288 -0.9548
   91CHL1   C25 9205   1.058   5.014   8.736 -0.4324  0.0437  0.0311
   91CHL1   H25 9206   1.162   4.981   8.756 -0.3257  0.3768  0.0411
   91CHL1   C26 9207   1.065   5.174   8.743 -0.1685 -0.1767  0.1155
   91CHL1  H26A 9208   1.109   5.211   8.839  0.0535 -0.1232 -0.0063
   91CHL1  H26B 9209   1.128   5.203   8.657 -1.3853  0.2666 -0.6499
   91CHL1  H26C 9210   0.964   5.221   8.738  0.3256  0.8430 -0.8468
   91CHL1   C27 9211   0.974   4.966   8.851 -0.1724 -0.8396 -0.0472
   91CHL1  H27A 9212   0.999   5.012   8.948 -0.9248 -0.3416 -0.0848
   91CHL1  H27B 9213   0.867   4.992   8.841 -0.6930 -2.7445  0.2088
   91CHL1  H27C 9214   0.981   4.857   8.872 -0.5143 -0.1947  4.3355
   92CHL1    C3 9215   2.486   5.255   6.977  0.0014 -0.1765  0.3173
   92CHL1    H3 9216   2.382   5.292   6.991  0.0064 -0.3901  0.9453
   92CHL1    O3 9217   2.502   5.235   6.833  0.4548  0.3609 -0.8534
   92CHL1   H3' 9218   2.474   5.143   6.825  0.0681  0.5529 -1.8197
   92CHL1    C4 9219   2.581   5.367   7.014  0.0150  0.0614 -0.4481
   92CHL1   H4A 9220   2.689   5.341   7.001  0.8921  2.0735  2.0123
   92CHL1   H4B 9221   2.561   5.450   6.943 -1.6622  0.3589  0.3290
   92CHL1    C5 9222   2.566   5.409   7.162 -0.4175  0.9280 -0.9087
   92CHL1    C6 9223   2.555   5.536   7.199  0.0869  0.2980  0.0964
   92CHL1    H6 9224   2.553   5.616   7.124  0.3452 -0.3983 -0.6669
   92CHL1    C7 9225   2.550   5.581   7.342 -0.0716  0.3733 -0.1976
   92CHL1   H7A 9226   2.607   5.675   7.357  0.5123 -0.2279  1.6492
   92CHL1   H7B 9227   2.447   5.616   7.362 -0.4058 -1.2083  1.0757
   92CHL1    C8 9228   2.587   5.478   7.450  0.1807  0.5900 -0.3102
   92CHL1    H8 9229   2.697   5.472   7.462  0.2374  2.1212  0.1472
   92CHL1   C14 9230   2.526   5.517   7.590 -0.1165  0.4270  0.8146
   92CHL1   H14 9231   2.419   5.507   7.561  0.6033  0.4989 -2.1808
   92CHL1   C15 9232   2.544   5.656   7.646 -0.1707  0.1904  0.4698
   92CHL1  H15A 9233   2.654   5.671   7.654 -0.3181  1.2003  0.7592
   92CHL1  H15B 9234   2.498   5.734   7.582  1.2910 -0.8598 -2.0453
   92CHL1   C16 9235   2.485   5.646   7.781  0.1778 -1.1106 -0.6153
   92CHL1  H16A 9236   2.540   5.709   7.854 -0.9774 -0.0772 -0.5971
   92CHL1  H16B 9237   2.379   5.677   7.771 -0.1835 -2.5290 -1.3629
   92CHL1   C17 9238   2.479   5.497   7.823  0.3591 -0.3924  0.1816
   92CHL1   H17 9239   2.374   5.462   7.819  0.6714 -1.5537  1.4895
   92CHL1   C13 9240   2.547   5.415   7.699  0.0496 -1.0873  0.0491
   92CHL1   C18 9241   2.698   5.404   7.720  0.2751  0.6441  0.0961
   92CHL1  H18A 9242   2.769   5.374   7.639 -1.3827 -2.1141 -0.4567
   92CHL1  H18B 9243   2.742   5.504   7.739 -0.2542  1.5215 -2.7623
   92CHL1  H18C 9244   2.720   5.335   7.804  1.5300  0.7737 -0.0927
   92CHL1   C12 9245   2.482   5.284   7.652 -0.1235 -0.4578  0.0126
   92CHL1  H12A 9246   2.515   5.206   7.723  0.0709 -1.0415 -0.7017
   92CHL1  H12B 9247   2.372   5.299   7.646  0.0762  0.8982 -0.6154
   92CHL1   C11 9248   2.551   5.239   7.522  0.5817 -0.3683  0.8174
   92CHL1  H11A 9249   2.657   5.214   7.541  1.2532  0.9849 -0.9174
   92CHL1  H11B 9250   2.496   5.146   7.495  1.4174 -0.9266  1.0118
   92CHL1    C9 9251   2.538   5.338   7.407  0.2846  0.9340 -0.6770
   92CHL1    H9 9252   2.428   5.352   7.398  0.3294  2.3028  0.6003
   92CHL1   C10 9253   2.575   5.290   7.265 -0.3124  0.3478  0.5904
   92CHL1   C19 9254   2.721   5.243   7.281 -0.5118 -0.4166  0.5333
   92CHL1  H19A 9255   2.783   5.328   7.316  0.4022 -0.8849  0.1036
   92CHL1  H19B 9256   2.739   5.163   7.356  3.3024 -0.1837  0.0409
   92CHL1  H19C 9257   2.762   5.208   7.184 -2.1323 -0.5052 -0.1530
   92CHL1    C1 9258   2.488   5.172   7.217 -0.1151  0.1297  0.5012
   92CHL1   H1A 9259   2.494   5.090   7.292  0.0931 -0.6910 -0.3866
   92CHL1   H1B 9260   2.380   5.196   7.220 -0.7697 -2.1577 -1.3816
   92CHL1    C2 9261   2.520   5.136   7.066  0.2503 -0.0646  0.3363
   92CHL1   H2A 9262   2.462   5.047   7.033 -0.5072  1.0452 -1.5193
   92CHL1   H2B 9263   2.625   5.106   7.049  0.6628  1.3953  0.1684
   92CHL1   C20 9264   2.512   5.470   7.976  0.0153  0.0718 -0.1380
   92CHL1   H20 9265   2.620   5.496   7.988  0.6023 -1.4448 -1.7492
   92CHL1   C21 9266   2.500   5.322   8.007  0.3110 -0.1881 -0.3755
   92CHL1  H21A 9267   2.393   5.293   8.001  1.2545 -4.2422 -0.5556
   92CHL1  H21B 9268   2.525   5.295   8.112 -2.6222  0.7688  0.6591
   92CHL1  H21C 9269   2.567   5.254   7.951 -1.7609 -0.7843 -2.2516
   92CHL1   C22 9270   2.440   5.563   8.078  0.6991 -0.4740 -0.1045
   92CHL1  H22A 9271   2.434   5.673   8.063  1.7609 -0.1339  1.7048
   92CHL1  H22B 9272   2.339   5.519   8.087  1.0070 -1.1786 -0.0332
   92CHL1   C23 9273   2.492   5.547   8.228  0.1959 -0.2713 -0.2330
   92CHL1  H23A 9274   2.430   5.618   8.286  1.0722  0.8576 -0.6226
   92CHL1  H23B 9275   2.482   5.440   8.256  3.2260 -0.6368 -0.1907
   92CHL1   C24 9276   2.639   5.591   8.256 -0.2513  0.6308  0.1320
   92CHL1  H24A 9277   2.704   5.529   8.190  2.2312  2.0788  1.0541
   92CHL1  H24B 9278   2.641   5.693   8.211  0.2393  0.0235 -1.2677
   92CHL1   C25 9279   2.684   5.578   8.405 -0.8046 -0.6307 -0.2105
   92CHL1   H25 9280   2.778   5.637   8.409 -0.4927 -0.9893 -1.5405
   92CHL1   C26 9281   2.575   5.629   8.503 -0.6946 -0.3098  0.3920
   92CHL1  H26A 9282   2.545   5.733   8.476  1.4469  0.1227 -0.5462
   92CHL1  H26B 9283   2.493   5.555   8.494 -1.3630  0.4033  0.4755
   92CHL1  H26C 9284   2.607   5.615   8.609 -0.0075 -1.1144  0.0906
   92CHL1   C27 9285   2.743   5.432   8.445  0.0376  0.2058 -0.4771
   92CHL1  H27A 9286   2.794   5.436   8.544  1.8226  1.7095 -1.3874
   92CHL1  H27B 9287   2.660   5.361   8.463  0.4710 -0.0618  0.5283
   92CHL1  H27C 9288   2.803   5.376   8.370 -0.2911 -2.7264  1.3099
   93CHL1    C3 9289   3.817   3.035   7.103 -0.2971  0.1257 -0.0463
   93CHL1    H3 9290   3.917   3.080   7.118 -0.5589  1.0370 -0.9056
   93CHL1    O3 9291   3.800   2.989   6.973  0.5615  0.7354 -0.5562
   93CHL1   H3' 9292   3.849   2.906   6.970  0.6758  0.7045  1.2173
   93CHL1    C4 9293   3.788   2.924   7.206  0.4954 -0.0271  0.0358
   93CHL1   H4A 9294   3.697   2.869   7.175  1.5533 -0.6629 -2.2203
   93CHL1   H4B 9295   3.871   2.849   7.210 -1.7147 -2.7314 -1.1587
   93CHL1    C5 9296   3.754   2.971   7.349  0.1166  0.0870 -0.2289
   93CHL1    C6 9297   3.807   2.908   7.454  0.2893 -0.4193  0.6458
   93CHL1    H6 9298   3.882   2.829   7.438  0.9160  0.8186 -3.7606
   93CHL1    C7 9299   3.794   2.947   7.602  0.4343 -0.3692 -0.4619
   93CHL1   H7A 9300   3.774   2.862   7.671 -3.0982  0.0847 -0.7144
   93CHL1   H7B 9301   3.886   3.002   7.630  0.8021 -0.8617 -0.7009
   93CHL1    C8 9302   3.674   3.040   7.621 -0.4855  0.3028 -0.6972
   93CHL1    H8 9303   3.588   2.971   7.625 -0.0555 -0.1736  2.1250
   93CHL1   C14 9304   3.680   3.106   7.756 -0.4947  0.6965 -0.2701
   93CHL1   H14 9305   3.773   3.166   7.759 -0.8884  1.3705 -1.1600
   93CHL1   C15 9306   3.703   3.015   7.879  0.2693 -0.3346 -0.4640
   93CHL1  H15A 9307   3.637   2.926   7.875  0.7488 -0.8421  1.6901
   93CHL1  H15B 9308   3.806   2.972   7.880  0.6849  0.5895 -1.4052
   93CHL1   C16 9309   3.643   3.095   8.000  0.0054  0.4484  0.3465
   93CHL1  H16A 9310   3.584   3.022   8.060 -1.9485  1.2965 -0.4493
   93CHL1  H16B 9311   3.725   3.124   8.068  0.5114  1.9466 -0.8540
   93CHL1   C17 9312   3.584   3.225   7.946 -0.2323 -0.3590 -1.0532
   93CHL1   H17 9313   3.662   3.304   7.951 -0.2792 -0.3488 -0.3865
   93CHL1   C13 9314   3.566   3.204   7.794 -0.2336  0.4581 -0.3254
   93CHL1   C18 9315   3.438   3.122   7.785 -0.0461 -0.1603 -0.4371
   93CHL1  H18A 9316   3.415   3.088   7.682 -0.8661  2.0543 -1.0289
   93CHL1  H18B 9317   3.445   3.035   7.854  1.4015  2.1705  2.6530
   93CHL1  H18C 9318   3.346   3.174   7.820 -0.3184 -1.8358  1.5826
   93CHL1   C12 9319   3.572   3.320   7.693  0.3578  0.4632 -0.3455
   93CHL1  H12A 9320   3.484   3.387   7.701 -2.1775 -2.3046 -2.3898
   93CHL1  H12B 9321   3.666   3.370   7.725 -1.0067  1.4396  2.4788
   93CHL1   C11 9322   3.593   3.274   7.547  0.2583 -0.7226  0.0079
   93CHL1  H11A 9323   3.491   3.242   7.517  0.8052 -1.2417 -1.3880
   93CHL1  H11B 9324   3.637   3.349   7.478  1.2530 -1.5908 -0.3164
   93CHL1    C9 9325   3.682   3.149   7.517 -0.6592  0.8719  0.1033
   93CHL1    H9 9326   3.783   3.195   7.522 -0.8694  1.2972  0.4750
   93CHL1   C10 9327   3.673   3.101   7.365 -0.5904  0.1350 -0.6303
   93CHL1   C19 9328   3.529   3.060   7.330  0.3041 -0.4209  0.4279
   93CHL1  H19A 9329   3.491   2.996   7.413  0.9314  0.8362  1.7332
   93CHL1  H19B 9330   3.460   3.147   7.320 -0.1402 -0.7291  0.7559
   93CHL1  H19C 9331   3.530   3.012   7.230  1.8603 -0.0458  0.2468
   93CHL1    C1 9332   3.722   3.205   7.267  0.5700 -0.9013  0.6069
   93CHL1   H1A 9333   3.653   3.291   7.276  1.5537 -0.0082 -0.1068
   93CHL1   H1B 9334   3.818   3.247   7.303  0.4648  1.3967 -1.5133
   93CHL1    C2 9335   3.730   3.163   7.125  0.4607 -0.2074  0.2653
   93CHL1   H2A 9336   3.769   3.238   7.054 -2.5216  0.2852 -0.9989
   93CHL1   H2B 9337   3.624   3.136   7.103  0.7033  0.5212 -1.9977
   93CHL1   C20 9338   3.473   3.291   8.034 -0.9572  0.5054  0.2820
   93CHL1   H20 9339   3.376   3.242   8.014 -0.6074  0.7411 -2.3401
   93CHL1   C21 9340   3.446   3.437   7.978 -0.3715 -0.0897  0.0005
   93CHL1  H21A 9341   3.374   3.437   7.894 -1.3006  0.3710  0.7739
   93CHL1  H21B 9342   3.537   3.493   7.947 -0.9304  0.0030 -1.5286
   93CHL1  H21C 9343   3.393   3.492   8.058  0.7942  0.3173  0.5175
   93CHL1   C22 9344   3.502   3.291   8.186  0.5760 -0.3054 -0.0841
   93CHL1  H22A 9345   3.535   3.187   8.206  0.4073 -0.1589  1.0274
   93CHL1  H22B 9346   3.591   3.356   8.205  1.2422 -0.9767 -0.8643
   93CHL1   C23 9347   3.378   3.322   8.266 -0.1834 -0.6335 -0.3876
   93CHL1  H23A 9348   3.348   3.429   8.264 -0.7449 -0.7471  0.7529
   93CHL1  H23B 9349   3.292   3.279   8.210  0.1099 -1.3756 -0.2822
   93CHL1   C24 9350   3.397   3.292   8.421 -0.2447 -0.0927  0.3207
   93CHL1  H24A 9351   3.405   3.184   8.443  2.8491 -0.3814 -1.6250
   93CHL1  H24B 9352   3.491   3.348   8.438 -0.6684  2.0112 -3.1756
   93CHL1   C25 9353   3.288   3.358   8.520 -0.4715  0.3451  0.6669
   93CHL1   H25 9354   3.306   3.468   8.521  1.5529  0.0911  3.3295
   93CHL1   C26 9355   3.145   3.323   8.482 -0.0150  0.4112 -0.2955
   93CHL1  H26A 9356   3.065   3.381   8.533  0.8963  0.2798  1.3862
   93CHL1  H26B 9357   3.134   3.341   8.373 -0.1449  3.2538  0.1190
   93CHL1  H26C 9358   3.123   3.215   8.499 -3.0117  0.8004 -1.1314
   93CHL1   C27 9359   3.316   3.315   8.662  0.2627 -0.1566 -0.7692
   93CHL1  H27A 9360   3.324   3.205   8.666 -0.4483 -0.1822  2.2070
   93CHL1  H27B 9361   3.401   3.354   8.722  0.4018 -2.0870  0.3500
   93CHL1  H27C 9362   3.227   3.331   8.727  0.6727 -0.2121 -0.1846
   94CHL1    C3 9363   5.668   5.822   6.765  0.1265 -0.0651 -0.3990
   94CHL1    H3 9364   5.583   5.751   6.774 -0.6435  0.7048 -1.2837
   94CHL1    O3 9365   5.698   5.856   6.627 -0.1141  0.2278 -0.9981
   94CHL1   H3' 9366   5.756   5.930   6.642  1.0807 -1.0765  1.5673
   94CHL1    C4 9367   5.614   5.948   6.831 -0.3767 -0.1850  0.3048
   94CHL1   H4A 9368   5.683   6.027   6.794 -0.8787  1.6308  3.0023
   94CHL1   H4B 9369   5.512   5.969   6.791  0.3009  0.4492 -1.1915
   94CHL1    C5 9370   5.610   5.952   6.981  0.7882  0.2051  0.5851
   94CHL1    C6 9371   5.497   5.989   7.051 -0.0616  0.3099 -0.0880
   94CHL1    H6 9372   5.410   6.031   6.999 -2.1565 -2.5924  0.8621
   94CHL1    C7 9373   5.486   5.995   7.203 -0.1217 -0.6565  0.2783
   94CHL1   H7A 9374   5.452   6.096   7.236 -1.3026 -1.1562  0.6490
   94CHL1   H7B 9375   5.427   5.907   7.236  1.6571 -0.8696  3.2808
   94CHL1    C8 9376   5.623   5.978   7.263  0.0023 -0.0317  0.0693
   94CHL1    H8 9377   5.690   6.066   7.266  0.5466 -0.4361 -0.0548
   94CHL1   C14 9378   5.591   5.938   7.408 -0.3396 -0.3424  0.4713
   94CHL1   H14 9379   5.519   5.854   7.403  0.3905 -1.0069  0.8533
   94CHL1   C15 9380   5.523   6.044   7.498  0.2504 -0.3156 -0.1623
   94CHL1  H15A 9381   5.555   6.150   7.494  0.9008 -0.3962  1.9104
   94CHL1  H15B 9382   5.414   6.038   7.478  0.3699  0.1559 -1.0098
   94CHL1   C16 9383   5.560   5.994   7.636  0.2951 -0.4464 -1.1497
   94CHL1  H16A 9384   5.600   6.075   7.700 -0.3992  1.0618 -2.5397
   94CHL1  H16B 9385   5.469   5.951   7.683  0.7938 -1.2358 -0.9077
   94CHL1   C17 9386   5.653   5.873   7.631 -0.1469  0.2164  0.2143
   94CHL1   H17 9387   5.586   5.786   7.624 -0.7511  0.5294  1.7707
   94CHL1   C13 9388   5.709   5.888   7.490 -0.1871 -0.6468 -0.1549
   94CHL1   C18 9389   5.809   6.008   7.502 -0.8952 -0.4006 -0.1610
   94CHL1  H18A 9390   5.768   6.103   7.541 -1.3213 -0.3253 -0.7776
   94CHL1  H18B 9391   5.886   5.973   7.574 -0.8784  0.4390  0.2300
   94CHL1  H18C 9392   5.870   6.039   7.414 -0.5033  1.3473  0.6896
   94CHL1   C12 9393   5.778   5.773   7.425 -0.0718  0.6479 -0.2498
   94CHL1  H12A 9394   5.878   5.749   7.467 -0.1047  1.0187  0.0377
   94CHL1  H12B 9395   5.706   5.689   7.435 -1.6052  1.9386 -0.0167
   94CHL1   C11 9396   5.807   5.793   7.273  0.3013  0.8115 -0.4191
   94CHL1  H11A 9397   5.891   5.861   7.246 -1.7542  2.2291 -3.9149
   94CHL1  H11B 9398   5.833   5.691   7.236 -0.7936  0.3533  0.0297
   94CHL1    C9 9399   5.689   5.854   7.189 -0.6380 -0.1655  0.5177
   94CHL1    H9 9400   5.612   5.774   7.183 -1.5738  0.7682 -0.3417
   94CHL1   C10 9401   5.732   5.884   7.044  0.2661 -0.4253 -0.3526
   94CHL1   C19 9402   5.847   5.988   7.038 -0.3875 -0.0624 -0.4572
   94CHL1  H19A 9403   5.875   6.021   6.936  0.3615 -3.1777 -1.3448
   94CHL1  H19B 9404   5.822   6.078   7.099 -0.0550  0.6225 -1.3149
   94CHL1  H19C 9405   5.938   5.939   7.078 -1.1559 -1.3888 -0.2717
   94CHL1    C1 9406   5.774   5.749   6.977 -0.7128 -0.3127 -0.6322
   94CHL1   H1A 9407   5.874   5.727   7.020  0.3737  1.2282 -2.2718
   94CHL1   H1B 9408   5.709   5.663   7.005 -1.2870 -0.0917 -1.2531
   94CHL1    C2 9409   5.791   5.762   6.825  0.7424 -0.2015 -0.6712
   94CHL1   H2A 9410   5.811   5.659   6.788  1.3618 -0.0443 -0.7851
   94CHL1   H2B 9411   5.880   5.825   6.804  1.2879 -1.1109 -1.1887
   94CHL1   C20 9412   5.742   5.848   7.757  0.1422  0.3568  0.6626
   94CHL1   H20 9413   5.824   5.922   7.750 -0.0198  0.4357 -0.6537
   94CHL1   C21 9414   5.796   5.704   7.755  0.2405 -0.4948  0.0011
   94CHL1  H21A 9415   5.880   5.693   7.683  1.6457 -0.3955  1.5816
   94CHL1  H21B 9416   5.718   5.625   7.741  0.3900 -0.5282 -0.6612
   94CHL1  H21C 9417   5.851   5.691   7.850 -0.3252  0.5898  0.4954
   94CHL1   C22 9418   5.664   5.869   7.893 -0.0191 -0.1695 -0.3824
   94CHL1  H22A 9419   5.743   5.894   7.967  1.5301 -2.4504 -1.1507
   94CHL1  H22B 9420   5.608   5.963   7.877  0.1374  0.0732  0.4837
   94CHL1   C23 9421   5.570   5.758   7.938 -0.1947 -0.1302 -0.3889
   94CHL1  H23A 9422   5.504   5.729   7.853 -0.5697 -1.7026  0.3981
   94CHL1  H23B 9423   5.635   5.673   7.970 -0.4286 -0.7381 -1.4675
   94CHL1   C24 9424   5.481   5.804   8.053  0.7612 -0.4969 -0.0241
   94CHL1  H24A 9425   5.546   5.834   8.139 -0.8799 -0.4148  1.2290
   94CHL1  H24B 9426   5.404   5.879   8.027 -1.5190 -2.7347 -0.0510
   94CHL1   C25 9427   5.391   5.691   8.108 -0.0659  0.2293 -0.1700
   94CHL1   H25 9428   5.340   5.651   8.018  0.0537  0.5814 -0.3938
   94CHL1   C26 9429   5.464   5.578   8.177 -1.0005 -0.2789 -0.1040
   94CHL1  H26A 9430   5.386   5.524   8.236  0.1637  0.3968  2.1496
   94CHL1  H26B 9431   5.511   5.506   8.107  1.7346  0.8068  0.4878
   94CHL1  H26C 9432   5.542   5.609   8.250 -1.1653 -0.7835  0.2954
   94CHL1   C27 9433   5.272   5.746   8.188 -0.4177  0.5500 -0.6210
   94CHL1  H27A 9434   5.227   5.833   8.136 -0.8110  0.3646 -0.5948
   94CHL1  H27B 9435   5.195   5.666   8.193  0.5971 -0.3977  3.2180
   94CHL1  H27C 9436   5.291   5.753   8.297  1.4031  2.3511 -0.9832
   95CHL1    C3 9437   3.867   4.142   6.692 -0.5088 -0.5113  0.3906
   95CHL1    H3 9438   3.854   4.037   6.726 -1.7504 -0.2250  0.8417
   95CHL1    O3 9439   3.879   4.143   6.548 -0.1560  0.9963 -0.8237
   95CHL1   H3' 9440   3.881   4.236   6.524  0.9138  1.7391  1.7565
   95CHL1    C4 9441   3.740   4.222   6.739 -0.1210 -0.2332  0.0192
   95CHL1   H4A 9442   3.745   4.325   6.697 -2.4388 -1.0702 -2.5730
   95CHL1   H4B 9443   3.645   4.186   6.696 -0.4746  2.1022 -1.3080
   95CHL1    C5 9444   3.726   4.228   6.890 -0.7133  0.1298  0.8774
   95CHL1    C6 9445   3.616   4.185   6.948 -0.8672  0.3015  0.0053
   95CHL1    H6 9446   3.540   4.167   6.871  0.1563  1.2026 -1.2494
   95CHL1    C7 9447   3.585   4.177   7.092 -0.3730 -0.4905 -0.4011
   95CHL1   H7A 9448   3.482   4.208   7.120 -1.0762 -2.6745 -0.3448
   95CHL1   H7B 9449   3.596   4.069   7.114 -3.0533 -0.1702  3.5131
   95CHL1    C8 9450   3.682   4.264   7.171 -0.3380  0.5933 -0.0608
   95CHL1    H8 9451   3.648   4.368   7.154 -1.8251 -0.1559 -2.0566
   95CHL1   C14 9452   3.676   4.221   7.323 -0.0188 -0.5778  0.5859
   95CHL1   H14 9453   3.715   4.117   7.319 -0.5469 -0.7431 -0.4063
   95CHL1   C15 9454   3.532   4.221   7.392  0.3730 -0.2816  0.2574
   95CHL1  H15A 9455   3.483   4.321   7.383 -2.1879 -1.4440  0.4507
   95CHL1  H15B 9456   3.462   4.155   7.337  1.5376 -1.1158 -0.2869
   95CHL1   C16 9457   3.567   4.205   7.541  0.5430 -0.6635 -0.8047
   95CHL1  H16A 9458   3.516   4.283   7.601  0.8759 -1.1901  0.1893
   95CHL1  H16B 9459   3.536   4.107   7.583  1.1215 -0.6338 -0.2915
   95CHL1   C17 9460   3.720   4.221   7.553 -0.5788  0.6747 -0.2474
   95CHL1   H17 9461   3.769   4.121   7.553  0.8861  1.2740  2.7594
   95CHL1   C13 9462   3.770   4.289   7.420  0.2505 -0.3343  0.0919
   95CHL1   C18 9463   3.731   4.437   7.436 -0.0464 -0.5118  0.7070
   95CHL1  H18A 9464   3.805   4.506   7.482 -1.1639  1.2469 -0.0343
   95CHL1  H18B 9465   3.733   4.491   7.339  0.5724 -2.1281 -0.2226
   95CHL1  H18C 9466   3.625   4.450   7.465 -0.8827 -1.8059 -1.5096
   95CHL1   C12 9467   3.918   4.267   7.367  0.3250 -0.8229 -0.2646
   95CHL1  H12A 9468   3.992   4.318   7.433 -0.6827 -1.4265  1.4051
   95CHL1  H12B 9469   3.939   4.158   7.374 -2.4257 -1.6834 -3.1321
   95CHL1   C11 9470   3.923   4.315   7.221 -0.0797 -0.3019 -0.4388
   95CHL1  H11A 9471   3.908   4.425   7.211  1.8410 -0.0925 -1.7370
   95CHL1  H11B 9472   4.032   4.295   7.207  0.3534 -0.2380  2.2075
   95CHL1    C9 9473   3.827   4.241   7.122 -0.5867  0.0457 -0.6865
   95CHL1    H9 9474   3.848   4.133   7.136 -0.7754  0.0509 -0.3596
   95CHL1   C10 9475   3.857   4.273   6.974  0.1062 -0.2626  0.4618
   95CHL1   C19 9476   3.882   4.425   6.951 -0.2992  0.0002  0.2866
   95CHL1  H19A 9477   3.901   4.455   6.846  1.2542  1.1849  0.8676
   95CHL1  H19B 9478   3.802   4.481   7.004 -1.2099 -0.3588 -0.6761
   95CHL1  H19C 9479   3.980   4.452   6.995  0.7312 -0.2625 -1.7342
   95CHL1    C1 9480   3.972   4.187   6.923  0.6062  0.0818  0.5892
   95CHL1   H1A 9481   4.065   4.221   6.972  0.7881 -0.8703  0.9271
   95CHL1   H1B 9482   3.948   4.084   6.958  1.0307 -0.4214 -0.5599
   95CHL1    C2 9483   3.996   4.189   6.769  0.0220  0.2092 -0.1724
   95CHL1   H2A 9484   4.082   4.120   6.749 -0.9324 -1.4389  1.0844
   95CHL1   H2B 9485   4.025   4.289   6.730 -1.3002  0.4823 -0.4744
   95CHL1   C20 9486   3.768   4.285   7.690 -0.2724  0.0556  0.4565
   95CHL1   H20 9487   3.739   4.392   7.698  0.1268  0.3072 -1.1650
   95CHL1   C21 9488   3.925   4.287   7.707  0.2771  0.6725 -0.3930
   95CHL1  H21A 9489   3.973   4.360   7.638  0.7374  1.1430  0.4119
   95CHL1  H21B 9490   3.953   4.180   7.700 -0.0265  0.4692  1.1602
   95CHL1  H21C 9491   3.946   4.318   7.812  1.3359 -0.0816 -0.3627
   95CHL1   C22 9492   3.702   4.226   7.808 -0.0001 -0.2458  0.3166
   95CHL1  H22A 9493   3.592   4.228   7.793  0.1772  0.7372 -1.0631
   95CHL1  H22B 9494   3.728   4.119   7.821 -2.5423 -0.8325  1.0760
   95CHL1   C23 9495   3.712   4.302   7.939  0.1298  0.1569 -0.3200
   95CHL1  H23A 9496   3.813   4.272   7.977  0.3638 -1.1581 -1.8424
   95CHL1  H23B 9497   3.703   4.412   7.939 -1.3491  0.2118  3.8317
   95CHL1   C24 9498   3.606   4.252   8.042  0.5029 -0.6533 -0.5520
   95CHL1  H24A 9499   3.507   4.266   7.994  0.1786  1.9591  0.6819
   95CHL1  H24B 9500   3.606   4.146   8.077 -0.6845  0.2161  2.3949
   95CHL1   C25 9501   3.610   4.338   8.167 -0.2210 -0.0136 -0.8700
   95CHL1   H25 9502   3.595   4.445   8.139 -1.1237  0.1575  0.1916
   95CHL1   C26 9503   3.501   4.301   8.263  0.2048  0.2370  0.3857
   95CHL1  H26A 9504   3.522   4.347   8.362  1.7521 -0.6860  0.5215
   95CHL1  H26B 9505   3.401   4.339   8.233 -0.1714 -0.9775  0.0419
   95CHL1  H26C 9506   3.488   4.192   8.275  0.1019 -0.0878 -2.0658
   95CHL1   C27 9507   3.750   4.329   8.241 -0.5441 -0.7034 -0.1469
   95CHL1  H27A 9508   3.770   4.228   8.284  2.4296  0.8820  2.6439
   95CHL1  H27B 9509   3.824   4.352   8.162 -0.0099  1.7783  0.9900
   95CHL1  H27C 9510   3.751   4.394   8.331  0.5074 -2.7109  1.3723
   96CHL1    C3 9511   4.942   3.279   6.833  0.9616  0.1298 -0.9434
   96CHL1    H3 9512   4.926   3.184   6.889  0.0178  1.6312  1.4706
   96CHL1    O3 9513   4.910   3.271   6.699  0.3777 -0.2220  0.2036
   96CHL1   H3' 9514   4.955   3.349   6.664  0.9434 -0.3283  0.6742
   96CHL1    C4 9515   4.840   3.374   6.899 -0.1116  0.1107 -0.3846
   96CHL1   H4A 9516   4.852   3.465   6.837  0.2855  0.0831 -0.3507
   96CHL1   H4B 9517   4.734   3.341   6.890 -0.0976 -0.1198  0.2184
   96CHL1    C5 9518   4.865   3.411   7.043  1.4127 -0.0364  0.8814
   96CHL1    C6 9519   4.773   3.397   7.142 -0.3203  0.0359  0.0876
   96CHL1    H6 9520   4.677   3.349   7.121  0.1460 -1.8088  1.8209
   96CHL1    C7 9521   4.790   3.422   7.289 -0.0467 -0.0470  0.0403
   96CHL1   H7A 9522   4.702   3.473   7.333  0.3473 -0.0004  0.7853
   96CHL1   H7B 9523   4.795   3.323   7.340 -0.7605 -1.2693 -2.1121
   96CHL1    C8 9524   4.923   3.500   7.321 -0.3910  0.0908  0.1916
   96CHL1    H8 9525   4.912   3.607   7.296 -1.2484  0.1958  0.9723
   96CHL1   C14 9526   4.957   3.480   7.466 -0.4517 -0.7249 -0.7371
   96CHL1   H14 9527   4.973   3.371   7.482 -0.4320 -0.9436 -2.0662
   96CHL1   C15 9528   4.846   3.516   7.573 -0.0907 -0.3443  0.6755
   96CHL1  H15A 9529   4.806   3.617   7.551 -0.3108 -0.0373  2.3495
   96CHL1  H15B 9530   4.757   3.453   7.552 -0.2241  0.1420 -0.2823
   96CHL1   C16 9531   4.924   3.523   7.706  0.3412 -0.4580 -0.0713
   96CHL1  H16A 9532   4.909   3.619   7.760  1.0057  0.9507 -2.2487
   96CHL1  H16B 9533   4.904   3.442   7.779  0.1007 -0.6415 -0.3377
   96CHL1   C17 9534   5.076   3.499   7.678  0.4851  0.8465  0.3857
   96CHL1   H17 9535   5.100   3.390   7.676 -1.4625  0.3579  0.9394
   96CHL1   C13 9536   5.089   3.539   7.521  0.5201  0.0156  0.3340
   96CHL1   C18 9537   5.089   3.687   7.497 -0.2964  0.4192  0.1485
   96CHL1  H18A 9538   5.005   3.740   7.548 -0.7384  0.8387 -0.9592
   96CHL1  H18B 9539   5.184   3.731   7.534  0.1684 -0.8194  0.4664
   96CHL1  H18C 9540   5.075   3.715   7.390 -0.6865  4.0625  1.0168
   96CHL1   C12 9541   5.199   3.474   7.440 -0.8541 -0.0217  0.4416
   96CHL1  H12A 9542   5.301   3.505   7.473 -0.3191 -1.8188  0.6213
   96CHL1  H12B 9543   5.183   3.364   7.450 -3.8529  0.4402  1.6592
   96CHL1   C11 9544   5.177   3.498   7.288 -0.4974  0.0473  0.2232
   96CHL1  H11A 9545   5.199   3.604   7.264 -1.3784  0.4074  0.9729
   96CHL1  H11B 9546   5.249   3.434   7.232 -0.0002  2.7223 -2.4180
   96CHL1    C9 9547   5.039   3.452   7.236 -0.3799 -0.2911 -0.1492
   96CHL1    H9 9548   5.030   3.344   7.264 -0.6920  0.5390  3.4508
   96CHL1   C10 9549   5.013   3.456   7.084  0.3973  0.1584 -0.4293
   96CHL1   C19 9550   5.029   3.601   7.027 -0.8518 -0.7098 -0.0333
   96CHL1  H19A 9551   4.958   3.670   7.077 -0.1000  0.5992 -0.7459
   96CHL1  H19B 9552   5.132   3.642   7.032 -0.8902 -0.5722 -0.3248
   96CHL1  H19C 9553   4.994   3.603   6.922 -0.5961 -2.9390 -0.2111
   96CHL1    C1 9554   5.108   3.357   7.009 -0.3052 -0.0750 -0.0270
   96CHL1   H1A 9555   5.204   3.413   7.009  0.0104 -0.6006  0.7509
   96CHL1   H1B 9556   5.122   3.259   7.059 -1.3188  0.1515  0.7382
   96CHL1    C2 9557   5.077   3.325   6.859  0.3147 -0.1873  0.2707
   96CHL1   H2A 9558   5.150   3.250   6.820 -0.4714 -0.4939 -0.6518
   96CHL1   H2B 9559   5.105   3.412   6.796  0.6954 -0.1513  0.4792
   96CHL1   C20 9560   5.164   3.569   7.776 -0.1709 -0.0134 -0.0525
   96CHL1   H20 9561   5.139   3.677   7.787 -0.0874 -0.0587  0.6123
   96CHL1   C21 9562   5.317   3.560   7.742 -0.3409 -0.2579 -0.5916
   96CHL1  H21A 9563   5.344   3.452   7.741 -0.5758 -0.3396 -2.5272
   96CHL1  H21B 9564   5.377   3.609   7.821  0.2889 -1.6102 -0.2072
   96CHL1  H21C 9565   5.347   3.601   7.643  2.1628 -1.7916 -0.5656
   96CHL1   C22 9566   5.143   3.500   7.920 -0.3216  0.3336 -0.1704
   96CHL1  H22A 9567   5.036   3.477   7.941 -0.2072  0.1627  0.2264
   96CHL1  H22B 9568   5.200   3.405   7.914  2.9068  2.1276 -0.1136
   96CHL1   C23 9569   5.197   3.589   8.029 -0.2725 -0.0196  0.1302
   96CHL1  H23A 9570   5.308   3.588   8.018 -0.0967  1.2407  1.5309
   96CHL1  H23B 9571   5.155   3.691   8.013  1.7434  0.6208 -1.5998
   96CHL1   C24 9572   5.160   3.524   8.172  0.0855 -1.0033 -0.0284
   96CHL1  H24A 9573   5.049   3.520   8.179  0.0120  1.4914  2.4709
   96CHL1  H24B 9574   5.213   3.427   8.178  0.2167 -0.9933 -0.9980
   96CHL1   C25 9575   5.205   3.611   8.285  0.4693  0.5088 -0.3355
   96CHL1   H25 9576   5.133   3.695   8.293  0.4494  0.5741 -1.1494
   96CHL1   C26 9577   5.205   3.535   8.420 -0.2446 -0.9100 -1.2150
   96CHL1  H26A 9578   5.111   3.476   8.424 -0.6800 -0.3027 -1.9999
   96CHL1  H26B 9579   5.284   3.458   8.429 -0.7452 -1.3581 -0.5265
   96CHL1  H26C 9580   5.216   3.607   8.504  1.1034 -0.7707 -1.4948
   96CHL1   C27 9581   5.341   3.676   8.263 -0.1595 -0.5117 -0.8939
   96CHL1  H27A 9582   5.337   3.739   8.172 -3.4279  2.1759  0.8902
   96CHL1  H27B 9583   5.372   3.739   8.349 -0.2406  0.0735 -1.2879
   96CHL1  H27C 9584   5.418   3.598   8.244  1.7090  1.1310 -0.3738
   97OSM      N 9585   2.762   5.339  11.431  0.6658  0.0130  0.8251
   97OSM    C15 9586   2.633   5.417  11.446 -0.1299  0.2721 -0.4564
   97OSM   H15A 9587   2.574   5.405  11.355  1.7596 -2.0818 -1.4810
   97OSM   H15B 9588   2.656   5.518  11.476 -1.8483 -0.0196  2.1632
   97OSM   H15C 9589   2.579   5.369  11.526 -0.2309 -1.4352 -1.4829
   97OSM    C14 9590   2.848   5.363  11.548 -0.0679  0.0763 -0.0452
   97OSM   H14A 9591   2.940   5.311  11.528 -0.7743 -2.0132  1.7844
   97OSM   H14B 9592   2.806   5.316  11.635  1.1604  0.2389  0.6542
   97OSM   H14C 9593   2.872   5.466  11.571 -0.6025  0.3293 -0.5861
   97OSM    C13 9594   2.738   5.190  11.426  0.2341 -0.3683 -0.0188
   97OSM   H13A 9595   2.668   5.161  11.503  1.6461  0.6429  1.7355
   97OSM   H13B 9596   2.833   5.138  11.427  1.2452  1.4178  0.4561
   97OSM   H13C 9597   2.692   5.164  11.332  2.1250  1.8075 -1.6512
   97OSM    C12 9598   2.839   5.378  11.299 -0.3424  1.2778 -0.4345
   97OSM   H12A 9599   2.927   5.316  11.292 -1.7757 -0.8838 -0.2989
   97OSM   H12B 9600   2.860   5.484  11.300  1.2212  1.0057 -1.0286
   97OSM    C11 9601   2.763   5.338  11.173  0.3158 -0.4166  0.7094
   97OSM   H11A 9602   2.740   5.230  11.163 -0.2110 -0.5032  2.6257
   97OSM   H11B 9603   2.834   5.360  11.089 -0.2713 -1.8299 -0.1937
   97OSM      P 9604   2.628   5.557  11.102  0.0153  0.3054 -0.1199
   97OSM    O13 9605   2.505   5.625  11.144  0.4486 -0.1013 -0.0253
   97OSM    O14 9606   2.758   5.627  11.105 -0.1904 -0.0067 -0.4011
   97OSM    O11 9607   2.610   5.520  10.952 -0.2416 -0.3518 -0.1916
   97OSM    O12 9608   2.642   5.415  11.165  0.1485 -0.3369  0.0923
   97OSM    C1S 9609   2.495   5.442  10.912 -0.5092  0.8873  0.1312
   97OSM    H1S 9610   2.406   5.506  10.932  0.4778  1.9776  1.2293
   97OSM    H1T 9611   2.482   5.346  10.967 -0.4059  0.4721 -0.5653
   97OSM     NF 9612   2.387   5.353  10.712  0.9157  0.2581  0.2634
   97OSM    HNF 9613   2.361   5.258  10.728 -0.0816  0.4171 -0.3654
   97OSM    C2S 9614   2.513   5.396  10.765 -0.1783  0.2750 -0.2832
   97OSM    H2S 9615   2.557   5.480  10.706  2.5855 -1.4298 -0.8617
   97OSM    C3S 9616   2.624   5.287  10.759 -0.2097 -0.8483 -0.6265
   97OSM    H3S 9617   2.586   5.198  10.814  0.3635  1.4169  3.9050
   97OSM     O3 9618   2.748   5.320  10.822 -0.6038  0.1299 -0.1459
   97OSM    HO3 9619   2.730   5.394  10.880 -0.5950  1.4580 -1.7698
   97OSM    C4S 9620   2.651   5.256  10.614  0.0359  0.0579  0.3068
   97OSM    H4S 9621   2.587   5.172  10.584  0.9028 -0.7426  0.6248
   97OSM    C5S 9622   2.724   5.327  10.524  0.0504 -0.2375  0.0273
   97OSM    H5S 9623   2.763   5.427  10.547 -0.2369  0.2005 -1.2966
   97OSM    C6S 9624   2.745   5.282  10.383 -0.0479  0.0111 -0.4747
   97OSM    H6S 9625   2.796   5.184  10.383  0.7106  0.3971 -0.1217
   97OSM    H6T 9626   2.817   5.350  10.332  1.7920 -0.9753  0.6754
   97OSM    C7S 9627   2.615   5.285  10.297  0.1775  0.0667  0.6825
   97OSM    H7S 9628   2.556   5.378  10.315 -0.9554 -0.2555 -1.0909
   97OSM    H7T 9629   2.572   5.189  10.331  2.5737 -1.6284 -0.7603
   97OSM    C8S 9630   2.646   5.279  10.147  0.0363  0.3216  0.7361
   97OSM    H8S 9631   2.692   5.180  10.125 -2.4105 -0.9282  0.8864
   97OSM    H8T 9632   2.721   5.359  10.130 -0.4706  0.8566  0.9729
   97OSM    C9S 9633   2.533   5.325  10.047  0.1671 -0.2444  0.2780
   97OSM    H9S 9634   2.492   5.427  10.067  0.2608  0.0572 -1.0232
   97OSM    H9T 9635   2.458   5.243  10.048 -0.8057  0.6012 -0.8762
   97OSM   C10S 9636   2.579   5.344   9.904 -0.7039  0.1226  0.3161
   97OSM   H10S 9637   2.614   5.246   9.865 -1.6928 -0.7272  1.4708
   97OSM   H10T 9638   2.667   5.412   9.902 -0.4383 -0.1778  1.3197
   97OSM   C11S 9639   2.472   5.405   9.817 -0.3293 -0.5211  0.3569
   97OSM   H11S 9640   2.461   5.512   9.847  0.6042 -0.1851 -0.4487
   97OSM   H11T 9641   2.377   5.356   9.846  0.9183 -1.7351  2.7130
   97OSM   C12S 9642   2.501   5.402   9.665 -0.0401 -0.5537  0.5224
   97OSM   H12S 9643   2.534   5.304   9.624 -1.1427 -0.2321 -1.2285
   97OSM   H12T 9644   2.581   5.476   9.646  0.3907 -0.5250  2.2397
   97OSM   C13S 9645   2.385   5.450   9.584  0.2372  0.2498 -0.8693
   97OSM   H13S 9646   2.363   5.555   9.614  1.4235 -0.0097  1.1155
   97OSM   H13T 9647   2.297   5.384   9.605  2.0281 -1.3383  2.6207
   97OSM   C14S 9648   2.405   5.448   9.429 -0.5597  0.8600 -0.7554
   97OSM   H14S 9649   2.501   5.496   9.403  0.1449 -0.5876 -0.9313
   97OSM   H14T 9650   2.322   5.508   9.386 -1.0446  1.9383  1.5388
   97OSM   C15S 9651   2.409   5.313   9.364  0.2838 -0.0083  0.0503
   97OSM   H15S 9652   2.310   5.266   9.382  0.4946  0.0009  1.3277
   97OSM   H15T 9653   2.481   5.248   9.418  1.0919 -0.4838 -1.5363
   97OSM   C16S 9654   2.430   5.317   9.212  0.0762 -0.0281  0.6150
   97OSM   H16S 9655   2.451   5.215   9.175 -0.8431 -0.0387  0.0652
   97OSM   H16T 9656   2.516   5.382   9.186  0.2628 -0.3165  0.5090
   97OSM   C17S 9657   2.298   5.345   9.135 -0.6603  0.6071  0.0404
   97OSM   H17S 9658   2.286   5.453   9.159  0.5433  0.6116  0.7061
   97OSM   H17T 9659   2.211   5.288   9.176  0.4407 -0.8536  0.4243
   97OSM   C18S 9660   2.325   5.337   8.985  0.5444 -0.1430  0.5454
   97OSM   H18S 9661   2.233   5.350   8.925  2.1194 -2.1696 -2.5803
   97OSM   H18T 9662   2.366   5.242   8.945 -0.4685  0.4438 -2.1060
   97OSM   H18U 9663   2.389   5.422   8.951  1.1560 -0.3685  1.1104
   97OSM    C1F 9664   2.294   5.438  10.667 -0.6498  0.7214  0.0015
   97OSM     OF 9665   2.303   5.554  10.677  0.5471 -0.0026 -0.1338
   97OSM    C2F 9666   2.171   5.378  10.611  0.2937 -0.2400 -0.7718
   97OSM    H2F 9667   2.086   5.448  10.617  0.8205  0.3719 -0.2883
   97OSM    H2G 9668   2.140   5.282  10.658  0.8075 -0.2321 -0.4083
   97OSM    C3F 9669   2.200   5.356  10.460  0.5237 -0.6350  1.3577
   97OSM    H3F 9670   2.107   5.321  10.410  2.0298 -2.1635 -0.5500
   97OSM    H3G 9671   2.274   5.274  10.448  0.8898 -0.1972  0.5025
   97OSM    C4F 9672   2.235   5.486  10.378  0.1431 -0.5450  0.0504
   97OSM    H4F 9673   2.343   5.506  10.397  0.3326  1.2268 -2.3819
   97OSM    H4G 9674   2.179   5.570  10.425 -0.9040 -1.3990  0.3697
   97OSM    C5F 9675   2.191   5.493  10.235  0.1726 -0.4068 -0.4712
   97OSM    H5F 9676   2.095   5.441  10.214  0.7190 -1.8525  0.4407
   97OSM    H5G 9677   2.265   5.434  10.177  0.6866 -0.6348  0.3910
   97OSM    C6F 9678   2.192   5.637  10.174 -0.2985  0.7683  0.1637
   97OSM    H6F 9679   2.296   5.672  10.191 -0.6300  0.9176  2.1743
   97OSM    H6G 9680   2.116   5.688  10.238 -2.3127 -1.8618  0.0600
   97OSM    C7F 9681   2.163   5.665  10.025  0.0128  0.3471 -0.1346
   97OSM    H7F 9682   2.066   5.621   9.993  0.4502  0.9700 -2.5835
   97OSM    H7G 9683   2.238   5.617   9.958  0.1793  0.1215  0.2151
   97OSM    C8F 9684   2.165   5.809   9.996 -0.2144 -0.5214 -0.2954
   97OSM    H8F 9685   2.262   5.851  10.030  0.3941 -2.3063  0.2295
   97OSM    H8G 9686   2.099   5.871  10.061  1.8666 -0.3731  1.7782
   97OSM    C9F 9687   2.126   5.839   9.851  0.6387 -0.0492 -0.3141
   97OSM    H9F 9688   2.214   5.840   9.786  0.6216  1.9425 -0.3570
   97OSM   C10F 9689   2.001   5.864   9.804 -0.4772 -0.3195 -0.3566
   97OSM   H10F 9690   1.985   5.881   9.696  0.9483 -0.3883 -0.6011
   97OSM   C11F 9691   1.885   5.875   9.894  0.2058 -0.0648  0.6504
   97OSM   H11F 9692   1.903   5.839   9.997  0.5357 -0.6471  0.3919
   97OSM   H11G 9693   1.808   5.810   9.848  2.8899 -1.3796 -2.3290
   97OSM   C12F 9694   1.838   6.022   9.908 -0.5414 -0.4714 -0.0398
   97OSM   H12F 9695   1.931   6.074   9.939  0.5348 -2.6928  0.7106
   97OSM   H12G 9696   1.774   6.018   9.999  2.6212  0.9401  2.4144
   97OSM   C13F 9697   1.766   6.085   9.783  0.4815 -0.2718 -0.6521
   97OSM   H13F 9698   1.832   6.102   9.694 -1.0809  1.6031 -1.5402
   97OSM   H13G 9699   1.740   6.189   9.813 -0.0695 -0.3480 -0.8461
   97OSM   C14F 9700   1.645   6.006   9.719  0.1604 -0.4257 -0.1433
   97OSM   H14F 9701   1.573   6.001   9.804  0.1559 -1.1435 -0.1862
   97OSM   H14G 9702   1.673   5.901   9.695 -0.0473 -0.5746  0.2482
   97OSM   C15F 9703   1.575   6.082   9.604 -0.2437 -0.0587 -0.5077
   97OSM   H15F 9704   1.643   6.072   9.516  3.2316 -1.2085  2.0932
   97OSM   H15G 9705   1.556   6.191   9.615  0.3030  0.3724 -3.0284
   97OSM   C16F 9706   1.446   6.007   9.568  0.2211  0.7450 -0.4798
   97OSM   H16F 9707   1.370   6.034   9.644 -0.0082 -3.2040  0.9217
   97OSM   H16G 9708   1.470   5.899   9.558 -0.0420  0.4828  1.2619
   97OSM   C17F 9709   1.388   6.034   9.428  0.0836  0.1970 -0.0848
   97OSM   H17F 9710   1.458   5.991   9.354 -1.7986 -1.5238 -0.9663
   97OSM   H17G 9711   1.375   6.144   9.426 -1.3672  0.0726  0.6642
   97OSM   C18F 9712   1.257   5.958   9.397 -0.2820  0.1802  0.0909
   97OSM   H18F 9713   1.233   5.943   9.290  0.8382 -1.2125 -0.0006
   97OSM   H18G 9714   1.172   6.003   9.452 -0.5588  0.2310 -0.3793
   97OSM   H18H 9715   1.255   5.855   9.439  1.5011 -0.5389 -1.4545
   98OSM      N 9716   3.114   6.034  10.893  0.1818  0.2359 -0.0053
   98OSM    C15 9717   3.260   6.032  10.890  0.2363  0.1777 -0.3178
   98OSM   H15A 9718   3.309   6.000  10.980  1.8685  0.3589 -1.1098
   98OSM   H15B 9719   3.297   6.132  10.871  0.2245  0.2009 -0.2213
   98OSM   H15C 9720   3.308   5.959  10.826 -1.5749 -0.6177 -0.8496
   98OSM    C14 9721   3.047   6.028  10.762 -0.0918  0.0084  0.5414
   98OSM   H14A 9722   3.094   5.948  10.708  0.6728  1.5189 -1.1443
   98OSM   H14B 9723   3.065   6.119  10.706 -3.0113  0.7296  0.5702
   98OSM   H14C 9724   2.939   6.026  10.763 -0.2074  1.5948 -1.1864
   98OSM    C13 9725   3.068   5.911  10.968  0.5168  0.2174  0.2637
   98OSM   H13A 9726   3.116   5.880  11.060  0.1430 -1.3856 -0.0367
   98OSM   H13B 9727   3.067   5.821  10.907  0.3910 -0.1228  0.7555
   98OSM   H13C 9728   2.965   5.936  10.990  0.4064 -0.5335  0.6552
   98OSM    C12 9729   3.075   6.154  10.975 -0.0463 -0.2294  0.4890
   98OSM   H12A 9730   3.122   6.243  10.936 -0.5562  0.6585  1.8212
   98OSM   H12B 9731   3.117   6.147  11.074  0.3786  0.6611  0.3791
   98OSM    C11 9732   2.918   6.193  10.979 -0.2273  0.6363  0.2692
   98OSM   H11A 9733   2.878   6.233  10.883  1.4406 -0.9372 -1.1622
   98OSM   H11B 9734   2.904   6.279  11.047 -0.4986 -0.8726  2.2141
   98OSM      P 9735   2.676   6.074  11.012  0.2634  0.1395  0.4964
   98OSM    O13 9736   2.633   5.973  11.110 -0.1388 -0.0543 -0.2495
   98OSM    O14 9737   2.618   6.212  11.020  0.7352  0.3533  0.0426
   98OSM    O11 9738   2.655   6.018  10.870 -0.1938  0.9416  0.1518
   98OSM    O12 9739   2.835   6.078  11.016  0.1092 -0.0355 -0.5470
   98OSM    C1S 9740   2.550   5.922  10.852  0.4125  0.2063 -0.3478
   98OSM    H1S 9741   2.452   5.964  10.883 -0.4011 -0.1692 -2.2007
   98OSM    H1T 9742   2.558   5.827  10.908  0.6265  0.7960  0.6341
   98OSM     NF 9743   2.394   5.828  10.682 -0.7317  0.3549 -0.3538
   98OSM    HNF 9744   2.389   5.732  10.656  0.2806 -0.6949  2.8145
   98OSM    C2S 9745   2.529   5.881  10.705  0.7050  0.2446 -0.0071
   98OSM    H2S 9746   2.541   5.966  10.634 -2.0767  1.1264  0.4851
   98OSM    C3S 9747   2.641   5.784  10.658  0.2612 -0.0095  0.4112
   98OSM    H3S 9748   2.649   5.687  10.711  0.0224 -0.0864  0.3058
   98OSM     O3 9749   2.770   5.836  10.689 -0.2351  0.1072 -0.3051
   98OSM    HO3 9750   2.754   5.909  10.750 -0.7115 -0.4193  0.2148
   98OSM    C4S 9751   2.641   5.772  10.505  0.0483 -0.4462 -0.3692
   98OSM    H4S 9752   2.660   5.867  10.452 -0.1024 -1.3969 -2.1884
   98OSM    C5S 9753   2.609   5.657  10.436  0.5694 -0.2701 -0.4102
   98OSM    H5S 9754   2.585   5.561  10.484 -0.5567  1.1388  2.0339
   98OSM    C6S 9755   2.608   5.641  10.281  0.2148  0.0238 -0.5548
   98OSM    H6S 9756   2.517   5.587  10.246 -0.2979  0.6801 -0.2436
   98OSM    H6T 9757   2.699   5.583  10.253  0.1393  0.3835 -1.5710
   98OSM    C7S 9758   2.600   5.773  10.200  0.0450 -0.2189  0.3599
   98OSM    H7S 9759   2.689   5.835  10.226 -0.6689  1.4296 -0.9924
   98OSM    H7T 9760   2.507   5.829  10.224  1.1288  0.9791  2.0058
   98OSM    C8S 9761   2.591   5.749  10.046  0.7409  0.0107 -0.4786
   98OSM    H8S 9762   2.516   5.668  10.031  0.1346 -0.1209  2.7314
   98OSM    H8T 9763   2.686   5.701  10.013 -0.1647 -0.8434 -1.9772
   98OSM    C9S 9764   2.570   5.869   9.956 -0.0885 -0.3341 -0.0029
   98OSM    H9S 9765   2.663   5.929   9.968  0.2407 -1.1110  1.7257
   98OSM    H9T 9766   2.485   5.929   9.994  2.6043  1.5910  3.6255
   98OSM   C10S 9767   2.556   5.838   9.804  0.2792 -0.1533  0.1107
   98OSM   H10S 9768   2.453   5.809   9.777  0.7922 -0.0471 -2.1631
   98OSM   H10T 9769   2.630   5.758   9.780  0.7300  0.4006 -0.4090
   98OSM   C11S 9770   2.590   5.954   9.703  0.4455 -0.0597  0.1163
   98OSM   H11S 9771   2.684   6.011   9.718 -1.5940  3.6639 -0.1238
   98OSM   H11T 9772   2.518   6.035   9.726 -0.1356 -0.2337 -1.0237
   98OSM   C12S 9773   2.554   5.922   9.559  0.0056  0.0868  0.3713
   98OSM   H12S 9774   2.532   6.017   9.507  1.8172  2.7177  3.9618
   98OSM   H12T 9775   2.466   5.854   9.566 -1.1628  1.5153  0.0134
   98OSM   C13S 9776   2.660   5.845   9.478 -0.5964 -0.4839  0.4482
   98OSM   H13S 9777   2.693   5.760   9.541  1.9272 -0.2911 -0.4975
   98OSM   H13T 9778   2.740   5.920   9.462 -1.3109  0.1455 -0.2925
   98OSM   C14S 9779   2.600   5.787   9.348 -0.6186  0.3938  0.0687
   98OSM   H14S 9780   2.564   5.876   9.292 -0.0698  1.8353  1.8930
   98OSM   H14T 9781   2.507   5.734   9.379 -1.2002  0.7560 -1.0093
   98OSM   C15S 9782   2.695   5.710   9.261  0.5888  0.5337 -0.1852
   98OSM   H15S 9783   2.732   5.620   9.316  1.9982 -0.5917 -2.7946
   98OSM   H15T 9784   2.787   5.765   9.231  1.6307 -1.0049  0.0817
   98OSM   C16S 9785   2.626   5.646   9.136 -1.0240 -0.3432  0.4005
   98OSM   H16S 9786   2.524   5.617   9.169 -1.5818  1.9159  0.8336
   98OSM   H16T 9787   2.682   5.557   9.101  0.7258  0.1495  1.7694
   98OSM   C17S 9788   2.617   5.742   9.021 -0.5623  0.5072 -0.0564
   98OSM   H17S 9789   2.716   5.778   8.983 -0.0953 -1.3341 -0.7352
   98OSM   H17T 9790   2.558   5.833   9.041 -2.4324 -0.9217  1.2069
   98OSM   C18S 9791   2.553   5.675   8.898 -0.8211 -0.7950 -0.3949
   98OSM   H18S 9792   2.563   5.734   8.804 -0.2151  3.0509  1.8581
   98OSM   H18T 9793   2.446   5.656   8.919 -0.4042 -1.6310  1.1020
   98OSM   H18U 9794   2.603   5.579   8.874 -0.3928 -0.6538 -0.0785
   98OSM    C1F 9795   2.294   5.912  10.681 -0.4261 -0.0575 -0.1045
   98OSM     OF 9796   2.310   6.031  10.704  0.1289  0.5132 -0.1261
   98OSM    C2F 9797   2.164   5.853  10.635 -0.3545 -0.0938  0.2791
   98OSM    H2F 9798   2.111   5.799  10.716 -1.3637 -2.1158 -1.6043
   98OSM    H2G 9799   2.189   5.774  10.560 -1.7912 -0.6614  0.3646
   98OSM    C3F 9800   2.083   5.952  10.551  0.1940  0.1072 -0.5294
   98OSM    H3F 9801   2.138   5.955  10.454  1.0121 -0.5269 -0.0954
   98OSM    H3G 9802   2.069   6.053  10.595 -0.5510 -0.5990  0.9221
   98OSM    C4F 9803   1.935   5.903  10.523 -0.1467  1.5991  0.2857
   98OSM    H4F 9804   1.888   5.997  10.486  0.7293  2.2559  0.8059
   98OSM    H4G 9805   1.884   5.863  10.612  0.7073 -1.9594 -0.6621
   98OSM    C5F 9806   1.921   5.795  10.410  0.3550  0.4729  0.2906
   98OSM    H5F 9807   1.996   5.718  10.436  1.4708  0.9884 -1.2171
   98OSM    H5G 9808   1.954   5.840  10.314  0.6321  1.5360  0.8652
   98OSM    C6F 9809   1.786   5.726  10.394 -0.8486 -0.1422  0.5443
   98OSM    H6F 9810   1.719   5.814  10.386 -2.5196 -1.4105  0.1926
   98OSM    H6G 9811   1.772   5.661  10.483  0.0311 -0.5617  0.3880
   98OSM    C7F 9812   1.771   5.648  10.260 -0.6041 -0.3182  0.4399
   98OSM    H7F 9813   1.822   5.550  10.274 -1.5746 -1.0829 -0.9608
   98OSM    H7G 9814   1.834   5.694  10.181  1.2254 -1.8858  0.9163
   98OSM    C8F 9815   1.628   5.626  10.220 -0.4098  0.4105  0.2505
   98OSM    H8F 9816   1.570   5.614  10.314 -0.1716 -2.9115  0.0980
   98OSM    H8G 9817   1.624   5.536  10.154  0.2299 -0.7789  1.7654
   98OSM    C9F 9818   1.569   5.750  10.151  0.2395  0.4097 -0.6732
   98OSM    H9F 9819   1.562   5.836  10.218 -0.4400 -0.1792  0.0326
   98OSM   C10F 9820   1.532   5.760  10.025  0.2571  0.3869  0.1266
   98OSM   H10F 9821   1.490   5.858  10.000 -0.6678 -0.0105  0.0588
   98OSM   C11F 9822   1.533   5.666   9.910  0.2453  0.7889 -0.2805
   98OSM   H11F 9823   1.556   5.562   9.944 -0.5634  0.1614 -1.5801
   98OSM   H11G 9824   1.615   5.691   9.839  1.5093 -2.2896 -0.0794
   98OSM   C12F 9825   1.403   5.672   9.833  0.3436 -0.1049  0.3878
   98OSM   H12F 9826   1.402   5.777   9.798  4.3835  0.1448  0.5209
   98OSM   H12G 9827   1.318   5.666   9.904  0.3822  2.2713  0.7117
   98OSM   C13F 9828   1.393   5.577   9.713  0.4655 -0.5534 -0.2870
   98OSM   H13F 9829   1.395   5.473   9.753  1.0186 -0.6734 -0.6097
   98OSM   H13G 9830   1.487   5.590   9.655  1.1252 -0.8619  0.6843
   98OSM   C14F 9831   1.275   5.603   9.620 -0.0253  0.1248 -0.4933
   98OSM   H14F 9832   1.282   5.705   9.577 -1.9210  0.5463  0.1351
   98OSM   H14G 9833   1.176   5.601   9.670 -0.4675 -1.6050 -1.3514
   98OSM   C15F 9834   1.266   5.504   9.502  0.4824 -0.7445 -0.4844
   98OSM   H15F 9835   1.228   5.557   9.412  1.4072  0.3889 -0.2276
   98OSM   H15G 9836   1.196   5.420   9.525 -0.8546  0.1957 -1.0107
   98OSM   C16F 9837   1.393   5.431   9.453  0.2341  0.8757  0.6629
   98OSM   H16F 9838   1.425   5.373   9.543  0.7185  2.1339  1.3370
   98OSM   H16G 9839   1.481   5.497   9.438  0.7408  0.3805  1.3680
   98OSM   C17F 9840   1.374   5.358   9.313  0.0860  0.2497  0.5404
   98OSM   H17F 9841   1.340   5.427   9.234  0.6703 -1.9649 -1.7682
   98OSM   H17G 9842   1.283   5.293   9.315 -0.0507  0.2582 -2.2481
   98OSM   C18F 9843   1.494   5.277   9.280  0.0317  0.7545  0.4332
   98OSM   H18F 9844   1.588   5.336   9.283 -0.1082  0.9651  0.7786
   98OSM   H18G 9845   1.487   5.238   9.177  1.4258 -0.1055  0.6311
   98OSM   H18H 9846   1.504   5.190   9.350  1.1065 -1.2931 -2.0943
   99OSM      N 9847   3.360   1.236  10.687 -0.0971  0.0242 -0.5212
   99OSM    C15 9848   3.484   1.241  10.770  0.1714  0.3282 -0.1280
   99OSM   H15A 9849   3.527   1.340  10.773  1.9989 -0.2079 -3.4702
   99OSM   H15B 9850   3.565   1.186  10.724 -0.4872 -1.0749  0.3349
   99OSM   H15C 9851   3.471   1.207  10.871  3.6466  2.2668  1.1454
   99OSM    C14 9852   3.252   1.316  10.755 -0.2741  0.2822  0.0109
   99OSM   H14A 9853   3.171   1.339  10.689 -0.1765  0.3598 -0.0816
   99OSM   H14B 9854   3.290   1.416  10.772 -2.2850  1.1332 -0.2871
   99OSM   H14C 9855   3.217   1.274  10.848  1.1680 -0.1016  0.4163
   99OSM    C13 9856   3.390   1.299  10.559  0.4250 -0.3447  0.0765
   99OSM   H13A 9857   3.481   1.262  10.515  0.9284 -1.1749  1.7445
   99OSM   H13B 9858   3.423   1.400  10.579 -2.1846  0.7624 -0.6754
   99OSM   H13C 9859   3.306   1.304  10.490  0.8121  0.5230 -0.3493
   99OSM    C12 9860   3.321   1.090  10.660  0.3419 -0.4359 -0.7808
   99OSM   H12A 9861   3.403   1.041  10.609  0.5841 -2.6918  1.5311
   99OSM   H12B 9862   3.242   1.090  10.586 -1.2169  3.7506  0.6247
   99OSM    C11 9863   3.283   0.997  10.783 -0.5410 -0.2655 -0.4349
   99OSM   H11A 9864   3.375   0.976  10.841 -0.1937 -1.5168 -1.3757
   99OSM   H11B 9865   3.261   0.899  10.734  0.1405 -2.4169  3.2234
   99OSM      P 9866   3.045   0.969  10.880  0.1035 -0.3192  0.0087
   99OSM    O13 9867   3.073   0.852  10.963 -0.3037 -0.2250  0.5812
   99OSM    O14 9868   2.939   1.060  10.927  0.0253  0.0167  0.3426
   99OSM    O11 9869   3.010   0.919  10.732  0.0415  0.7871 -0.0972
   99OSM    O12 9870   3.180   1.050  10.869 -0.2043 -0.2274  0.2136
   99OSM    C1S 9871   2.966   1.019  10.636  0.4473  0.7577 -0.0801
   99OSM    H1S 9872   3.028   1.110  10.648  0.2570  0.6853  1.6195
   99OSM    H1T 9873   2.858   1.038  10.658  0.0839 -2.1670  1.1256
   99OSM     NF 9874   2.974   1.059  10.397  0.3493  0.0760 -0.2005
   99OSM    HNF 9875   2.887   1.103  10.375  0.3207  0.0544 -0.1297
   99OSM    C2S 9876   2.975   0.956  10.493  0.1448 -0.2533 -0.1977
   99OSM    H2S 9877   3.072   0.903  10.488 -0.6705 -2.1097  1.9289
   99OSM    C3S 9878   2.863   0.855  10.490 -0.3281 -0.5573 -0.3319
   99OSM    H3S 9879   2.769   0.909  10.516  0.9747  2.3433 -1.2418
   99OSM     O3 9880   2.882   0.751  10.583  0.1543  0.4156 -0.4899
   99OSM    HO3 9881   2.943   0.782  10.650  0.5830 -0.0883 -0.6388
   99OSM    C4S 9882   2.853   0.799  10.347  0.0809  0.1063 -0.0378
   99OSM    H4S 9883   2.769   0.853  10.299 -0.4900 -0.7167  0.0254
   99OSM    C5S 9884   2.936   0.716  10.277  0.9585 -0.0731 -0.3510
   99OSM    H5S 9885   3.037   0.693  10.316  0.6815  1.8189  1.6776
   99OSM    C6S 9886   2.915   0.678  10.139 -0.3777 -0.1396  0.4566
   99OSM    H6S 9887   2.887   0.570  10.135 -1.6961  0.1439  1.2800
   99OSM    H6T 9888   3.013   0.695  10.089 -1.4699  1.7801 -1.1944
   99OSM    C7S 9889   2.798   0.739  10.068 -0.5299  0.3723  0.5887
   99OSM    H7S 9890   2.810   0.848  10.054  0.6498 -0.0796 -2.9472
   99OSM    H7T 9891   2.702   0.721  10.120 -2.0025  2.0900 -1.3959
   99OSM    C8S 9892   2.778   0.677   9.920 -0.4869 -0.2356 -0.0998
   99OSM    H8S 9893   2.672   0.701   9.898 -0.1490  1.5511  0.0761
   99OSM    H8T 9894   2.790   0.566   9.928  0.3301 -0.2168 -0.7965
   99OSM    C9S 9895   2.866   0.735   9.809  0.2514  0.4131  0.2465
   99OSM    H9S 9896   2.973   0.710   9.827  0.9595  1.2230 -2.4158
   99OSM    H9T 9897   2.853   0.845   9.809 -0.3125  0.3556 -1.0377
   99OSM   C10S 9898   2.816   0.696   9.666  0.5429  0.0776 -0.6250
   99OSM   H10S 9899   2.713   0.736   9.653  0.4994  0.3095  0.3423
   99OSM   H10T 9900   2.816   0.586   9.653 -2.5979  0.1068 -1.7188
   99OSM   C11S 9901   2.904   0.754   9.555  0.8700 -0.2201  0.9037
   99OSM   H11S 9902   3.003   0.704   9.553  1.8296  1.6194  0.7675
   99OSM   H11T 9903   2.921   0.861   9.582 -0.1597  0.2691 -0.3100
   99OSM   C12S 9904   2.832   0.742   9.420 -0.0358 -0.2013 -0.0064
   99OSM   H12S 9905   2.807   0.637   9.394 -0.1282  0.4629 -2.9896
   99OSM   H12T 9906   2.746   0.813   9.412  0.2102 -0.0311 -1.6075
   99OSM   C13S 9907   2.941   0.778   9.312 -0.2706  0.3212  0.0657
   99OSM   H13S 9908   3.029   0.710   9.322  0.5453  1.0620 -1.6252
   99OSM   H13T 9909   2.977   0.883   9.325  0.0245  0.0468  1.6342
   99OSM   C14S 9910   2.898   0.772   9.167 -0.2876 -0.2114  0.3759
   99OSM   H14S 9911   2.834   0.681   9.163 -0.7795  0.1614 -1.0342
   99OSM   H14T 9912   2.976   0.738   9.096 -0.0121 -1.2719  1.1704
   99OSM   C15S 9913   2.822   0.901   9.122 -0.8674  0.5072 -0.0066
   99OSM   H15S 9914   2.895   0.984   9.133 -0.3796 -0.0315  0.9914
   99OSM   H15T 9915   2.743   0.927   9.197 -1.9909 -1.0472 -0.5995
   99OSM   C16S 9916   2.770   0.882   8.981 -0.1073 -0.2234  0.0450
   99OSM   H16S 9917   2.678   0.819   8.986  0.3045 -0.8346 -0.0156
   99OSM   H16T 9918   2.843   0.825   8.921 -1.7554 -0.1893 -2.1220
   99OSM   C17S 9919   2.737   1.009   8.913  0.5303  0.3257  0.1340
   99OSM   H17S 9920   2.816   1.086   8.921  1.5088 -0.4503 -1.5253
   99OSM   H17T 9921   2.645   1.059   8.949  1.6793  1.9207  1.0182
   99OSM   C18S 9922   2.723   0.981   8.764  0.1696  0.3526  0.1003
   99OSM   H18S 9923   2.676   0.880   8.758  0.7529  0.0694  0.1640
   99OSM   H18T 9924   2.823   0.983   8.716 -0.6015  2.3385 -1.5599
   99OSM   H18U 9925   2.654   1.051   8.713  1.6187  0.4145 -1.8806
   99OSM    C1F 9926   3.086   1.133  10.375  0.1634  0.2143  0.4269
   99OSM     OF 9927   3.196   1.080  10.395 -0.1541 -0.4976  0.2728
   99OSM    C2F 9928   3.072   1.273  10.322  0.3387  0.0337 -0.0238
   99OSM    H2F 9929   3.098   1.344  10.403 -1.1134 -0.0697  0.5590
   99OSM    H2G 9930   2.966   1.292  10.293  0.2678 -0.3058  0.0079
   99OSM    C3F 9931   3.166   1.321  10.200 -0.1543  0.2803 -0.4156
   99OSM    H3F 9932   3.138   1.422  10.163  1.2275  0.5357 -0.8374
   99OSM    H3G 9933   3.270   1.318  10.238  0.4352 -2.0056 -1.9870
   99OSM    C4F 9934   3.133   1.230  10.080 -0.1522 -0.2250  0.4443
   99OSM    H4F 9935   3.026   1.252  10.060 -0.4359  1.1040  3.0240
   99OSM    H4G 9936   3.161   1.125  10.102 -0.9714 -0.4301  0.5211
   99OSM    C5F 9937   3.212   1.277   9.950 -0.3695 -0.2283  0.1493
   99OSM    H5F 9938   3.322   1.282   9.970 -0.4184  2.0430  0.1316
   99OSM    H5G 9939   3.189   1.384   9.932  1.9803 -0.0853 -2.9073
   99OSM    C6F 9940   3.166   1.191   9.828  0.2217 -0.0073 -0.1933
   99OSM    H6F 9941   3.196   1.087   9.852  1.6657  0.3101 -0.5076
   99OSM    H6G 9942   3.213   1.224   9.732 -0.7477 -1.2939 -1.1540
   99OSM    C7F 9943   3.013   1.208   9.805 -0.0325  0.5332  0.2501
   99OSM    H7F 9944   2.997   1.318   9.801  0.1795  0.5371 -0.7257
   99OSM    H7G 9945   2.944   1.176   9.885 -0.6867  2.2401  0.4165
   99OSM    C8F 9946   2.966   1.130   9.679 -0.3252 -0.1019 -0.1408
   99OSM    H8F 9947   2.856   1.141   9.673 -0.2182  1.6714  0.7329
   99OSM    H8G 9948   2.999   1.026   9.701  0.9669  0.1838 -0.6432
   99OSM    C9F 9949   3.039   1.160   9.553 -0.1776  0.3041 -0.3312
   99OSM    H9F 9950   3.136   1.109   9.543 -0.0554  0.1652  1.2361
   99OSM   C10F 9951   3.004   1.247   9.458  0.5015  0.6625 -0.6512
   99OSM   H10F 9952   3.072   1.271   9.375  1.5399  1.1596  0.3110
   99OSM   C11F 9953   2.883   1.333   9.459  0.4227 -0.4277  0.3508
   99OSM   H11F 9954   2.910   1.441   9.453  1.1846 -0.6680 -1.3098
   99OSM   H11G 9955   2.826   1.326   9.554 -1.4226 -0.3728 -0.6830
   99OSM   C12F 9956   2.794   1.302   9.336 -0.1645  0.1013 -0.1393
   99OSM   H12F 9957   2.690   1.331   9.363  0.3649  0.6545  1.4206
   99OSM   H12G 9958   2.806   1.196   9.306  1.8159 -0.1474  1.3744
   99OSM   C13F 9959   2.847   1.389   9.213 -0.1672 -0.3925 -0.0054
   99OSM   H13F 9960   2.945   1.343   9.189  0.1212 -0.0024  0.4185
   99OSM   H13G 9961   2.862   1.494   9.245 -0.6382 -0.5160  0.6465
   99OSM   C14F 9962   2.759   1.383   9.087  0.1504  0.1887  0.2948
   99OSM   H14F 9963   2.661   1.430   9.111 -0.3971 -0.5863 -0.3823
   99OSM   H14G 9964   2.738   1.276   9.067 -0.2643  0.5165 -1.1051
   99OSM   C15F 9965   2.821   1.451   8.960 -0.3139 -0.2310  0.0179
   99OSM   H15F 9966   2.905   1.389   8.921 -1.2563 -2.9035  1.9525
   99OSM   H15G 9967   2.853   1.554   8.986  1.4773 -1.0607  1.3418
   99OSM   C16F 9968   2.729   1.460   8.840  0.9310 -0.0975  0.0781
   99OSM   H16F 9969   2.632   1.505   8.872  0.5389 -0.0532 -1.1204
   99OSM   H16G 9970   2.705   1.359   8.801  0.5469 -0.0960  0.3016
   99OSM   C17F 9971   2.795   1.539   8.731  0.1584  0.1688  0.2965
   99OSM   H17F 9972   2.890   1.486   8.712  0.6092 -0.0758  2.8478
   99OSM   H17G 9973   2.819   1.641   8.768  3.1749 -0.2626 -0.2766
   99OSM   C18F 9974   2.707   1.532   8.607 -0.6848  0.4278 -0.2967
   99OSM   H18F 9975   2.599   1.549   8.622 -0.7621  1.3306 -1.7190
   99OSM   H18G 9976   2.722   1.433   8.558 -1.5820  0.6300 -1.0071
   99OSM   H18H 9977   2.746   1.613   8.542  2.0607  0.6361  1.4287
  100OSM      N 9978   5.096   1.313  10.900 -0.3548 -0.4071 -0.3568
  100OSM    C15 9979   5.089   1.401  10.778 -0.3189 -0.7115  0.5379
  100OSM   H15A 9980   5.032   1.349  10.702 -1.4660  0.3055  0.6698
  100OSM   H15B 9981   5.187   1.424  10.737 -0.8795  1.5109  0.2973
  100OSM   H15C 9982   5.034   1.487  10.812  0.3628 -1.0348  2.5657
  100OSM    C14 9983   4.954   1.293  10.950 -0.0199 -0.0257 -0.5047
  100OSM   H14A 9984   4.883   1.228  10.900 -1.4156  0.8704  0.2550
  100OSM   H14B 9985   4.910   1.390  10.967  0.2003 -0.0944  0.4888
  100OSM   H14C 9986   4.966   1.242  11.044  0.3464 -3.7006 -2.3644
  100OSM    C13 9987   5.147   1.181  10.862 -0.6892  0.3303  0.1928
  100OSM   H13A 9988   5.186   1.115  10.939  1.5541 -0.7120 -1.7018
  100OSM   H13B 9989   5.236   1.191  10.801  1.0948 -0.0348  2.5595
  100OSM   H13C 9990   5.078   1.121  10.804 -0.7222 -1.3477  1.8776
  100OSM    C12 9991   5.174   1.370  11.011 -0.6665 -0.1106 -0.4648
  100OSM   H12A 9992   5.174   1.295  11.088  1.6978  0.2624 -0.0203
  100OSM   H12B 9993   5.123   1.459  11.044 -0.3396  0.9165 -2.5145
  100OSM    C11 9994   5.322   1.410  10.972  0.4037  0.1345  0.1784
  100OSM   H11A 9995   5.351   1.446  11.073 -0.6770  0.9176  0.2241
  100OSM   H11B 9996   5.299   1.493  10.901 -1.1291  2.2226  2.9067
  100OSM      P 9997   5.556   1.336  10.889  0.1238  0.0703  0.6588
  100OSM    O13 9998   5.592   1.463  10.956  0.5074 -0.3240  1.0399
  100OSM    O14 9999   5.641   1.219  10.914 -0.1172 -0.3554  0.1293
  100OSM    O1110000   5.560   1.356  10.733 -0.0948  0.6860 -0.2904
  100OSM    O1210001   5.408   1.299  10.922  1.1793  0.0384  0.4313
  100OSM    C1S10002   5.477   1.265  10.654  0.6445 -0.1543 -0.1012
  100OSM    H1S10003   5.374   1.305  10.646  0.9629  0.5553 -0.8342
  100OSM    H1T10004   5.466   1.164  10.699  4.1895 -1.0622 -0.8909
  100OSM     NF10005   5.451   1.116  10.466  0.2413 -0.3045 -0.0776
  100OSM    HNF10006   5.494   1.028  10.483 -0.2385 -0.6628 -0.6519
  100OSM    C2S10007   5.516   1.240  10.505  0.9759 -0.1710  0.1796
  100OSM    H2S10008   5.469   1.316  10.439  2.0846 -0.1295 -0.5938
  100OSM    C3S10009   5.669   1.236  10.487 -0.5662 -0.2878  0.0688
  100OSM    H3S10010   5.709   1.163  10.560 -1.1631  0.6291  1.3449
  100OSM     O310011   5.727   1.362  10.523  0.2238 -0.1534  1.0165
  100OSM    HO310012   5.653   1.407  10.566 -2.9709 -2.1295 -1.9019
  100OSM    C4S10013   5.705   1.199  10.347 -0.3156  0.4890 -0.3303
  100OSM    H4S10014   5.665   1.262  10.266  0.5703 -0.6408 -1.7016
  100OSM    C5S10015   5.794   1.104  10.309 -0.5334 -0.0559 -0.2829
  100OSM    H5S10016   5.860   1.054  10.381 -2.5241  0.8789  2.3491
  100OSM    C6S10017   5.828   1.070  10.161 -0.2496  0.2993 -0.4338
  100OSM    H6S10018   5.754   1.118  10.093 -1.6886 -0.3921  0.5915
  100OSM    H6T10019   5.809   0.962  10.140  1.3837 -0.0797 -0.1355
  100OSM    C7S10020   5.977   1.098  10.104  0.7159 -0.2958  0.1028
  100OSM    H7S10021   6.042   1.044  10.176  1.4943  0.4076 -0.0649
  100OSM    H7T10022   5.997   1.205  10.126  0.6784 -0.4754  1.0693
  100OSM    C8S10023   6.010   1.060   9.962 -0.6833 -0.6429  0.3886
  100OSM    H8S10024   5.941   0.973   9.950  0.0420 -0.9392 -2.0576
  100OSM    H8T10025   6.115   1.027   9.947 -0.5939  0.2469 -1.1813
  100OSM    C9S10026   5.962   1.167   9.858 -0.3010  0.1486  0.3010
  100OSM    H9S10027   6.002   1.268   9.884  2.1970 -1.1488  1.8155
  100OSM    H9T10028   5.852   1.185   9.864 -0.6256 -1.0985 -1.3737
  100OSM   C10S10029   6.001   1.123   9.718 -0.3206  1.0895 -0.0436
  100OSM   H10S10030   5.945   1.029   9.699  1.6223  0.1414 -1.4819
  100OSM   H10T10031   6.110   1.098   9.718 -0.3301  1.0480  0.2433
  100OSM   C11S10032   5.954   1.224   9.610  0.1989  0.1344  0.1790
  100OSM   H11S10033   6.008   1.320   9.626  1.4929 -0.5527  0.1030
  100OSM   H11T10034   5.845   1.233   9.627 -0.2945  0.8026 -2.7467
  100OSM   C12S10035   5.980   1.166   9.466  0.3254  0.3326  0.0213
  100OSM   H12S10036   5.937   1.065   9.448 -0.7647  0.7922 -0.0399
  100OSM   H12T10037   6.091   1.167   9.460  0.3221 -0.3726 -0.2968
  100OSM   C13S10038   5.925   1.257   9.360  0.0531  0.2058  0.1586
  100OSM   H13S10039   5.949   1.363   9.380  0.2024  1.0059 -3.5052
  100OSM   H13T10040   5.814   1.252   9.366  0.1223  0.8329  3.5205
  100OSM   C14S10041   5.966   1.229   9.212  0.0345 -0.0402  0.4735
  100OSM   H14S10042   5.932   1.127   9.184 -0.7193  0.0296  1.0998
  100OSM   H14T10043   6.074   1.248   9.196  0.2718 -3.0177 -2.5796
  100OSM   C15S10044   5.890   1.325   9.119 -0.4676  0.7875  0.2649
  100OSM   H15S10045   5.944   1.422   9.124  0.2482  0.4745 -0.8530
  100OSM   H15T10046   5.786   1.340   9.154 -0.1533 -0.0695  1.6241
  100OSM   C16S10047   5.900   1.281   8.974  0.6309  0.3480  0.1714
  100OSM   H16S10048   5.852   1.182   8.961  2.8669 -0.7670 -0.0039
  100OSM   H16T10049   6.008   1.260   8.957  0.7432 -0.9231  2.1695
  100OSM   C17S10050   5.839   1.380   8.869 -0.9056  0.8280  0.5839
  100OSM   H17S10051   5.855   1.318   8.778 -0.7873  1.2346  0.3278
  100OSM   H17T10052   5.886   1.479   8.851  3.1201 -0.6994  1.5253
  100OSM   C18S10053   5.679   1.388   8.891 -0.4860  0.1073  0.5382
  100OSM   H18S10054   5.640   1.284   8.884  1.1429 -0.5999  1.3698
  100OSM   H18T10055   5.633   1.449   8.811  0.7002 -0.5497 -0.6960
  100OSM   H18U10056   5.666   1.426   8.994  1.0565 -1.1384  1.2507
  100OSM    C1F10057   5.313   1.113  10.451 -0.7797 -0.1575  0.3924
  100OSM     OF10058   5.240   1.211  10.461  0.5448 -1.0659 -0.6894
  100OSM    C2F10059   5.255   0.975  10.437 -0.3447 -0.1443  0.6850
  100OSM    H2F10060   5.182   0.951  10.518 -1.2274 -0.9222 -0.3192
  100OSM    H2G10061   5.343   0.907  10.442 -0.0753  0.2041  4.9747
  100OSM    C3F10062   5.169   0.948  10.304 -1.0075 -0.2250 -0.2991
  100OSM    H3F10063   5.101   1.034  10.292  1.5748  1.7178 -2.3630
  100OSM    H3G10064   5.118   0.849  10.304  1.9653 -2.0775 -3.9366
  100OSM    C4F10065   5.251   0.952  10.173  0.0752 -0.6573  0.3752
  100OSM    H4F10066   5.301   1.050  10.158  1.2483 -1.0409  1.5518
  100OSM    H4G10067   5.185   0.937  10.085  0.0177 -1.2736  0.5148
  100OSM    C5F10068   5.366   0.849  10.166  0.0201  0.3716  0.7933
  100OSM    H5F10069   5.332   0.744  10.170  3.1331 -0.7971 -0.2803
  100OSM    H5G10070   5.429   0.865  10.257 -1.7982 -0.2741  2.2282
  100OSM    C6F10071   5.464   0.875  10.051  0.5664 -0.0654  0.5229
  100OSM    H6F10072   5.554   0.815  10.074  1.3874  1.6489  2.0454
  100OSM    H6G10073   5.494   0.983  10.050 -1.4032  0.5275 -0.8502
  100OSM    C7F10074   5.405   0.836   9.912 -0.1834 -0.2446 -0.3671
  100OSM    H7F10075   5.320   0.904   9.889  1.6194  2.8015  1.2356
  100OSM    H7G10076   5.363   0.733   9.913 -0.4866 -0.1218 -0.3549
  100OSM    C8F10077   5.501   0.869   9.794 -0.1585  0.2586 -0.2005
  100OSM    H8F10078   5.454   0.817   9.707 -0.5430  0.6019 -0.2045
  100OSM    H8G10079   5.588   0.803   9.812 -1.2596 -1.4727 -0.9347
  100OSM    C9F10080   5.542   1.003   9.746  0.9464 -0.4191  0.4434
  100OSM    H9F10081   5.627   1.053   9.796  0.3008 -0.7982  1.9991
  100OSM   C10F10082   5.460   1.082   9.669  0.6086 -0.2599 -0.0537
  100OSM   H10F10083   5.501   1.180   9.640 -0.0016  0.6950  2.1358
  100OSM   C11F10084   5.322   1.047   9.623 -0.1644 -0.0602 -0.6914
  100OSM   H11F10085   5.251   1.127   9.652  1.4912  1.6936 -1.1943
  100OSM   H11G10086   5.287   0.953   9.670  1.3582  0.3802  1.4760
  100OSM   C12F10087   5.304   1.040   9.471  0.0519  0.2805 -0.1352
  100OSM   H12F10088   5.197   1.017   9.453 -0.0825  1.5359 -1.0032
  100OSM   H12G10089   5.360   0.956   9.425 -0.5522 -0.6150  0.7206
  100OSM   C13F10090   5.330   1.168   9.395  0.2316  0.1566  0.6747
  100OSM   H13F10091   5.352   1.250   9.466 -2.7278  1.2899  0.4254
  100OSM   H13G10092   5.238   1.209   9.350 -0.8484 -0.1752  2.4723
  100OSM   C14F10093   5.437   1.145   9.287 -0.2477  0.0786  0.0552
  100OSM   H14F10094   5.395   1.079   9.208 -3.2467 -1.1110  2.4400
  100OSM   H14G10095   5.529   1.101   9.330 -0.4830  0.4847  1.0021
  100OSM   C15F10096   5.478   1.274   9.215  0.0330 -0.4795 -0.2038
  100OSM   H15F10097   5.560   1.252   9.143  1.1203  3.2237 -0.3073
  100OSM   H15G10098   5.527   1.340   9.290 -0.9077  1.2926 -1.0736
  100OSM   C16F10099   5.358   1.363   9.167  0.1788  1.0518 -0.2008
  100OSM   H16F10100   5.398   1.438   9.096  0.1670  0.3038 -1.0088
  100OSM   H16G10101   5.314   1.414   9.255  0.0783 -2.1844  1.7692
  100OSM   C17F10102   5.246   1.295   9.079 -0.1134 -0.8744 -0.4671
  100OSM   H17F10103   5.174   1.240   9.144 -0.1906  0.2757  0.4621
  100OSM   H17G10104   5.299   1.218   9.019  0.0404  0.0327 -1.5363
  100OSM   C18F10105   5.173   1.397   8.990 -0.0400 -0.3136  0.3472
  100OSM   H18F10106   5.083   1.365   8.934 -1.0495  2.1056  0.4583
  100OSM   H18G10107   5.240   1.454   8.922  0.3848  0.5835  1.4844
  100OSM   H18H10108   5.120   1.468   9.056 -0.8177 -0.3052 -0.2639
  101OSM      N10109   2.230   0.217  11.105 -0.6302 -0.0626  0.1591
  101OSM    C1510110   2.136   0.333  11.141 -0.1503  0.3644 -0.1476
  101OSM   H15A10111   2.159   0.421  11.082 -2.7940 -0.0238 -1.9316
  101OSM   H15B10112   2.153   0.371  11.240  0.5223  0.2357 -0.2086
  101OSM   H15C10113   2.031   0.311  11.126  0.1295 -0.5544 -0.8347
  101OSM    C1410114   2.370   0.260  11.143 -0.1600  0.0316  0.3950
  101OSM   H14A10115   2.369   0.280  11.249  0.8998 -3.0975  1.1111
  101OSM   H14B10116   2.380   0.350  11.085 -1.3128  0.1394  0.3456
  101OSM   H14C10117   2.431   0.178  11.109 -2.0528 -0.9032 -0.9280
  101OSM    C1310118   2.182   0.099  11.189 -0.5811  0.1626  0.0861
  101OSM   H13A10119   2.185   0.132  11.292  1.3631  1.5215 -0.3538
  101OSM   H13B10120   2.252   0.017  11.191  1.8941  2.0121 -2.5650
  101OSM   H13C10121   2.079   0.082  11.163  0.1854 -1.0471 -2.4547
  101OSM    C1210122   2.224   0.199  10.954  0.5114  0.1968  0.2717
  101OSM   H12A10123   2.129   0.153  10.932  0.5101 -0.1671  0.9933
  101OSM   H12B10124   2.292   0.124  10.917  0.6327  0.5026 -0.1284
  101OSM    C1110125   2.244   0.324  10.862  0.8268 -0.3445  0.1750
  101OSM   H11A10126   2.154   0.387  10.880  4.0573  4.6147  0.8630
  101OSM   H11B10127   2.236   0.300  10.754  3.0303  1.8233 -0.5537
  101OSM      P10128   2.363   0.552  10.907 -0.0480  0.2508  0.0073
  101OSM    O1310129   2.251   0.583  11.001  0.2505  0.1916 -0.4143
  101OSM    O1410130   2.494   0.598  10.958 -0.7027  0.0653 -0.2093
  101OSM    O1110131   2.354   0.618  10.757  0.0426 -0.5493  0.2860
  101OSM    O1210132   2.367   0.397  10.898 -0.0560 -0.4924  0.2950
  101OSM    C1S10133   2.233   0.610  10.680  1.0826 -0.5044  0.2621
  101OSM    H1S10134   2.161   0.689  10.709  0.6479 -1.1356  0.9570
  101OSM    H1T10135   2.174   0.517  10.694 -0.7196  0.6012  0.2735
  101OSM     NF10136   2.116   0.591  10.469 -0.1353  0.5552 -0.0900
  101OSM    HNF10137   2.107   0.498  10.435  0.1046  0.2151  0.7432
  101OSM    C2S10138   2.250   0.616  10.522  0.3193  0.2421 -0.9575
  101OSM    H2S10139   2.286   0.719  10.499  1.5175  0.0103 -0.1965
  101OSM    C3S10140   2.358   0.515  10.473 -0.3263  0.0804  0.3297
  101OSM    H3S10141   2.349   0.412  10.513  2.8979  0.2031  1.6303
  101OSM     O310142   2.488   0.557  10.517  0.5144  0.0993  0.1677
  101OSM    HO310143   2.463   0.622  10.583  1.2886  0.4177  0.1465
  101OSM    C4S10144   2.363   0.500  10.324  0.2355 -0.5302 -0.2989
  101OSM    H4S10145   2.304   0.412  10.296 -0.7270 -0.2295  0.7509
  101OSM    C5S10146   2.438   0.577  10.232  0.3488  0.1256  0.9769
  101OSM    H5S10147   2.501   0.661  10.265 -0.1065  0.6600  0.5119
  101OSM    C6S10148   2.439   0.550  10.080 -0.2098  0.0567 -0.1579
  101OSM    H6S10149   2.545   0.563  10.051  1.1707 -1.4407  3.5164
  101OSM    H6T10150   2.383   0.626  10.022  0.3250 -0.8328 -1.8834
  101OSM    C7S10151   2.393   0.405  10.034 -0.2080 -0.5787  0.0409
  101OSM    H7S10152   2.287   0.405  10.066 -0.3361  1.0171 -0.3075
  101OSM    H7T10153   2.467   0.335  10.077  0.0428 -0.5140 -0.2762
  101OSM    C8S10154   2.406   0.375   9.882  0.3059 -0.4363 -0.0599
  101OSM    H8S10155   2.332   0.440   9.830  1.0066 -0.5011 -1.1881
  101OSM    H8T10156   2.376   0.269   9.870  1.7838 -0.8013 -0.7349
  101OSM    C9S10157   2.540   0.416   9.826  0.3361  0.0458 -0.0190
  101OSM    H9S10158   2.631   0.381   9.879 -0.0011  0.5175  0.9001
  101OSM    H9T10159   2.548   0.527   9.830  2.4278 -0.0868  1.0761
  101OSM   C10S10160   2.556   0.366   9.677 -0.6627  0.6986 -0.1325
  101OSM   H10S10161   2.562   0.256   9.662  0.3212  0.8070 -0.6383
  101OSM   H10T10162   2.659   0.401   9.652  0.7612 -2.4898  0.6505
  101OSM   C11S10163   2.466   0.423   9.564  0.5696 -0.3194 -0.0572
  101OSM   H11S10164   2.375   0.465   9.610  0.5677  1.0359 -1.2370
  101OSM   H11T10165   2.431   0.338   9.502 -0.1257  0.6737 -1.0605
  101OSM   C12S10166   2.529   0.532   9.481  1.1369 -0.4874 -0.1452
  101OSM   H12S10167   2.614   0.484   9.428  0.0206 -1.0695 -1.4607
  101OSM   H12T10168   2.568   0.606   9.555 -3.2078  1.9898  0.0122
  101OSM   C13S10169   2.440   0.613   9.386 -0.2260  0.3475 -0.1837
  101OSM   H13S10170   2.492   0.701   9.343 -2.4102  0.8952 -1.9017
  101OSM   H13T10171   2.355   0.656   9.444  1.9318  2.2012  1.8127
  101OSM   C14S10172   2.393   0.531   9.266  0.2101 -0.3079 -0.4434
  101OSM   H14S10173   2.306   0.571   9.210  1.2815  0.4131 -1.6416
  101OSM   H14T10174   2.368   0.426   9.291 -1.0516  0.1044  0.1039
  101OSM   C15S10175   2.500   0.520   9.157 -0.3375  0.4790  0.0538
  101OSM   H15S10176   2.603   0.501   9.192 -0.5805 -1.6759 -0.2401
  101OSM   H15T10177   2.498   0.618   9.106 -0.6086  0.1752 -0.5315
  101OSM   C16S10178   2.481   0.416   9.046  0.3248  0.3076  0.1602
  101OSM   H16S10179   2.394   0.452   8.988  0.8727 -1.0359 -1.5747
  101OSM   H16T10180   2.458   0.320   9.099 -0.8083  0.7607  0.5209
  101OSM   C17S10181   2.604   0.397   8.958  0.3207 -0.3409 -0.0574
  101OSM   H17S10182   2.686   0.350   9.016 -0.1437  0.6665  1.4720
  101OSM   H17T10183   2.640   0.502   8.949 -1.6697  0.3815 -0.1687
  101OSM   C18S10184   2.598   0.338   8.812  0.6517  0.3463 -0.2649
  101OSM   H18S10185   2.560   0.421   8.749 -1.1875 -0.3307 -0.1135
  101OSM   H18T10186   2.531   0.249   8.801 -1.3167  1.9034 -1.8873
  101OSM   H18U10187   2.696   0.310   8.769  1.3029 -0.2476  1.5282
  101OSM    C1F10188   2.015   0.676  10.467 -0.5548 -0.4530  0.3111
  101OSM     OF10189   2.025   0.778  10.534  0.0328 -0.2685  0.9018
  101OSM    C2F10190   1.897   0.640  10.383  0.5472  0.0486  0.2569
  101OSM    H2F10191   1.803   0.610  10.433 -0.9439 -1.2385 -3.0239
  101OSM    H2G10192   1.928   0.554  10.320  2.3090  0.6908  0.1696
  101OSM    C3F10193   1.859   0.748  10.281 -0.0791  0.3988  0.1851
  101OSM    H3F10194   1.831   0.841  10.335  0.9081 -1.1427  3.6388
  101OSM    H3G10195   1.770   0.714  10.223 -0.5425  2.9637 -0.7545
  101OSM    C4F10196   1.971   0.772  10.181  0.1909 -0.6269  0.2703
  101OSM    H4F10197   2.051   0.813  10.247 -0.6390 -0.7584  1.3940
  101OSM    H4G10198   1.946   0.862  10.121  1.7855 -0.5826 -0.3789
  101OSM    C5F10199   2.005   0.662  10.080  0.3937 -0.5539 -0.0913
  101OSM    H5F10200   2.002   0.554  10.108 -1.2012 -1.6841 -3.8923
  101OSM    H5G10201   2.104   0.698  10.044  0.0334  0.4088 -0.1487
  101OSM    C6F10202   1.909   0.668   9.961  0.4287 -0.3707 -0.6647
  101OSM    H6F10203   1.808   0.640   9.999 -0.0042  0.6768 -0.9885
  101OSM    H6G10204   1.904   0.777   9.940  1.3569  0.1623  1.5669
  101OSM    C7F10205   1.956   0.579   9.851  0.4816 -0.2448 -0.3878
  101OSM    H7F10206   1.872   0.565   9.780 -1.3374  0.7131  1.4562
  101OSM    H7G10207   1.978   0.484   9.904 -2.6817  0.2378  2.0945
  101OSM    C8F10208   2.085   0.633   9.782 -0.0593 -0.1964  0.2088
  101OSM    H8F10209   2.165   0.663   9.852 -0.0143  1.7608 -0.5931
  101OSM    H8G10210   2.041   0.720   9.729 -4.4248 -1.7739  0.8280
  101OSM    C9F10211   2.105   0.526   9.672  0.5158  0.3228 -0.7292
  101OSM    H9F10212   2.166   0.439   9.700 -0.5014  0.2262  1.4137
  101OSM   C10F10213   2.047   0.525   9.551  0.4960  0.3975 -1.1250
  101OSM   H10F10214   2.063   0.439   9.484  0.1230 -0.7286  0.1735
  101OSM   C11F10215   1.957   0.629   9.487 -0.4161 -0.4105 -0.1049
  101OSM   H11F10216   1.952   0.732   9.529  0.6699 -0.8579  1.1812
  101OSM   H11G10217   1.851   0.599   9.499 -0.5967  0.5983  1.0087
  101OSM   C12F10218   1.994   0.650   9.332 -0.0917 -0.8875 -0.7421
  101OSM   H12F10219   1.964   0.557   9.279 -2.7799 -1.7408  2.0068
  101OSM   H12G10220   2.104   0.660   9.315 -0.2753 -0.0109 -1.4495
  101OSM   C13F10221   1.916   0.773   9.282  0.4539 -0.6731  1.1417
  101OSM   H13F10222   1.961   0.866   9.323 -0.6234 -0.6647  2.3662
  101OSM   H13G10223   1.813   0.764   9.321 -0.9761 -0.7123 -2.3390
  101OSM   C14F10224   1.919   0.779   9.129 -1.1645  0.5208 -0.4839
  101OSM   H14F10225   1.866   0.689   9.091  0.7238 -0.6733 -0.4205
  101OSM   H14G10226   2.021   0.753   9.092 -0.1865 -0.1480  2.3661
  101OSM   C15F10227   1.895   0.914   9.059 -0.1265 -0.2478  0.3680
  101OSM   H15F10228   1.965   0.992   9.097 -0.1592  0.3917 -0.8293
  101OSM   H15G10229   1.794   0.952   9.086 -0.2776 -0.1289 -0.3422
  101OSM   C16F10230   1.912   0.916   8.909  0.7878 -0.4285  0.1059
  101OSM   H16F10231   2.016   0.913   8.871  0.1998  1.7777 -1.8727
  101OSM   H16G10232   1.877   1.009   8.859  0.7588  0.1313  1.1428
  101OSM   C17F10233   1.836   0.800   8.838 -0.5124 -0.0913 -0.4971
  101OSM   H17F10234   1.740   0.783   8.891 -0.1797 -0.8880 -0.1364
  101OSM   H17G10235   1.893   0.705   8.830 -0.6642 -0.3429  1.0608
  101OSM   C18F10236   1.790   0.839   8.698 -0.2381 -0.1382 -0.4719
  101OSM   H18F10237   1.877   0.824   8.631  0.0330 -0.7327  0.0125
  101OSM   H18G10238   1.741   0.938   8.686 -1.6084 -0.5331  1.3965
  101OSM   H18H10239   1.707   0.771   8.669  0.3605 -1.3293  0.5082
  102OSM      N10240   4.916   3.149  11.044 -0.1658 -0.3659 -0.9304
  102OSM    C1510241   4.770   3.132  11.070 -0.5411  0.0104  0.1373
  102OSM   H15A10242   4.723   3.127  10.972  0.0740  0.0137 -0.1614
  102OSM   H15B10243   4.718   3.212  11.121  0.3412  0.9838 -0.4714
  102OSM   H15C10244   4.750   3.049  11.136 -0.9843  1.0437  1.3385
  102OSM    C1410245   4.975   3.206  11.167  0.0576 -0.9220  0.3134
  102OSM   H14A10246   5.079   3.228  11.152 -0.6211  2.2647 -0.4904
  102OSM   H14B10247   4.967   3.136  11.249  0.3329 -1.8125 -0.4019
  102OSM   H14C10248   4.927   3.298  11.198 -1.0849 -1.4713  0.2384
  102OSM    C1310249   4.977   3.024  11.022 -0.3979 -0.5908 -0.1205
  102OSM   H13A10250   5.081   3.030  10.994  0.0940  0.1136  1.7533
  102OSM   H13B10251   4.920   2.978  10.942 -1.7840 -0.2631  0.6469
  102OSM   H13C10252   4.974   2.964  11.111  1.9629 -0.4015  0.1451
  102OSM    C1210253   4.945   3.242  10.929  0.4078  0.0678  0.4105
  102OSM   H12A10254   5.052   3.235  10.914  0.3387 -0.1027 -0.0029
  102OSM   H12B10255   4.915   3.344  10.949  2.2419  0.2569  2.6184
  102OSM    C1110256   4.881   3.205  10.793  0.3200  0.4292 -0.3231
  102OSM   H11A10257   4.908   3.097  10.790 -2.3030 -0.3601  1.1089
  102OSM   H11B10258   4.930   3.269  10.717 -1.8720  3.3804  0.5858
  102OSM      P10259   4.654   3.135  10.696 -0.4410 -0.4863  0.3805
  102OSM    O1310260   4.665   3.006  10.763 -0.5741  0.1380  0.1466
  102OSM    O1410261   4.517   3.182  10.676  0.4438 -0.1297 -0.1796
  102OSM    O1110262   4.731   3.146  10.562 -0.4145  0.5505 -0.0465
  102OSM    O1210263   4.737   3.238  10.785  0.4240 -0.3818 -0.3144
  102OSM    C1S10264   4.752   3.264  10.490  1.1679 -1.1245 -0.5197
  102OSM    H1S10265   4.776   3.353  10.552 -1.3781 -0.6076 -0.1639
  102OSM    H1T10266   4.667   3.283  10.420  4.8531  0.3757 -5.0542
  102OSM     NF10267   4.874   3.355  10.295  0.4184 -0.2954 -0.4555
  102OSM    HNF10268   4.813   3.344  10.217 -1.8476  2.0298  0.8375
  102OSM    C2S10269   4.869   3.250  10.390  0.2671  0.0410  0.9583
  102OSM    H2S10270   4.962   3.256  10.451  0.3168 -1.2358  1.0265
  102OSM    C3S10271   4.863   3.120  10.311 -0.2665 -0.0465 -0.5890
  102OSM    H3S10272   4.768   3.121  10.252 -1.3899 -2.6220  1.0146
  102OSM     O310273   4.848   3.006  10.392 -0.0246 -0.4684  0.7404
  102OSM    HO310274   4.825   3.051  10.474  0.7290  1.5082 -0.0524
  102OSM    C4S10275   4.972   3.083  10.219  0.0970 -0.2596 -1.3963
  102OSM    H4S10276   5.069   3.092  10.270 -0.9582 -0.8442  0.8478
  102OSM    C5S10277   4.954   3.050  10.096 -0.0262  0.2320  0.4267
  102OSM    H5S10278   4.852   3.046  10.056 -0.7774  1.4928  2.0559
  102OSM    C6S10279   5.069   3.008  10.006 -0.1717  0.5064  0.1820
  102OSM    H6S10280   5.040   2.909   9.966  0.1731  0.6892 -0.5302
  102OSM    H6T10281   5.169   2.995  10.052  1.0880  1.1783 -2.2245
  102OSM    C7S10282   5.088   3.103   9.888  0.9699  0.0071  0.9225
  102OSM    H7S10283   5.124   3.205   9.915  1.0958  0.5911 -1.2842
  102OSM    H7T10284   4.996   3.121   9.829  1.7947 -1.0691 -0.7469
  102OSM    C8S10285   5.196   3.045   9.788 -0.4863  0.2040  0.4051
  102OSM    H8S10286   5.182   2.939   9.761 -0.2396 -0.2003  1.7508
  102OSM    H8T10287   5.288   3.038   9.851 -1.7148  0.1393  2.2946
  102OSM    C9S10288   5.217   3.146   9.666  0.1687  0.1017  0.4593
  102OSM    H9S10289   5.298   3.103   9.603  1.4403  1.1224  1.3555
  102OSM    H9T10290   5.251   3.248   9.693 -3.5450  1.5479  0.2151
  102OSM   C10S10291   5.085   3.162   9.591 -0.8536 -0.5067  0.1581
  102OSM   H10S10292   5.041   3.260   9.617 -1.6963 -0.5710 -0.9375
  102OSM   H10T10293   5.026   3.073   9.622  1.4407 -2.1136  0.1816
  102OSM   C11S10294   5.107   3.171   9.440  0.5264  0.0313 -0.3928
  102OSM   H11S10295   5.014   3.179   9.379  1.2372  3.0067 -1.2092
  102OSM   H11T10296   5.160   3.083   9.398  0.9265  1.0297 -2.0710
  102OSM   C12S10297   5.184   3.293   9.399  0.2730  0.1770 -0.0356
  102OSM   H12S10298   5.287   3.268   9.366  0.1360  1.5624 -1.6363
  102OSM   H12T10299   5.190   3.362   9.487  0.2768  1.5612 -1.0824
  102OSM   C13S10300   5.114   3.372   9.293  1.3378  0.4672  0.3315
  102OSM   H13S10301   5.183   3.459   9.288  1.3043  0.4277 -1.4390
  102OSM   H13T10302   5.014   3.403   9.329  0.6501 -0.7106 -0.5315
  102OSM   C14S10303   5.113   3.313   9.153 -0.2196  0.1237  0.1128
  102OSM   H14S10304   5.036   3.361   9.090 -0.0552  0.4603  0.1630
  102OSM   H14T10305   5.075   3.209   9.167 -0.6669  0.0777 -1.2634
  102OSM   C15S10306   5.251   3.313   9.085  0.6051 -0.8373  0.1134
  102OSM   H15S10307   5.325   3.255   9.144  2.0420 -0.8493 -1.6131
  102OSM   H15T10308   5.283   3.419   9.098  0.8715 -0.8778 -0.2026
  102OSM   C16S10309   5.255   3.258   8.949 -0.2096  0.3844 -0.0918
  102OSM   H16S10310   5.162   3.267   8.888  0.9322 -0.0185 -1.9541
  102OSM   H16T10311   5.274   3.151   8.971 -0.6267  1.0216  4.3925
  102OSM   C17S10312   5.373   3.299   8.862  0.6171 -0.0716 -0.2133
  102OSM   H17S10313   5.344   3.259   8.763 -0.7013 -0.3096  0.2497
  102OSM   H17T10314   5.463   3.240   8.892  3.1019  3.6445  0.2578
  102OSM   C18S10315   5.401   3.444   8.849  0.3742  0.0612 -0.1103
  102OSM   H18S10316   5.498   3.459   8.797 -0.8165 -0.6938 -2.7681
  102OSM   H18T10317   5.407   3.489   8.950 -1.9703  1.6267 -0.5711
  102OSM   H18U10318   5.321   3.497   8.793  0.2446  0.3778  0.3781
  102OSM    C1F10319   4.920   3.483  10.319 -0.4490 -0.5841  0.4162
  102OSM     OF10320   4.990   3.512  10.419 -0.0346  0.0679  0.0461
  102OSM    C2F10321   4.878   3.594  10.223 -0.1620  0.0397 -0.9608
  102OSM    H2F10322   4.778   3.634  10.251  0.0698  0.5597 -0.8528
  102OSM    H2G10323   4.877   3.551  10.121  0.5664  1.0479 -1.4085
  102OSM    C3F10324   4.990   3.705  10.216  0.3759 -0.4363 -0.1692
  102OSM    H3F10325   5.087   3.661  10.182  0.7614  0.4457 -0.2315
  102OSM    H3G10326   5.004   3.752  10.315  0.3576  2.7739 -1.5504
  102OSM    C4F10327   4.951   3.828  10.123  0.1507  0.0537 -0.2493
  102OSM    H4F10328   4.873   3.892  10.168  0.9991  0.1360  1.1816
  102OSM    H4G10329   4.904   3.777  10.036 -0.5960  0.0056  0.1809
  102OSM    C5F10330   5.073   3.919  10.090  0.5223  0.4930  0.5019
  102OSM    H5F10331   5.155   3.865  10.040 -1.0029 -1.4724  0.0021
  102OSM    H5G10332   5.123   3.950  10.184  0.4402 -1.1167  1.1065
  102OSM    C6F10333   5.035   4.054  10.017  0.5708  0.0645  0.7280
  102OSM    H6F10334   5.118   4.127  10.021  0.7605 -0.2164  3.6141
  102OSM    H6G10335   4.956   4.101  10.079 -2.2582 -1.1370 -1.7059
  102OSM    C7F10336   4.985   4.051   9.869 -0.6720  0.5027  0.0284
  102OSM    H7F10337   4.921   3.964   9.842 -0.9908  0.1984  1.6318
  102OSM    H7G10338   5.083   4.034   9.820  0.8982  0.4410  2.9408
  102OSM    C8F10339   4.911   4.180   9.825  0.1659  0.1002  0.5095
  102OSM    H8F10340   4.922   4.176   9.715  0.1667 -1.4146  0.5454
  102OSM    H8G10341   4.979   4.258   9.866  1.9537 -1.3521  0.4278
  102OSM    C9F10342   4.767   4.203   9.870 -0.1973 -0.5496  0.1270
  102OSM    H9F10343   4.755   4.216   9.978  2.3842  1.9435  0.2460
  102OSM   C10F10344   4.658   4.228   9.797  0.1140 -0.8743  0.3710
  102OSM   H10F10345   4.558   4.248   9.839  1.1516  1.3640  1.9558
  102OSM   C11F10346   4.654   4.207   9.647 -0.6278 -0.4805  0.3667
  102OSM   H11F10347   4.562   4.163   9.603 -0.8921 -1.1080  1.5058
  102OSM   H11G10348   4.735   4.145   9.604  0.0176  0.1004  0.7189
  102OSM   C12F10349   4.664   4.348   9.575  0.0087 -0.6291 -0.1992
  102OSM   H12F10350   4.759   4.400   9.599 -0.8907  1.0851 -0.2043
  102OSM   H12G10351   4.588   4.420   9.612 -2.0976 -3.1628  0.6728
  102OSM   C13F10352   4.646   4.346   9.421 -0.0934  0.8727 -0.1309
  102OSM   H13F10353   4.568   4.276   9.385 -0.6961  0.9477  0.9749
  102OSM   H13G10354   4.746   4.306   9.393 -0.6292 -1.7568  1.3852
  102OSM   C14F10355   4.634   4.478   9.352  0.9717 -0.4472  0.1407
  102OSM   H14F10356   4.697   4.554   9.403 -0.4761  0.1247  1.1646
  102OSM   H14G10357   4.530   4.510   9.377  0.9598 -1.7354  1.9459
  102OSM   C15F10358   4.661   4.458   9.202  0.2465 -0.3486 -0.1764
  102OSM   H15F10359   4.605   4.540   9.153  0.9855  0.0444 -0.3716
  102OSM   H15G10360   4.612   4.365   9.164 -0.4888  0.7874 -2.1488
  102OSM   C16F10361   4.807   4.452   9.160  0.1553 -0.8697  0.1794
  102OSM   H16F10362   4.870   4.383   9.220 -0.7909  0.3863  2.7632
  102OSM   H16G10363   4.853   4.553   9.158 -1.3028 -0.1854 -0.6780
  102OSM   C17F10364   4.831   4.400   9.018 -0.0302 -0.3472 -0.1460
  102OSM   H17F10365   4.772   4.306   9.007 -0.1703 -0.1045 -1.7047
  102OSM   H17G10366   4.938   4.377   9.004 -0.4773 -2.7086 -0.0912
  102OSM   C18F10367   4.773   4.496   8.910  0.1301  0.0901  0.7825
  102OSM   H18F10368   4.663   4.494   8.896 -0.4238  0.2416  4.1765
  102OSM   H18G10369   4.827   4.481   8.814 -0.2868 -0.4350  0.6240
  102OSM   H18H10370   4.797   4.597   8.950  1.3770 -0.4536  1.4758
  103OSM      N10371   2.148   4.472  11.259  0.8081 -0.3611 -0.2790
  103OSM    C1510372   2.070   4.595  11.288  0.3639  0.0986  0.3929
  103OSM   H15A10373   2.093   4.667  11.211 -1.9158 -0.3324 -0.7607
  103OSM   H15B10374   2.091   4.639  11.385  0.0887  1.3083 -0.0853
  103OSM   H15C10375   1.967   4.565  11.281 -0.2975  1.6704  2.3596
  103OSM    C1410376   2.126   4.369  11.362 -0.0686  1.4723 -0.3494
  103OSM   H14A10377   2.150   4.416  11.457  0.8528  3.2522 -1.4181
  103OSM   H14B10378   2.191   4.283  11.352  0.8627  2.1165 -0.0218
  103OSM   H14C10379   2.023   4.337  11.369  0.6682 -1.2288 -0.9296
  103OSM    C1310380   2.106   4.417  11.130 -0.2471  0.9544 -0.6065
  103OSM   H13A10381   2.170   4.333  11.112  0.8732  0.6614  3.6671
  103OSM   H13B10382   2.136   4.481  11.049  3.2743  0.6931  0.3260
  103OSM   H13C10383   2.001   4.389  11.128  0.2827 -1.2242 -0.2909
  103OSM    C1210384   2.293   4.518  11.263 -0.1372 -0.3131 -0.2652
  103OSM   H12A10385   2.356   4.431  11.275  0.9355  0.2957 -1.3050
  103OSM   H12B10386   2.308   4.594  11.339 -0.3793  1.7190 -2.1610
  103OSM    C1110387   2.347   4.589  11.134  0.6201 -0.9332  0.5136
  103OSM   H11A10388   2.331   4.519  11.049  1.6255 -1.0353  0.3981
  103OSM   H11B10389   2.457   4.593  11.145  0.4786 -2.5889  3.8844
  103OSM      P10390   2.358   4.848  11.118 -0.2399  0.2241 -0.3414
  103OSM    O1310391   2.265   4.955  11.085 -0.0113 -0.6613  0.2948
  103OSM    O1410392   2.431   4.863  11.243 -0.3676  0.6651 -0.1890
  103OSM    O1110393   2.454   4.834  11.000  0.3370 -0.1471 -0.2642
  103OSM    O1210394   2.273   4.714  11.118 -0.3371 -0.0147 -0.1809
  103OSM    C1S10395   2.405   4.803  10.874 -0.5004 -0.4673  0.1690
  103OSM    H1S10396   2.313   4.861  10.850  0.7243  0.7577 -1.9551
  103OSM    H1T10397   2.381   4.695  10.867  0.2527 -0.7554  1.6487
  103OSM     NF10398   2.438   4.859  10.637 -0.2177 -0.4573 -0.1158
  103OSM    HNF10399   2.448   4.787  10.569  0.9930  0.5530 -1.0606
  103OSM    C2S10400   2.510   4.839  10.768  0.5277 -0.2799 -0.5036
  103OSM    H2S10401   2.549   4.937  10.802  0.0254 -0.5193  0.8270
  103OSM    C3S10402   2.628   4.741  10.773 -0.1484  0.8274  0.3316
  103OSM    H3S10403   2.597   4.638  10.744  0.6034  0.5827  0.3641
  103OSM     O310404   2.685   4.712  10.895 -0.5188 -0.6193  0.4808
  103OSM    HO310405   2.626   4.743  10.965 -0.2417 -0.7921  0.7909
  103OSM    C4S10406   2.741   4.772  10.679  0.1417 -0.1403 -0.9055
  103OSM    H4S10407   2.786   4.868  10.709 -0.8053 -0.2157  0.9079
  103OSM    C5S10408   2.778   4.695  10.575 -0.3540  0.4895  0.0851
  103OSM    H5S10409   2.728   4.599  10.554 -0.9395  0.9845 -0.8238
  103OSM    C6S10410   2.885   4.714  10.475 -0.2314 -0.1219  0.2372
  103OSM    H6S10411   2.942   4.620  10.459 -0.3573 -0.1010 -0.3925
  103OSM    H6T10412   2.962   4.794  10.483  1.0870 -0.9724 -2.6338
  103OSM    C7S10413   2.824   4.748  10.332  0.3558 -0.0146 -0.3830
  103OSM    H7S10414   2.762   4.657  10.316  0.1195  0.3725 -1.7505
  103OSM    H7T10415   2.904   4.756  10.256 -0.1604 -2.4284 -1.2523
  103OSM    C8S10416   2.733   4.875  10.327  0.1659 -0.5500 -0.0102
  103OSM    H8S10417   2.788   4.961  10.371 -0.9849 -0.4383  1.2839
  103OSM    H8T10418   2.642   4.866  10.390  0.2768  1.5721  0.5357
  103OSM    C9S10419   2.703   4.911  10.184  0.0335 -0.2476 -0.0568
  103OSM    H9S10420   2.787   4.964  10.136 -0.8795  1.9933  0.7017
  103OSM    H9T10421   2.622   4.986  10.198  0.2649  0.1770 -0.9402
  103OSM   C10S10422   2.652   4.804  10.096 -0.5328  0.3265 -0.1516
  103OSM   H10S10423   2.547   4.784  10.125 -0.9380 -0.0679 -1.7905
  103OSM   H10T10424   2.702   4.705  10.103  2.2011  1.6334  0.2941
  103OSM   C11S10425   2.652   4.843   9.948 -0.6369 -0.2105  0.3012
  103OSM   H11S10426   2.755   4.879   9.927 -0.5033 -1.7091 -1.9259
  103OSM   H11T10427   2.579   4.926   9.934  1.1055  1.2770 -0.3170
  103OSM   C12S10428   2.620   4.725   9.855 -0.9031 -0.2420  0.0279
  103OSM   H12S10429   2.542   4.660   9.899 -0.9559  0.2672  0.7129
  103OSM   H12T10430   2.713   4.664   9.846  0.4415  1.4398  1.5987
  103OSM   C13S10431   2.575   4.778   9.711  0.4535 -0.6116 -1.3948
  103OSM   H13S10432   2.485   4.842   9.721  0.9899 -0.2848  3.3129
  103OSM   H13T10433   2.551   4.692   9.644  0.6479  0.2015 -2.5484
  103OSM   C14S10434   2.690   4.840   9.642 -0.0352 -0.3289  0.1322
  103OSM   H14S10435   2.765   4.760   9.627  0.9160  0.4479  0.6661
  103OSM   H14T10436   2.731   4.913   9.715 -0.4914 -1.1647  1.2511
  103OSM   C15S10437   2.642   4.916   9.517  0.9813  0.3396 -0.8476
  103OSM   H15S10438   2.735   4.960   9.474  0.6781 -0.4763 -2.4400
  103OSM   H15T10439   2.573   4.997   9.548  0.9622  0.1845 -0.4834
  103OSM   C16S10440   2.570   4.830   9.415  0.0202  0.2035 -1.1028
  103OSM   H16S10441   2.478   4.779   9.450 -1.1847  0.2930 -3.8780
  103OSM   H16T10442   2.638   4.747   9.387 -0.9037 -1.4560  1.2454
  103OSM   C17S10443   2.542   4.913   9.286 -0.5932  0.0431  0.3466
  103OSM   H17S10444   2.631   4.968   9.247 -0.9567  0.1864 -0.2980
  103OSM   H17T10445   2.469   4.994   9.307 -1.0176 -0.6082  1.4533
  103OSM   C18S10446   2.486   4.837   9.165  0.2950 -0.3051  0.2920
  103OSM   H18S10447   2.543   4.749   9.128 -0.8117 -1.8647  2.1046
  103OSM   H18T10448   2.491   4.906   9.078 -0.1564 -1.8214 -0.9682
  103OSM   H18U10449   2.378   4.814   9.177  0.3758  0.5412  3.9187
  103OSM    C1F10450   2.353   4.965  10.625 -0.7526  0.0450  0.5820
  103OSM     OF10451   2.370   5.061  10.698  0.1944 -0.1757  0.5096
  103OSM    C2F10452   2.246   4.965  10.519 -0.1772 -0.6149 -0.3360
  103OSM    H2F10453   2.174   5.043  10.552  1.9548 -0.3077  4.3149
  103OSM    H2G10454   2.198   4.865  10.527  1.9722 -1.8626 -2.0475
  103OSM    C3F10455   2.303   4.991  10.377  0.4843  0.0165  0.2462
  103OSM    H3F10456   2.381   4.915  10.356  1.8539  1.2512  0.7279
  103OSM    H3G10457   2.361   5.085  10.381 -0.9000  1.0257 -1.6225
  103OSM    C4F10458   2.203   5.008  10.265  0.1392 -0.1083 -0.1441
  103OSM    H4F10459   2.145   5.102  10.273  0.0401 -0.2146  0.4475
  103OSM    H4G10460   2.133   4.923  10.248  0.8891 -0.5336 -1.1374
  103OSM    C5F10461   2.282   5.029  10.132 -0.5614 -0.0822  0.2298
  103OSM    H5F10462   2.309   4.928  10.095 -1.2380 -0.3790  0.5165
  103OSM    H5G10463   2.367   5.100  10.139 -1.4666  0.8602  2.7482
  103OSM    C6F10464   2.180   5.079  10.021 -0.2982  0.2593 -0.8481
  103OSM    H6F10465   2.155   5.187  10.020 -1.6549 -0.0082  0.5048
  103OSM    H6G10466   2.084   5.031  10.048  0.3710 -0.2696  0.6828
  103OSM    C7F10467   2.242   5.055   9.885  0.5089  0.1257  0.4526
  103OSM    H7F10468   2.275   4.949   9.883 -0.4137 -0.1791  0.6819
  103OSM    H7G10469   2.335   5.114   9.871  0.3756 -0.2745 -3.0600
  103OSM    C8F10470   2.142   5.080   9.772  1.0479  0.3014 -0.3560
  103OSM    H8F10471   2.109   5.184   9.791  1.5905  0.7355 -1.6731
  103OSM    H8G10472   2.050   5.018   9.787 -0.6470  3.0044  1.1108
  103OSM    C9F10473   2.201   5.070   9.639  0.1982  1.0050 -0.3130
  103OSM    H9F10474   2.310   5.081   9.635  0.4388  0.8214  2.8789
  103OSM   C10F10475   2.132   5.054   9.527 -0.5934  0.0841  0.3822
  103OSM   H10F10476   2.181   5.043   9.429 -1.6022  0.3289 -0.1635
  103OSM   C11F10477   1.988   5.040   9.509 -0.2461  0.4646 -0.4507
  103OSM   H11F10478   1.931   5.047   9.604  3.2087  2.1979  1.6839
  103OSM   H11G10479   1.958   4.944   9.461 -0.8640  1.0103 -1.1746
  103OSM   C12F10480   1.933   5.138   9.402 -0.0325  0.0361 -0.4241
  103OSM   H12F10481   1.954   5.238   9.446 -1.4519 -0.5501  1.7117
  103OSM   H12G10482   1.822   5.141   9.397  0.0155  2.2148 -1.5814
  103OSM   C13F10483   1.963   5.124   9.254 -1.1576 -0.0579  0.0293
  103OSM   H13F10484   1.950   5.021   9.215 -2.3142  0.5465 -1.2553
  103OSM   H13G10485   2.068   5.158   9.240 -0.5810 -1.4008  0.8500
  103OSM   C14F10486   1.859   5.213   9.178  0.2514  0.2467  0.0213
  103OSM   H14F10487   1.840   5.305   9.237  0.9137 -0.0276  0.6761
  103OSM   H14G10488   1.763   5.161   9.157  0.0995  0.9384 -1.0794
  103OSM   C15F10489   1.912   5.255   9.037 -0.2406 -0.3819 -1.0067
  103OSM   H15F10490   2.017   5.289   9.046  0.2204 -1.7686 -0.8853
  103OSM   H15G10491   1.858   5.342   8.994  0.5592  1.4540  1.4897
  103OSM   C16F10492   1.897   5.151   8.930 -0.3534  0.5763  0.3477
  103OSM   H16F10493   1.792   5.149   8.896  0.3237 -0.8578 -1.8710
  103OSM   H16G10494   1.921   5.049   8.969 -0.1260  0.6207  0.3263
  103OSM   C17F10495   1.981   5.190   8.806 -0.7037  0.1374  0.0014
  103OSM   H17F10496   2.087   5.216   8.825 -0.5225 -0.3695 -0.2886
  103OSM   H17G10497   1.941   5.288   8.774 -1.3837  0.5378  1.9205
  103OSM   C18F10498   1.982   5.087   8.691  0.0434  0.0508 -0.1808
  103OSM   H18F10499   2.035   4.996   8.727  0.1899  0.0526 -0.3855
  103OSM   H18G10500   2.042   5.116   8.601  1.7928  0.8005  1.1749
  103OSM   H18H10501   1.880   5.066   8.653 -0.9397  2.4982  0.9093
  104OSM      N10502   5.503   0.458  10.841 -0.6901 -0.2877  0.0700
  104OSM    C1510503   5.501   0.358  10.948 -0.4362  0.8292 -0.2343
  104OSM   H15A10504   5.443   0.267  10.938 -2.4106  1.6726  2.5372
  104OSM   H15B10505   5.476   0.397  11.045 -0.9100 -0.0104 -0.0019
  104OSM   H15C10506   5.601   0.319  10.959 -0.2980  1.5823  1.4584
  104OSM    C1410507   5.504   0.394  10.709 -0.3022 -0.3062 -0.4094
  104OSM   H14A10508   5.602   0.350  10.694 -1.2604 -3.2222  1.1962
  104OSM   H14B10509   5.486   0.469  10.633 -0.0744 -0.7107 -0.8711
  104OSM   H14C10510   5.434   0.313  10.699 -0.2731 -0.2515 -1.0806
  104OSM    C1310511   5.385   0.541  10.848 -0.3727  0.1248 -0.2446
  104OSM   H13A10512   5.296   0.480  10.862 -0.1046 -0.2462 -0.1308
  104OSM   H13B10513   5.371   0.613  10.769  1.6492 -0.4046 -1.1427
  104OSM   H13C10514   5.394   0.600  10.938 -4.2580  0.8984 -0.1834
  104OSM    C1210515   5.614   0.555  10.857  0.4977  0.1894  0.0491
  104OSM   H12A10516   5.603   0.603  10.954  1.5830 -0.5447  0.5490
  104OSM   H12B10517   5.606   0.639  10.789 -0.0914  1.3820  1.5209
  104OSM    C1110518   5.758   0.488  10.852  0.4540 -0.3500 -0.1450
  104OSM   H11A10519   5.827   0.575  10.854  0.4025 -0.2982 -0.4998
  104OSM   H11B10520   5.763   0.440  10.752 -3.1001  1.5984 -1.4718
  104OSM      P10521   5.873   0.285  10.947  0.0027 -0.2380  0.0055
  104OSM    O1310522   6.011   0.322  10.988  0.5838  0.3555 -0.5742
  104OSM    O1410523   5.807   0.188  11.038 -0.6809 -0.1400  0.3654
  104OSM    O1110524   5.862   0.244  10.794  0.1958  0.4472 -0.2113
  104OSM    O1210525   5.775   0.407  10.965  0.2431  0.3395  0.3966
  104OSM    C1S10526   5.885   0.107  10.756  0.4290  0.2276 -0.8148
  104OSM    H1S10527   5.825   0.036  10.818 -0.7772  1.2610 -0.7669
  104OSM    H1T10528   5.991   0.074  10.768  0.5115  0.2374 -1.4488
  104OSM     NF10529   5.857  -0.060  10.568  0.2365  0.7561 -0.1529
  104OSM    HNF10530   5.922  -0.092  10.499 -1.3086 -0.2296 -1.2099
  104OSM    C2S10531   5.855   0.083  10.604  0.0168  1.0916 -0.3393
  104OSM    H2S10532   5.751   0.117  10.582 -0.3952 -0.3511 -0.7154
  104OSM    C3S10533   5.949   0.163  10.514 -0.2778 -0.7077  0.4375
  104OSM    H3S10534   6.047   0.112  10.511 -0.4380 -1.4030  3.4373
  104OSM     O310535   5.990   0.293  10.557  0.4744  0.1807 -0.6206
  104OSM    HO310536   5.934   0.311  10.633  1.8498 -0.9862  0.7292
  104OSM    C4S10537   5.880   0.175  10.372 -0.4996 -0.2217  0.0813
  104OSM    H4S10538   5.791   0.240  10.374 -0.9829 -0.8264  2.9281
  104OSM    C5S10539   5.920   0.127  10.258 -0.0584  0.0859 -0.7419
  104OSM    H5S10540   6.006   0.060  10.243  1.6904  1.6940  1.3626
  104OSM    C6S10541   5.842   0.157  10.137  0.7180 -0.0553  0.3882
  104OSM    H6S10542   5.779   0.246  10.159 -1.9179 -2.1385  1.8292
  104OSM    H6T10543   5.768   0.076  10.120  1.6602 -0.5524 -1.7592
  104OSM    C7S10544   5.925   0.185  10.012  0.9021  0.9442  0.6881
  104OSM    H7S10545   5.976   0.284  10.018 -0.6345  1.8871 -0.7528
  104OSM    H7T10546   5.843   0.205   9.940 -1.2800 -0.9515  2.5237
  104OSM    C8S10547   6.003   0.059   9.963  0.6173 -0.2032 -0.2860
  104OSM    H8S10548   5.926  -0.021   9.957  1.1380 -0.7447  0.2094
  104OSM    H8T10549   6.084   0.037  10.035 -1.1084 -1.3606  1.4188
  104OSM    C9S10550   6.056   0.081   9.826  0.0181 -0.5254  0.2036
  104OSM    H9S10551   6.161   0.115   9.840  0.6873 -2.7487  0.9656
  104OSM    H9T10552   5.998   0.159   9.772 -0.1469 -0.7477  0.0605
  104OSM   C10S10553   6.063  -0.042   9.733 -0.4352 -0.6331 -0.0226
  104OSM   H10S10554   5.970  -0.103   9.740 -1.8733  1.1825 -1.8801
  104OSM   H10T10555   6.152  -0.105   9.757  1.1537  0.3151 -2.9400
  104OSM   C11S10556   6.082   0.008   9.589  0.5813 -0.0416  0.0754
  104OSM   H11S10557   6.174   0.071   9.599  0.5908 -0.0759  0.2106
  104OSM   H11T10558   5.991   0.069   9.570 -0.2515 -0.9299  1.1236
  104OSM   C12S10559   6.102  -0.105   9.496 -0.2234  0.1202  0.6889
  104OSM   H12S10560   6.006  -0.157   9.476 -0.3530  1.0387 -1.1857
  104OSM   H12T10561   6.178  -0.172   9.542 -0.1159  0.7877  1.5122
  104OSM   C13S10562   6.146  -0.064   9.353  0.0614  0.1572  0.6329
  104OSM   H13S10563   6.234   0.000   9.377 -0.4859  0.4561  1.9129
  104OSM   H13T10564   6.072   0.004   9.306 -0.1178  0.3038  1.1189
  104OSM   C14S10565   6.177  -0.190   9.266 -0.2450 -0.3452 -0.0470
  104OSM   H14S10566   6.096  -0.262   9.291  0.8695 -1.1947  1.2961
  104OSM   H14T10567   6.267  -0.235   9.313 -0.7947 -0.8226  0.5654
  104OSM   C15S10568   6.191  -0.164   9.119 -0.2899  0.0366 -0.4744
  104OSM   H15S10569   6.267  -0.084   9.110  1.3579 -1.4583 -0.4398
  104OSM   H15T10570   6.101  -0.115   9.076 -0.3810  2.1397  1.9160
  104OSM   C16S10571   6.232  -0.295   9.051  0.3612  0.5926  0.2484
  104OSM   H16S10572   6.143  -0.361   9.056  0.3182  0.6174 -0.2037
  104OSM   H16T10573   6.316  -0.341   9.108 -1.2214 -0.5753  1.7771
  104OSM   C17S10574   6.266  -0.266   8.906  0.0774 -0.2868  0.2675
  104OSM   H17S10575   6.201  -0.190   8.858  0.6846 -0.0903 -0.2420
  104OSM   H17T10576   6.258  -0.356   8.841 -2.4576 -0.2091  0.3592
  104OSM   C18S10577   6.410  -0.209   8.887 -0.7939  0.2146 -0.3371
  104OSM   H18S10578   6.476  -0.289   8.927 -2.6884 -0.3555  1.9076
  104OSM   H18T10579   6.419  -0.118   8.950  2.4023 -1.2056  1.5131
  104OSM   H18U10580   6.434  -0.188   8.781 -0.6999 -0.9053 -0.5508
  104OSM    C1F10581   5.773  -0.152  10.616 -0.5940  0.2834 -0.3177
  104OSM     OF10582   5.690  -0.125  10.707 -0.5590  0.1860 -0.1474
  104OSM    C2F10583   5.780  -0.291  10.561 -0.3552  0.3111  0.6585
  104OSM    H2F10584   5.831  -0.345  10.644 -0.2731  0.9367  1.0177
  104OSM    H2G10585   5.845  -0.293  10.470  0.8735  1.0903  1.4910
  104OSM    C3F10586   5.645  -0.351  10.523  0.9429  1.2036  0.4059
  104OSM    H3F10587   5.550  -0.295  10.539 -0.6928 -0.5162 -2.3054
  104OSM    H3G10588   5.629  -0.443  10.583  0.8723  2.3833  2.2866
  104OSM    C4F10589   5.638  -0.399  10.374  0.3083  0.0494 -0.2990
  104OSM    H4F10590   5.741  -0.434  10.351 -0.4383 -2.7091  0.2352
  104OSM    H4G10591   5.607  -0.313  10.311  0.1724  0.0376 -0.2488
  104OSM    C5F10592   5.531  -0.507  10.346 -0.4150  0.3033  0.5308
  104OSM    H5F10593   5.436  -0.466  10.385 -0.0804  1.7937 -0.1647
  104OSM    H5G10594   5.556  -0.598  10.405 -0.9467 -0.6456 -0.6486
  104OSM    C6F10595   5.527  -0.557  10.200 -0.3565  0.5001  0.0225
  104OSM    H6F10596   5.465  -0.650  10.194 -0.3789  0.5706 -1.0018
  104OSM    H6G10597   5.629  -0.592  10.172 -0.4530  0.4064 -0.2184
  104OSM    C7F10598   5.454  -0.459  10.106  0.1631 -0.3679 -0.7918
  104OSM    H7F10599   5.442  -0.508  10.007 -1.4685 -1.4594 -0.0966
  104OSM    H7G10600   5.509  -0.363  10.092 -1.2550  0.6121  0.0228
  104OSM    C8F10601   5.306  -0.448  10.137  0.5700 -0.2201 -0.1694
  104OSM    H8F10602   5.297  -0.424  10.244 -0.3856 -0.9736 -0.0688
  104OSM    H8G10603   5.249  -0.543  10.130 -0.7814  0.6922 -3.4497
  104OSM    C9F10604   5.252  -0.347  10.041  0.0158  0.9022  0.3661
  104OSM    H9F10605   5.219  -0.254  10.089 -0.0756  1.4826 -0.7919
  104OSM   C10F10606   5.203  -0.374   9.920  0.7379 -0.2385 -0.3306
  104OSM   H10F10607   5.179  -0.296   9.847 -3.8252 -1.7477 -0.7842
  104OSM   C11F10608   5.195  -0.515   9.855 -0.2160  0.0344 -0.5360
  104OSM   H11F10609   5.098  -0.533   9.803 -0.2589 -2.8401  0.3621
  104OSM   H11G10610   5.197  -0.592   9.935  0.0174  1.5490  0.9519
  104OSM   C12F10611   5.306  -0.556   9.750  0.3471 -0.5707 -0.4827
  104OSM   H12F10612   5.326  -0.665   9.759 -0.8429 -0.6983  1.0702
  104OSM   H12G10613   5.401  -0.507   9.782  0.1563  1.9492 -3.3792
  104OSM   C13F10614   5.269  -0.510   9.609  0.1836  0.0576 -0.1581
  104OSM   H13F10615   5.231  -0.406   9.614 -0.0079 -0.0734  1.8481
  104OSM   H13G10616   5.196  -0.576   9.556  2.4154 -1.7616 -1.1586
  104OSM   C14F10617   5.386  -0.507   9.513  0.2734 -0.3042 -1.0677
  104OSM   H14F10618   5.433  -0.607   9.523  1.0572  0.2755  2.1747
  104OSM   H14G10619   5.464  -0.438   9.552  0.0536  0.0568 -1.2643
  104OSM   C15F10620   5.352  -0.497   9.365  0.0510  0.5485 -0.1381
  104OSM   H15F10621   5.271  -0.570   9.344  0.5568  0.7386 -3.0612
  104OSM   H15G10622   5.445  -0.530   9.314  0.7640  0.9273  0.8709
  104OSM   C16F10623   5.307  -0.361   9.305  0.3525 -0.0882 -0.3759
  104OSM   H16F10624   5.393  -0.294   9.328  0.4497 -0.0131 -0.9371
  104OSM   H16G10625   5.213  -0.318   9.347  0.9966  1.3899 -0.3965
  104OSM   C17F10626   5.299  -0.379   9.152 -0.2759 -0.2917  0.8639
  104OSM   H17F10627   5.221  -0.457   9.135 -0.8783  0.3168  0.8186
  104OSM   H17G10628   5.389  -0.429   9.110  0.7732  0.6383  1.9504
  104OSM   C18F10629   5.269  -0.242   9.083  0.0623  0.6714  0.2878
  104OSM   H18F10630   5.328  -0.153   9.111 -1.2056  1.5930  0.1129
  104OSM   H18G10631   5.168  -0.221   9.122 -0.6143 -2.6940  0.6355
  104OSM   H18H10632   5.267  -0.264   8.974 -1.7538 -0.7099  0.5450
  105OSM      N10633   1.754   1.645  10.590 -0.4970  0.9715  0.2539
  105OSM    C1510634   1.749   1.791  10.608  0.5245 -0.4062 -0.1396
  105OSM   H15A10635   1.851   1.823  10.622  0.7471 -0.7757 -0.8977
  105OSM   H15B10636   1.698   1.826  10.697  1.2208  1.0802 -0.2973
  105OSM   H15C10637   1.709   1.842  10.521  0.1844 -0.9687 -0.3182
  105OSM    C1410638   1.772   1.620  10.445 -0.0597 -0.6674  0.0356
  105OSM   H14A10639   1.774   1.515  10.417 -0.6235 -0.1940 -1.9288
  105OSM   H14B10640   1.867   1.669  10.428 -0.8175  1.2034  0.9185
  105OSM   H14C10641   1.700   1.671  10.384 -0.1319  0.9422  1.3734
  105OSM    C1310642   1.876   1.587  10.661  1.0609  0.3405 -1.1408
  105OSM   H13A10643   1.870   1.614  10.765 -2.0625  0.5763 -1.2900
  105OSM   H13B10644   1.968   1.627  10.621  0.3560  2.0216 -1.1670
  105OSM   H13C10645   1.881   1.479  10.654 -2.6355 -0.2509  1.8775
  105OSM    C1210646   1.623   1.581  10.623 -1.0543 -0.0596  0.0708
  105OSM   H12A10647   1.635   1.474  10.622 -0.2320  0.0259 -0.4268
  105OSM   H12B10648   1.556   1.603  10.540 -1.6876  2.5924  1.1620
  105OSM    C1110649   1.554   1.632  10.751  0.2324 -0.2567 -1.1328
  105OSM   H11A10650   1.623   1.672  10.829 -2.7564  0.6269  1.2614
  105OSM   H11B10651   1.509   1.551  10.812  2.0067  0.2522  0.9865
  105OSM      P10652   1.312   1.682  10.672  0.1762 -0.0396 -0.2696
  105OSM    O1310653   1.344   1.580  10.572 -0.0173  0.1289 -0.1492
  105OSM    O1410654   1.231   1.647  10.788  0.1402 -0.1780 -0.7287
  105OSM    O1110655   1.260   1.815  10.594  0.2113 -1.1713 -0.0937
  105OSM    O1210656   1.449   1.731  10.722  0.3066 -0.4757  0.4187
  105OSM    C1S10657   1.339   1.889  10.506 -0.3358  0.6002  0.2984
  105OSM    H1S10658   1.444   1.869  10.538 -1.1408 -4.2488  0.7207
  105OSM    H1T10659   1.321   1.998  10.518  0.4756  0.7252  0.4721
  105OSM     NF10660   1.413   1.936  10.275  0.4049 -0.3483 -0.4601
  105OSM    HNF10661   1.388   2.021  10.229 -0.4219 -0.6810 -0.6515
  105OSM    C2S10662   1.316   1.866  10.358  0.1001  0.0717 -0.2152
  105OSM    H2S10663   1.326   1.760  10.326 -1.4768 -0.1861  0.0554
  105OSM    C3S10664   1.167   1.911  10.323  0.3056  0.1682  0.3467
  105OSM    H3S10665   1.160   2.020  10.340 -0.0433  0.7595 -2.8712
  105OSM     O310666   1.063   1.856  10.400 -0.4768  0.3508  0.2737
  105OSM    HO310667   1.112   1.797  10.458  0.8858  0.4266 -0.7784
  105OSM    C4S10668   1.148   1.886  10.177  0.1948 -0.7349  0.0312
  105OSM    H4S10669   1.197   1.788  10.161  2.5604  0.0009  1.9990
  105OSM    C5S10670   1.115   1.959  10.071  0.6732 -0.1536  0.6603
  105OSM    H5S10671   1.092   2.066  10.081 -0.2363 -0.0705 -1.7654
  105OSM    C6S10672   1.124   1.904   9.933 -0.0243  0.1997 -0.3370
  105OSM    H6S10673   1.019   1.882   9.902 -0.6568 -1.6291  2.6779
  105OSM    H6T10674   1.172   1.804   9.942  1.0718  0.8334  1.0150
  105OSM    C7S10675   1.191   2.007   9.847  0.1734  0.3431 -0.4142
  105OSM    H7S10676   1.283   2.057   9.885  0.8016 -0.5787 -0.6937
  105OSM    H7T10677   1.112   2.084   9.830  0.1488  0.4509  0.1606
  105OSM    C8S10678   1.234   1.945   9.718  0.1459 -0.5977  0.2134
  105OSM    H8S10679   1.326   1.883   9.719  0.1068 -0.6696  2.3717
  105OSM    H8T10680   1.274   2.027   9.654  1.2451 -0.0602  1.5413
  105OSM    C9S10681   1.127   1.880   9.632  0.6435 -0.2716  0.0552
  105OSM    H9S10682   1.032   1.937   9.624  2.0265  2.2672  0.6259
  105OSM    H9T10683   1.107   1.777   9.667 -0.4152 -0.1024 -0.0095
  105OSM   C10S10684   1.176   1.879   9.487  0.4377  0.0129  0.6385
  105OSM   H10S10685   1.284   1.852   9.483  1.0621  2.4562 -1.7353
  105OSM   H10T10686   1.151   1.975   9.437  0.2097  1.1661  2.8325
  105OSM   C11S10687   1.090   1.772   9.403 -0.1126 -0.4008 -1.2397
  105OSM   H11S10688   0.981   1.794   9.397 -0.1049 -0.2337 -0.7740
  105OSM   H11T10689   1.084   1.682   9.468 -1.4685  0.3155 -0.3311
  105OSM   C12S10690   1.142   1.738   9.261  0.1487 -0.0555 -1.2477
  105OSM   H12S10691   1.246   1.702   9.269  0.2582  0.6445  1.7626
  105OSM   H12T10692   1.142   1.827   9.194  0.0030  0.4078 -0.6366
  105OSM   C13S10693   1.060   1.629   9.196 -0.3946 -0.2342 -0.0850
  105OSM   H13S10694   0.954   1.655   9.215  0.2283  2.0945  0.5479
  105OSM   H13T10695   1.097   1.539   9.248  0.6135  0.4667  0.4517
  105OSM   C14S10696   1.080   1.604   9.036  0.1397 -0.4166 -0.7331
  105OSM   H14S10697   1.189   1.591   9.020  0.5805 -0.1877  1.7177
  105OSM   H14T10698   1.051   1.696   8.981 -0.3789  0.3706  0.8082
  105OSM   C15S10699   1.024   1.465   9.005  0.1657  0.2676  0.0067
  105OSM   H15S10700   0.913   1.475   9.009  0.0264  1.8520 -3.7885
  105OSM   H15T10701   1.047   1.396   9.089  2.4595 -1.5364 -1.9394
  105OSM   C16S10702   1.069   1.402   8.873 -0.2426  0.0912 -0.6349
  105OSM   H16S10703   1.005   1.313   8.855 -0.7149 -0.2341  2.1198
  105OSM   H16T10704   1.174   1.367   8.880 -0.0649  0.6978 -0.1196
  105OSM   C17S10705   1.084   1.493   8.750 -0.3613  0.0020 -0.1296
  105OSM   H17S10706   1.136   1.587   8.774 -2.1723  1.0895 -0.2534
  105OSM   H17T10707   0.980   1.520   8.720  0.3193  2.8267 -0.1540
  105OSM   C18S10708   1.142   1.416   8.627  0.1282 -0.4040 -1.0795
  105OSM   H18S10709   1.252   1.401   8.625  0.0647 -0.8694 -1.1209
  105OSM   H18T10710   1.126   1.473   8.533  0.9479  1.2048 -0.2934
  105OSM   H18U10711   1.098   1.316   8.610 -0.1028 -0.3638 -0.7260
  105OSM    C1F10712   1.540   1.910  10.293  0.3793 -0.3001  0.4246
  105OSM     OF10713   1.569   1.808  10.346 -0.3535 -0.0036 -0.3564
  105OSM    C2F10714   1.644   2.017  10.247 -0.6132 -0.1528 -0.4396
  105OSM    H2F10715   1.722   2.023  10.326 -0.5494 -1.5704 -0.3606
  105OSM    H2G10716   1.592   2.115  10.240 -0.1939  0.1187  0.1302
  105OSM    C3F10717   1.713   1.987  10.111 -0.0463  0.0179  0.4406
  105OSM    H3F10718   1.738   1.879  10.112  0.1778  0.0667  1.8869
  105OSM    H3G10719   1.805   2.049  10.114  1.0820 -1.5606 -0.1466
  105OSM    C4F10720   1.614   2.015   9.990  0.2939  0.5203 -0.7595
  105OSM    H4F10721   1.583   2.121   9.987  1.5396  0.9663  0.8136
  105OSM    H4G10722   1.523   1.952  10.000 -1.1785  2.4268 -1.6093
  105OSM    C5F10723   1.680   1.981   9.850 -0.2289 -0.3030 -0.3563
  105OSM    H5F10724   1.694   1.873   9.828  2.0589 -0.1847  0.3159
  105OSM    H5G10725   1.781   2.026   9.853 -0.9403  1.5097 -1.5601
  105OSM    C6F10726   1.598   2.045   9.745 -0.0354  0.1878 -0.2493
  105OSM    H6F10727   1.566   2.151   9.747  1.1549  0.5468  1.3982
  105OSM    H6G10728   1.509   1.979   9.736  0.1237  0.1095 -1.4403
  105OSM    C7F10729   1.680   2.049   9.617 -0.2859  0.0403  0.0553
  105OSM    H7F10730   1.740   1.956   9.605  2.1956  1.5307  0.2709
  105OSM    H7G10731   1.752   2.131   9.634  1.9769 -2.2656  2.6151
  105OSM    C8F10732   1.595   2.085   9.500 -0.0634 -0.1942 -0.2446
  105OSM    H8F10733   1.558   2.189   9.513  1.7372  0.8630 -2.6265
  105OSM    H8G10734   1.510   2.014   9.490 -1.0997  1.2833 -3.2698
  105OSM    C9F10735   1.668   2.072   9.372  0.6836 -0.7338 -0.6884
  105OSM    H9F10736   1.776   2.092   9.372  0.6852 -0.4375 -3.4114
  105OSM   C10F10737   1.624   2.026   9.248  0.2960 -1.1566  0.5378
  105OSM   H10F10738   1.696   2.025   9.165  1.6045 -0.7471  1.6315
  105OSM   C11F10739   1.481   1.984   9.222 -0.6452  0.0542 -0.4038
  105OSM   H11F10740   1.412   1.987   9.310  0.9579  0.7964  0.8916
  105OSM   H11G10741   1.483   1.878   9.190  0.9705 -0.7508  2.0814
  105OSM   C12F10742   1.412   2.068   9.110  0.3381  0.1363 -0.3379
  105OSM   H12F10743   1.312   2.024   9.094  0.8681 -0.5457 -2.0024
  105OSM   H12G10744   1.469   2.047   9.017  0.1578 -2.0464 -0.0085
  105OSM   C13F10745   1.371   2.217   9.138  0.5334  0.7858 -0.0278
  105OSM   H13F10746   1.339   2.282   9.053  1.4147 -1.0255 -1.8377
  105OSM   H13G10747   1.463   2.271   9.169 -0.0584  1.4159  0.6417
  105OSM   C14F10748   1.262   2.217   9.254  0.3718  0.2752 -0.7378
  105OSM   H14F10749   1.330   2.236   9.341  0.8495 -1.5360 -0.6850
  105OSM   H14G10750   1.216   2.116   9.257  0.5059  0.2333  0.3785
  105OSM   C15F10751   1.164   2.330   9.253 -0.2503  0.1294 -0.5072
  105OSM   H15F10752   1.104   2.315   9.160 -1.3739 -1.8012  0.4538
  105OSM   H15G10753   1.207   2.432   9.253 -2.6104  1.2103  0.5378
  105OSM   C16F10754   1.066   2.334   9.371  0.0293  0.4617 -0.1067
  105OSM   H16F10755   1.003   2.243   9.366  2.3142 -1.2879  0.8814
  105OSM   H16G10756   1.003   2.424   9.357 -3.8389 -1.7258  1.7370
  105OSM   C17F10757   1.133   2.339   9.505  0.0144  0.3925  0.4778
  105OSM   H17F10758   1.199   2.425   9.479  0.9732 -0.7321 -0.9744
  105OSM   H17G10759   1.189   2.243   9.511 -1.8522 -1.1234 -3.1883
  105OSM   C18F10760   1.047   2.369   9.623  0.9493  0.2148  0.6374
  105OSM   H18F10761   1.014   2.277   9.677 -1.3306  1.3699  1.3260
  105OSM   H18G10762   0.957   2.424   9.587  2.1702  2.1957  0.4645
  105OSM   H18H10763   1.101   2.430   9.698  2.5294 -1.1263  0.6567
  106OSM      N10764   6.746   1.511  10.943 -0.1644  0.5048 -0.7126
  106OSM    C1510765   6.726   1.624  11.038 -0.3161 -0.1307  0.2579
  106OSM   H15A10766   6.799   1.699  11.011 -0.7680 -0.1862 -1.1556
  106OSM   H15B10767   6.748   1.603  11.142  3.3486  1.2331 -0.0790
  106OSM   H15C10768   6.626   1.665  11.037 -1.1390 -1.8239 -3.3955
  106OSM    C1410769   6.885   1.464  10.943  0.6575 -0.1040 -0.7863
  106OSM   H14A10770   6.900   1.371  10.890 -0.1058 -1.2840  0.9767
  106OSM   H14B10771   6.920   1.438  11.042 -1.3456 -1.2422 -0.3288
  106OSM   H14C10772   6.952   1.537  10.900 -0.7385  0.3968 -2.1834
  106OSM    C1310773   6.655   1.402  10.989 -0.0539  0.0298  0.7349
  106OSM   H13A10774   6.556   1.436  11.018 -0.9003 -1.7285  0.0817
  106OSM   H13B10775   6.692   1.347  11.074 -0.5631 -1.7754 -0.1555
  106OSM   H13C10776   6.628   1.341  10.903  0.7785  2.6503 -1.5296
  106OSM    C1210777   6.704   1.554  10.799  0.9869  0.1927 -0.2582
  106OSM   H12A10778   6.601   1.587  10.799  0.8327 -0.2843 -0.7692
  106OSM   H12B10779   6.699   1.463  10.741  0.5313 -0.2522  0.4574
  106OSM    C1110780   6.780   1.669  10.731 -0.3636 -0.1522 -0.2249
  106OSM   H11A10781   6.761   1.680  10.622  0.9684 -0.5746 -0.5093
  106OSM   H11B10782   6.888   1.647  10.741 -0.3223 -0.3581 -1.0586
  106OSM      P10783   6.829   1.930  10.781  0.0331  0.1018 -0.0067
  106OSM    O1310784   6.750   2.033  10.853 -0.1394 -0.4999  0.4016
  106OSM    O1410785   6.973   1.925  10.815  0.2124 -0.1342  0.4300
  106OSM    O1110786   6.811   1.955  10.634 -0.8904  0.0951  0.5563
  106OSM    O1210787   6.753   1.794  10.793  0.8514 -0.2454  0.3978
  106OSM    C1S10788   6.917   1.919  10.539 -0.1216 -0.0392  0.1653
  106OSM    H1S10789   7.000   1.855  10.576 -0.4907 -0.7179 -0.1689
  106OSM    H1T10790   6.959   2.016  10.505 -1.4710  0.3085 -0.5698
  106OSM     NF10791   6.975   1.794  10.332  0.7522 -0.6834  0.1079
  106OSM    HNF10792   7.011   1.845  10.254  2.6644 -1.9208  0.1070
  106OSM    C2S10793   6.869   1.857  10.402 -0.0095  0.2925 -1.4898
  106OSM    H2S10794   6.787   1.790  10.435 -0.2166  1.0871 -0.3490
  106OSM    C3S10795   6.796   1.968  10.316 -0.2978  0.0081  0.2905
  106OSM    H3S10796   6.882   2.027  10.279 -1.7667  0.7432 -2.2586
  106OSM     O310797   6.703   2.055  10.385  0.1256 -0.4093  0.3369
  106OSM    HO310798   6.734   2.043  10.476  0.5689  0.4029  0.2996
  106OSM    C4S10799   6.717   1.914  10.199  0.7019 -0.2433  0.6626
  106OSM    H4S10800   6.637   1.842  10.220 -0.0781  0.4907  0.2705
  106OSM    C5S10801   6.732   1.954  10.073  0.3366  0.2562 -0.2451
  106OSM    H5S10802   6.817   2.021  10.051  0.0654  0.7365  0.1827
  106OSM    C6S10803   6.642   1.903   9.968  0.4718 -0.2878  0.0875
  106OSM    H6S10804   6.574   1.985   9.937 -2.6776 -2.7441 -0.0682
  106OSM    H6T10805   6.587   1.814  10.005  1.0630 -1.8127 -2.4460
  106OSM    C7S10806   6.717   1.848   9.846 -0.0284 -0.6202 -0.2422
  106OSM    H7S10807   6.782   1.764   9.878 -0.2585 -0.8734 -0.4331
  106OSM    H7T10808   6.786   1.927   9.810  1.0592 -1.8463 -0.9482
  106OSM    C8S10809   6.628   1.796   9.738  0.4211 -0.0031  0.3364
  106OSM    H8S10810   6.538   1.858   9.717 -0.5874 -0.8001  2.0791
  106OSM    H8T10811   6.589   1.701   9.780 -0.4696  0.3888  0.4145
  106OSM    C9S10812   6.711   1.778   9.607 -0.7105  0.1971  0.6504
  106OSM    H9S10813   6.799   1.716   9.633 -0.1283  1.2202  1.2038
  106OSM    H9T10814   6.753   1.875   9.573  1.6058 -0.9024  0.1538
  106OSM   C10S10815   6.626   1.736   9.492 -0.5867  0.3532 -0.1998
  106OSM   H10S10816   6.537   1.801   9.476 -0.4111  0.4940 -0.5926
  106OSM   H10T10817   6.585   1.635   9.518 -0.2268 -0.3876 -2.3509
  106OSM   C11S10818   6.699   1.731   9.364 -0.1077  0.5184  0.7854
  106OSM   H11S10819   6.783   1.658   9.375 -1.4052 -1.1769 -0.1126
  106OSM   H11T10820   6.746   1.829   9.344 -0.3570  0.7288  1.2230
  106OSM   C12S10821   6.599   1.687   9.249  0.0487  0.5236  0.8266
  106OSM   H12S10822   6.527   1.769   9.226  1.4105  1.2346 -1.2024
  106OSM   H12T10823   6.534   1.605   9.286  0.1823 -0.3430 -0.7520
  106OSM   C13S10824   6.667   1.663   9.115  0.3605  0.3516  0.2636
  106OSM   H13S10825   6.596   1.620   9.041  0.7607  1.7658 -0.9995
  106OSM   H13T10826   6.733   1.576   9.135 -1.8959 -1.0103  2.5121
  106OSM   C14S10827   6.749   1.770   9.065 -0.8264 -0.2903  0.1745
  106OSM   H14S10828   6.810   1.734   8.979  0.3893 -0.7183  1.1976
  106OSM   H14T10829   6.810   1.817   9.145 -1.9891  3.3516 -0.8811
  106OSM   C15S10830   6.663   1.890   9.012 -0.0830 -0.0935  0.0796
  106OSM   H15S10831   6.733   1.963   8.965  1.6538 -0.6332  1.6858
  106OSM   H15T10832   6.618   1.933   9.104  2.0394  0.2598  1.0136
  106OSM   C16S10833   6.559   1.858   8.908  1.1490 -0.1945 -0.6584
  106OSM   H16S10834   6.499   1.774   8.948  2.0067 -0.6447 -0.2938
  106OSM   H16T10835   6.620   1.829   8.820  1.9052  1.8744 -0.8862
  106OSM   C17S10836   6.476   1.988   8.868 -0.2976  0.3246  0.3242
  106OSM   H17S10837   6.549   2.068   8.846 -0.5290  1.1314  2.2999
  106OSM   H17T10838   6.425   2.016   8.963 -0.6786  0.9156 -0.0434
  106OSM   C18S10839   6.380   1.974   8.743 -0.1787  0.2504 -0.5839
  106OSM   H18S10840   6.438   1.953   8.650  1.1332  0.2265  0.2090
  106OSM   H18T10841   6.321   2.067   8.731  2.2694  2.0555  0.4763
  106OSM   H18U10842   6.319   1.883   8.760 -0.5289  0.6745  0.4850
  106OSM    C1F10843   7.026   1.679  10.360  0.6094 -0.3245 -0.5533
  106OSM     OF10844   7.004   1.623  10.470 -0.3813  0.5530  0.0436
  106OSM    C2F10845   7.108   1.614  10.259  0.7676 -0.2731 -0.4840
  106OSM    H2F10846   7.189   1.561  10.314  0.1835 -2.1253 -1.3234
  106OSM    H2G10847   7.152   1.685  10.186  0.5609  1.0585  0.6361
  106OSM    C3F10848   7.022   1.509  10.172  0.0363  0.4740 -0.0321
  106OSM    H3F10849   6.955   1.451  10.239 -2.5399  1.7342 -1.3396
  106OSM    H3G10850   7.092   1.439  10.122 -0.6814  1.1735 -2.1232
  106OSM    C4F10851   6.931   1.580  10.075  0.5525 -0.3340  0.3858
  106OSM    H4F10852   6.993   1.632   9.999 -0.0773 -1.4788 -0.9512
  106OSM    H4G10853   6.873   1.660  10.126  0.0359 -0.1138 -0.5196
  106OSM    C5F10854   6.837   1.483   9.990 -0.1343  0.0830 -0.8677
  106OSM    H5F10855   6.758   1.543   9.941 -1.1704 -0.4335  0.1115
  106OSM    H5G10856   6.794   1.415  10.067  2.2567  0.5326  0.9836
  106OSM    C6F10857   6.912   1.410   9.883  0.5195  0.6460 -0.3938
  106OSM    H6F10858   7.009   1.369   9.917  0.9167  1.5613 -0.4066
  106OSM    H6G10859   6.942   1.487   9.809  4.1327 -2.2704 -2.2599
  106OSM    C7F10860   6.838   1.304   9.809 -0.6533  0.1043  0.0676
  106OSM    H7F10861   6.737   1.344   9.785 -1.2922  1.3523  4.1400
  106OSM    H7G10862   6.828   1.221   9.882  5.0130  0.5847  1.8069
  106OSM    C8F10863   6.916   1.257   9.687 -0.9309  0.6953  0.1941
  106OSM    H8F10864   7.008   1.223   9.738  0.3475  1.5457 -1.4521
  106OSM    H8G10865   6.949   1.337   9.618 -2.6990  0.5172 -0.9305
  106OSM    C9F10866   6.854   1.137   9.626 -0.0175 -0.5861  0.3775
  106OSM    H9F10867   6.821   1.058   9.696 -3.2245  1.3186  1.2259
  106OSM   C10F10868   6.831   1.124   9.491  0.5604 -0.4445 -0.6793
  106OSM   H10F10869   6.789   1.027   9.460 -2.1475  0.5940 -0.5067
  106OSM   C11F10870   6.872   1.223   9.385 -0.0153 -0.4325  0.6714
  106OSM   H11F10871   6.981   1.244   9.388 -0.1995  0.5503  0.8995
  106OSM   H11G10872   6.831   1.326   9.393  2.7884  0.7170  1.4630
  106OSM   C12F10873   6.833   1.166   9.251 -0.3548 -0.0764  0.7001
  106OSM   H12F10874   6.723   1.153   9.243 -0.4096 -0.5794  2.1013
  106OSM   H12G10875   6.886   1.071   9.224  2.8909  2.1198 -1.4110
  106OSM   C13F10876   6.868   1.256   9.128  0.4591  0.2268 -0.2317
  106OSM   H13F10877   6.977   1.278   9.134  0.1634  1.6336  0.7266
  106OSM   H13G10878   6.814   1.352   9.144 -1.3369 -0.6164 -1.0190
  106OSM   C14F10879   6.816   1.199   8.993  0.9262  0.2822 -0.1707
  106OSM   H14F10880   6.705   1.198   8.995  0.9218  0.0647  2.0449
  106OSM   H14G10881   6.861   1.098   8.981  0.8844  0.3492 -0.9704
  106OSM   C15F10882   6.880   1.267   8.870  0.4444  0.7292  0.2617
  106OSM   H15F10883   6.823   1.231   8.781 -0.2794 -0.6971  1.2492
  106OSM   H15G10884   6.985   1.235   8.852  0.2917  0.4656 -0.2020
  106OSM   C16F10885   6.886   1.421   8.868 -0.6179 -0.5937 -0.2198
  106OSM   H16F10886   6.974   1.454   8.927  0.9699 -1.3989 -2.0035
  106OSM   H16G10887   6.792   1.460   8.912  0.4533  2.1818 -0.2499
  106OSM   C17F10888   6.901   1.474   8.726 -0.4091 -0.1241  0.0977
  106OSM   H17F10889   6.905   1.584   8.739 -0.6067 -0.3456  2.3653
  106OSM   H17G10890   6.811   1.444   8.667  0.6064 -0.9793 -1.0786
  106OSM   C18F10891   7.029   1.425   8.647 -0.6928 -0.2801 -0.1525
  106OSM   H18F10892   7.025   1.481   8.551  1.2218 -0.9519 -0.6610
  106OSM   H18G10893   7.021   1.318   8.620 -2.2214 -0.5482  1.1692
  106OSM   H18H10894   7.121   1.448   8.703 -1.4819 -0.3920  1.2259
  107OSM      N10895   4.954   6.394  10.980 -0.3244  0.7130  0.4863
  107OSM    C1510896   4.885   6.364  10.854  0.1409  0.0333  0.3230
  107OSM   H15A10897   4.950   6.317  10.781 -1.8810 -2.8830  0.1898
  107OSM   H15B10898   4.846   6.457  10.816  2.9203  1.7361  1.3632
  107OSM   H15C10899   4.803   6.297  10.875  0.9322 -0.7944  0.8665
  107OSM    C1410900   5.014   6.270  11.040  0.0154 -0.3015  0.6340
  107OSM   H14A10901   5.073   6.226  10.961 -1.8591  1.4171 -1.9079
  107OSM   H14B10902   4.941   6.199  11.076  0.1813  0.0096  1.6081
  107OSM   H14C10903   5.071   6.302  11.125 -2.5936 -1.3262  2.9170
  107OSM    C1310904   5.071   6.479  10.947 -0.4737 -0.6442 -0.3440
  107OSM   H13A10905   5.125   6.432  10.867  0.1590 -0.2533 -0.1509
  107OSM   H13B10906   5.140   6.475  11.030 -0.5953 -3.1844 -0.2665
  107OSM   H13C10907   5.051   6.583  10.929 -0.8240 -0.5882  0.3163
  107OSM    C1210908   4.863   6.469  11.081  0.6266  0.3731 -0.0796
  107OSM   H12A10909   4.930   6.513  11.153  1.7866 -1.6271  0.1375
  107OSM   H12B10910   4.802   6.397  11.135 -1.4700  1.9127 -0.2711
  107OSM    C1110911   4.766   6.579  11.029  0.0746  0.8120  0.3558
  107OSM   H11A10912   4.708   6.616  11.117 -3.1638 -1.6785 -0.5321
  107OSM   H11B10913   4.686   6.538  10.963 -0.5702  1.0617  0.9651
  107OSM      P10914   4.792   6.817  10.937 -0.2548 -0.0817 -0.3553
  107OSM    O1310915   4.647   6.814  10.959  0.6907  0.7975 -0.2908
  107OSM    O1410916   4.875   6.917  11.012  0.5440 -0.5207 -0.7597
  107OSM    O1110917   4.814   6.840  10.784 -0.5933  1.0342 -0.1371
  107OSM    O1210918   4.849   6.670  10.956  0.6504 -0.2493 -0.1779
  107OSM    C1S10919   4.829   6.730  10.693  0.0492  0.5337  0.0830
  107OSM    H1S10920   4.729   6.695  10.658 -0.0082  0.7335  0.0467
  107OSM    H1T10921   4.889   6.649  10.739  1.4457  1.1523 -0.5824
  107OSM     NF10922   4.850   6.696  10.447 -0.2449 -0.0828  0.0694
  107OSM    HNF10923   4.896   6.609  10.434 -0.6092 -1.1024  4.2045
  107OSM    C2S10924   4.902   6.770  10.566 -0.7286  0.4525  0.1754
  107OSM    H2S10925   4.883   6.875  10.534 -1.6042  0.0043 -0.8185
  107OSM    C3S10926   5.055   6.758  10.588 -0.8798  0.0111  0.3941
  107OSM    H3S10927   5.096   6.659  10.618 -1.2848 -0.9242 -1.9721
  107OSM     O310928   5.098   6.857  10.689  0.9645  0.1954  0.2347
  107OSM    HO310929   5.020   6.876  10.742  0.3744 -0.3959 -0.3851
  107OSM    C4S10930   5.138   6.810  10.468 -0.1357  0.0007  0.0379
  107OSM    H4S10931   5.130   6.918  10.453 -0.2342 -0.0616 -0.3774
  107OSM    C5S10932   5.218   6.725  10.405 -0.1908  0.9038  0.1502
  107OSM    H5S10933   5.225   6.618  10.428 -1.4939  0.8830  0.5179
  107OSM    C6S10934   5.311   6.773  10.291  0.1420  0.1824  0.1647
  107OSM    H6S10935   5.351   6.874  10.317  0.7295  0.2589 -1.0051
  107OSM    H6T10936   5.254   6.791  10.197  2.0199  0.4610 -0.9677
  107OSM    C7S10937   5.434   6.684  10.274  0.1400  0.0198 -0.4791
  107OSM    H7S10938   5.387   6.592  10.233 -0.6223 -0.3263  1.0922
  107OSM    H7T10939   5.476   6.661  10.375  0.3918  0.3763 -0.4997
  107OSM    C8S10940   5.539   6.739  10.170  0.8463 -0.1207 -0.1901
  107OSM    H8S10941   5.612   6.656  10.180  2.2992  1.1994  0.5237
  107OSM    H8T10942   5.570   6.838  10.210 -0.2000  0.4405 -0.7113
  107OSM    C9S10943   5.482   6.750  10.029  0.3584 -0.1742 -0.1370
  107OSM    H9S10944   5.395   6.819  10.034 -0.3595 -1.1207  1.2787
  107OSM    H9T10945   5.429   6.659   9.996 -4.1558  2.7461 -1.9552
  107OSM   C10S10946   5.588   6.777   9.929 -0.0384 -0.0689  1.2314
  107OSM   H10S10947   5.664   6.696   9.926  0.6259  0.4104 -3.6894
  107OSM   H10T10948   5.638   6.874   9.953  1.8235 -1.2799  2.5831
  107OSM   C11S10949   5.539   6.786   9.779 -0.3654 -0.1208 -1.3509
  107OSM   H11S10950   5.448   6.850   9.772 -0.5814 -0.2350  0.1108
  107OSM   H11T10951   5.508   6.682   9.752  1.2294 -1.4274  1.3653
  107OSM   C12S10952   5.650   6.829   9.673  0.6204  0.5366 -0.2365
  107OSM   H12S10953   5.726   6.749   9.686  2.4752  2.3681  0.5063
  107OSM   H12T10954   5.692   6.927   9.702 -0.3010  1.1233 -0.8368
  107OSM   C13S10955   5.594   6.827   9.529  0.0223  0.3946 -0.4037
  107OSM   H13S10956   5.527   6.916   9.531  0.3324  0.6223  0.6754
  107OSM   H13T10957   5.538   6.732   9.514 -1.6442  0.8057  2.4086
  107OSM   C14S10958   5.694   6.836   9.417 -0.3746 -0.4205  0.7404
  107OSM   H14S10959   5.773   6.768   9.454  0.8236  1.6257  2.1839
  107OSM   H14T10960   5.747   6.934   9.421  2.1305 -1.7302  1.9124
  107OSM   C15S10961   5.637   6.805   9.278  0.1599 -0.4039  0.6751
  107OSM   H15S10962   5.540   6.857   9.267 -0.4889 -1.9318 -1.4091
  107OSM   H15T10963   5.612   6.698   9.265 -1.6483  0.2296 -1.7337
  107OSM   C16S10964   5.725   6.843   9.163  0.4109 -0.1787 -0.1263
  107OSM   H16S10965   5.818   6.782   9.162  0.4632 -0.2368  2.1733
  107OSM   H16T10966   5.765   6.947   9.166  1.2254 -0.4983  0.7195
  107OSM   C17S10967   5.674   6.811   9.026  0.8349 -0.0974  0.4000
  107OSM   H17S10968   5.589   6.878   9.003  1.0916 -0.5630 -2.2064
  107OSM   H17T10969   5.622   6.713   9.025 -1.7184  1.1667 -0.1113
  107OSM   C18S10970   5.778   6.823   8.913 -0.6387 -0.2787 -0.4333
  107OSM   H18S10971   5.739   6.814   8.809 -0.1486 -2.6010 -0.4738
  107OSM   H18T10972   5.859   6.749   8.928  0.3205  0.6590 -0.8113
  107OSM   H18U10973   5.832   6.918   8.931 -1.5562  0.0433  0.7444
  107OSM    C1F10974   4.732   6.724  10.395 -1.0390  0.5753 -0.7192
  107OSM     OF10975   4.652   6.790  10.458  0.1512 -0.4065 -1.0629
  107OSM    C2F10976   4.699   6.661  10.262  0.0425 -0.5327 -0.7990
  107OSM    H2F10977   4.637   6.570  10.274 -1.6867  0.6809 -0.0865
  107OSM    H2G10978   4.793   6.621  10.218  1.3413  2.3144 -0.8040
  107OSM    C3F10979   4.624   6.753  10.164 -0.4887  0.4722  0.0096
  107OSM    H3F10980   4.672   6.850  10.138  1.5069  0.5079  3.1863
  107OSM    H3G10981   4.522   6.772  10.202 -1.3456 -1.0866 -1.3791
  107OSM    C4F10982   4.616   6.675  10.031  0.1997 -0.4956 -0.4236
  107OSM    H4F10983   4.559   6.581  10.049 -0.7031 -0.1315 -1.3009
  107OSM    H4G10984   4.722   6.655  10.004  1.3318  0.0613  3.1657
  107OSM    C5F10985   4.548   6.750   9.914 -0.0916  0.2400 -0.0333
  107OSM    H5F10986   4.621   6.826   9.879 -1.6404  3.0076  2.3568
  107OSM    H5G10987   4.456   6.796   9.955 -0.9930 -0.5471 -1.1221
  107OSM    C6F10988   4.517   6.659   9.790  0.0715  0.1477 -0.1087
  107OSM    H6F10989   4.450   6.586   9.840  2.3298 -0.0970  2.8075
  107OSM    H6G10990   4.602   6.592   9.764  0.4540 -0.4228  2.3735
  107OSM    C7F10991   4.455   6.741   9.674 -0.0381 -0.1650 -0.4326
  107OSM    H7F10992   4.395   6.829   9.706  0.2650  0.0553 -0.4594
  107OSM    H7G10993   4.385   6.680   9.614  0.4365 -0.5979 -0.5525
  107OSM    C8F10994   4.564   6.795   9.577 -0.2879 -0.2681 -0.2402
  107OSM    H8F10995   4.648   6.841   9.633  0.9539 -0.0408 -2.1827
  107OSM    H8G10996   4.508   6.869   9.516 -3.5219 -1.3816  1.1465
  107OSM    C9F10997   4.622   6.688   9.492  0.4408 -0.4664 -0.5028
  107OSM    H9F10998   4.694   6.615   9.534 -0.6979 -2.6771 -2.1353
  107OSM   C10F10999   4.596   6.664   9.367  0.6141 -0.1231 -0.4602
  107OSM   H10F11000   4.650   6.578   9.325 -0.6917 -0.2806 -1.9290
  107OSM   C11F11001   4.497   6.738   9.281 -0.7600 -0.0055 -0.2481
  107OSM   H11F11002   4.520   6.846   9.274  0.7506 -0.4354 -3.9505
  107OSM   H11G11003   4.398   6.718   9.327 -0.1219 -3.0551  0.0289
  107OSM   C12F11004   4.488   6.676   9.135  0.3442  0.1680 -0.2024
  107OSM   H12F11005   4.408   6.729   9.080 -0.1281  3.0812  2.9673
  107OSM   H12G11006   4.454   6.571   9.144 -0.7482  0.5827  0.8119
  107OSM   C13F11007   4.627   6.683   9.055  0.2685  0.1405 -0.1632
  107OSM   H13F11008   4.693   6.611   9.108  1.2769  0.9004 -0.3519
  107OSM   H13G11009   4.659   6.789   9.062 -0.0162  0.3709 -1.9476
  107OSM   C14F11010   4.631   6.634   8.908 -0.2344  0.0567 -0.0195
  107OSM   H14F11011   4.545   6.690   8.864 -0.0713 -0.1852 -0.6640
  107OSM   H14G11012   4.609   6.525   8.900 -2.1413  0.2607  1.7227
  107OSM   C15F11013   4.760   6.666   8.828 -0.1162  0.0142  0.1021
  107OSM   H15F11014   4.839   6.603   8.874 -1.2303 -0.2120  1.7909
  107OSM   H15G11015   4.791   6.773   8.833 -0.6417  0.2808 -1.8287
  107OSM   C16F11016   4.729   6.627   8.681 -0.4572  0.3689 -0.4438
  107OSM   H16F11017   4.632   6.676   8.657 -0.8870 -1.4744 -2.8678
  107OSM   H16G11018   4.705   6.520   8.663  1.3726  0.0235 -0.9713
  107OSM   C17F11019   4.829   6.669   8.577 -0.1201 -0.2923  0.2548
  107OSM   H17F11020   4.927   6.619   8.594  0.6220  0.1014 -2.3473
  107OSM   H17G11021   4.847   6.779   8.574  1.2225 -0.4954 -2.6334
  107OSM   C18F11022   4.777   6.644   8.438  0.8139  0.1006  0.2665
  107OSM   H18F11023   4.683   6.695   8.408  0.2041 -1.0077  0.2485
  107OSM   H18G11024   4.772   6.535   8.418  0.3892  0.5952 -2.8784
  107OSM   H18H11025   4.860   6.679   8.372 -1.1673 -0.2305 -2.6141
  108OSM      N11026   0.569   0.725  10.764 -0.1948  0.4001  0.3730
  108OSM    C1511027   0.602   0.631  10.873  0.0409  0.2288 -0.1730
  108OSM   H15A11028   0.514   0.587  10.916 -0.7245  1.0729 -0.8240
  108OSM   H15B11029   0.630   0.685  10.962  2.3304 -1.3490  0.1676
  108OSM   H15C11030   0.684   0.565  10.847 -0.3465 -1.6502  2.9619
  108OSM    C1411031   0.501   0.672  10.654  1.1463  0.3628 -0.8688
  108OSM   H14A11032   0.447   0.751  10.603 -0.2406  0.2927  0.4267
  108OSM   H14B11033   0.411   0.624  10.689  0.5437  0.8660 -1.7111
  108OSM   H14C11034   0.562   0.610  10.591  3.5233  3.5424 -1.9688
  108OSM    C1311035   0.487   0.836  10.820  0.5660  0.0682 -0.5753
  108OSM   H13A11036   0.521   0.864  10.918  1.8097 -0.1300 -0.9405
  108OSM   H13B11037   0.391   0.798  10.853  0.2564  1.9742  0.8963
  108OSM   H13C11038   0.471   0.913  10.746  0.8056 -0.0223 -0.7225
  108OSM    C1211039   0.702   0.787  10.710 -0.0957  0.0925  0.2599
  108OSM   H12A11040   0.744   0.839  10.795  0.4609 -1.5954  1.0633
  108OSM   H12B11041   0.672   0.866  10.643  1.1753  0.1836 -0.2471
  108OSM    C1111042   0.808   0.700  10.631  1.1705 -0.4936 -0.1109
  108OSM   H11A11043   0.874   0.775  10.583  0.7819  0.5788  0.9956
  108OSM   H11B11044   0.768   0.644  10.544  2.4699 -2.8332  0.6897
  108OSM      P11045   0.952   0.483  10.683 -0.4276  0.0745 -0.2186
  108OSM    O1311046   1.089   0.539  10.650  0.3462  0.0662  0.0774
  108OSM    O1411047   0.939   0.384  10.794  0.0684  0.2303  0.7546
  108OSM    O1111048   0.891   0.419  10.552 -0.1507  0.0306 -0.7346
  108OSM    O1211049   0.867   0.609  10.719 -0.4939 -0.2897  0.6093
  108OSM    C1S11050   0.760   0.361  10.549  0.1319  0.5969 -0.0059
  108OSM    H1S11051   0.686   0.433  10.590 -0.3603 -0.0896  0.3164
  108OSM    H1T11052   0.760   0.269  10.610  1.1946  1.5173  1.4410
  108OSM     NF11053   0.591   0.255  10.395 -0.0032  0.1545  0.3521
  108OSM    HNF11054   0.587   0.156  10.391  1.2892  0.0710  0.7337
  108OSM    C2S11055   0.725   0.316  10.398  0.5622 -0.0284 -0.0764
  108OSM    H2S11056   0.721   0.411  10.341  1.5380  1.7292  2.6188
  108OSM    C3S11057   0.831   0.226  10.346 -0.1061 -0.1898 -0.2169
  108OSM    H3S11058   0.835   0.133  10.407  0.5088  0.2484  0.4109
  108OSM     O311059   0.962   0.289  10.339  0.5816  0.7650 -0.2158
  108OSM    HO311060   0.957   0.350  10.413 -2.2615  0.5761 -0.1721
  108OSM    C4S11061   0.791   0.171  10.208  0.2071 -0.2336  0.0108
  108OSM    H4S11062   0.741   0.074  10.221 -1.5354  0.1125 -3.1080
  108OSM    C5S11063   0.791   0.237  10.091 -0.0163  0.5338 -0.0900
  108OSM    H5S11064   0.842   0.334  10.087  0.8584  0.0932 -0.0895
  108OSM    C6S11065   0.751   0.183   9.956  0.1247  0.3965  0.0459
  108OSM    H6S11066   0.699   0.085   9.956 -2.5633  1.6521  2.0830
  108OSM    H6T11067   0.845   0.184   9.897 -0.7675 -0.3851 -1.4335
  108OSM    C7S11068   0.645   0.275   9.890  0.2782  0.3076 -0.7212
  108OSM    H7S11069   0.674   0.382   9.889  0.4726  0.2550 -2.3312
  108OSM    H7T11070   0.552   0.264   9.950  1.2317 -0.3563  0.7043
  108OSM    C8S11071   0.632   0.241   9.739 -0.1250  0.2032 -0.1533
  108OSM    H8S11072   0.728   0.242   9.684 -1.0123 -0.2026 -1.7643
  108OSM    H8T11073   0.574   0.328   9.702 -1.7665 -0.3518  0.9750
  108OSM    C9S11074   0.549   0.114   9.705  0.4357  0.5378  0.3532
  108OSM    H9S11075   0.482   0.085   9.789 -0.1712  0.7527 -0.0542
  108OSM    H9T11076   0.624   0.034   9.688  0.6593  1.0931 -1.4863
  108OSM   C10S11077   0.446   0.142   9.595 -0.0046  0.0623 -0.5463
  108OSM   H10S11078   0.372   0.219   9.626  0.9649  0.6316  0.4156
  108OSM   H10T11079   0.379   0.059   9.563 -0.2718  0.3277 -0.6808
  108OSM   C11S11080   0.512   0.191   9.474  0.8298 -0.3901  0.8179
  108OSM   H11S11081   0.590   0.126   9.429 -0.5729 -1.8685  0.4346
  108OSM   H11T11082   0.560   0.291   9.485 -1.5289  0.9674 -0.4700
  108OSM   C12S11083   0.413   0.254   9.370 -0.3209 -0.0286 -0.3027
  108OSM   H12S11084   0.342   0.324   9.417  2.8616  2.3491  1.3898
  108OSM   H12T11085   0.349   0.174   9.328 -1.6658  0.8918 -0.0501
  108OSM   C13S11086   0.484   0.323   9.251  0.5357 -0.8250  0.1745
  108OSM   H13S11087   0.576   0.375   9.286  0.2779 -1.6492  2.2330
  108OSM   H13T11088   0.432   0.410   9.205  3.3775  0.5757 -0.6713
  108OSM   C14S11089   0.523   0.220   9.146 -0.5501 -0.0378  0.2507
  108OSM   H14S11090   0.442   0.153   9.112  0.4915 -0.6361 -1.1825
  108OSM   H14T11091   0.600   0.156   9.194 -0.3288  0.5106  0.6452
  108OSM   C15S11092   0.585   0.290   9.021 -0.1529  0.2151 -0.3351
  108OSM   H15S11093   0.648   0.213   8.972 -0.7295 -0.2036 -0.4233
  108OSM   H15T11094   0.658   0.369   9.050  2.2205 -2.3369  1.1754
  108OSM   C16S11095   0.470   0.335   8.929  0.5896 -0.4021 -0.5037
  108OSM   H16S11096   0.486   0.441   8.898 -0.5116  0.4693  1.7424
  108OSM   H16T11097   0.375   0.346   8.986 -0.3722 -1.2835 -1.8813
  108OSM   C17S11098   0.434   0.242   8.822  0.3431  0.5163  0.4479
  108OSM   H17S11099   0.412   0.141   8.862 -0.8348  0.5395 -0.0918
  108OSM   H17T11100   0.515   0.228   8.747 -1.1779  0.3497 -1.2245
  108OSM   C18S11101   0.307   0.282   8.748 -0.6744 -0.0485 -0.4311
  108OSM   H18S11102   0.303   0.392   8.735  2.7728  0.4519  1.4190
  108OSM   H18T11103   0.217   0.249   8.805 -1.8311 -0.6221 -2.5058
  108OSM   H18U11104   0.312   0.240   8.646  0.4126  0.6182 -0.6633
  108OSM    C1F11105   0.477   0.330  10.383 -0.7483  0.4747 -0.6162
  108OSM     OF11106   0.478   0.454  10.396 -0.2674  0.1493  0.3424
  108OSM    C2F11107   0.348   0.253  10.371 -0.3051 -0.6276  0.5582
  108OSM    H2F11108   0.263   0.316  10.402 -1.1109 -1.0673 -0.6589
  108OSM    H2G11109   0.347   0.163  10.436 -1.8386  0.7023  2.4707
  108OSM    C3F11110   0.325   0.209  10.220  0.7501 -0.4443  0.0163
  108OSM    H3F11111   0.413   0.153  10.183  2.4432  1.5690  0.8284
  108OSM    H3G11112   0.307   0.296  10.153 -0.0298  1.5089  2.6002
  108OSM    C4F11113   0.198   0.118  10.232  0.8934 -0.0016  0.2926
  108OSM    H4F11114   0.113   0.176  10.274  0.6738 -0.6219  0.7193
  108OSM    H4G11115   0.234   0.042  10.305  0.5406 -0.6340 -0.1765
  108OSM    C5F11116   0.156   0.062  10.093 -0.7363  0.3681 -0.2624
  108OSM    H5F11117   0.242  -0.005  10.072  0.5800  1.3690  1.6948
  108OSM    H5G11118   0.148   0.141  10.015 -0.4300  1.3809  0.7176
  108OSM    C6F11119   0.030  -0.021  10.112 -0.1461  0.6522  0.1412
  108OSM    H6F11120  -0.048   0.033  10.054  3.2349  4.0262 -1.7643
  108OSM    H6G11121   0.002  -0.032  10.219 -2.4272 -1.1023 -0.5494
  108OSM    C7F11122   0.037  -0.167  10.064  0.2306 -0.7520  0.3329
  108OSM    H7F11123  -0.068  -0.205  10.054 -0.6886  2.0365 -1.9253
  108OSM    H7G11124   0.112  -0.224  10.122 -0.0789 -1.7097 -0.1650
  108OSM    C8F11125   0.081  -0.169   9.911 -0.1952 -0.2627 -0.3498
  108OSM    H8F11126   0.184  -0.128   9.896 -0.2973  0.3473  0.4814
  108OSM    H8G11127   0.020  -0.108   9.841 -0.1345 -2.3700 -2.3392
  108OSM    C9F11128   0.069  -0.313   9.861  0.3221 -0.4628 -0.0600
  108OSM    H9F11129  -0.036  -0.344   9.858  0.6295 -1.6832  0.8097
  108OSM   C10F11130   0.167  -0.380   9.795  0.7004 -0.0396 -0.2691
  108OSM   H10F11131   0.158  -0.483   9.758  3.2711 -1.1191  1.8300
  108OSM   C11F11132   0.307  -0.328   9.769 -0.1667 -0.0186  0.2030
  108OSM   H11F11133   0.369  -0.398   9.829 -0.3005  0.1261  0.5120
  108OSM   H11G11134   0.328  -0.222   9.796  0.9823 -0.5420  1.4945
  108OSM   C12F11135   0.336  -0.343   9.615  0.1631 -0.2147  0.0777
  108OSM   H12F11136   0.244  -0.317   9.558  1.7762  0.6686 -2.2837
  108OSM   H12G11137   0.346  -0.453   9.600 -2.2384 -0.5257  0.3932
  108OSM   C13F11138   0.459  -0.267   9.568  0.1913 -0.0019 -0.2686
  108OSM   H13F11139   0.537  -0.292   9.643 -1.2025  1.4532  1.7650
  108OSM   H13G11140   0.443  -0.157   9.569 -1.1344 -0.1844  0.5105
  108OSM   C14F11141   0.504  -0.325   9.438 -0.1962  0.2037  0.1399
  108OSM   H14F11142   0.485  -0.434   9.439  0.1840  0.1398  1.1443
  108OSM   H14G11143   0.611  -0.301   9.425 -0.4389  1.7755  0.7899
  108OSM   C15F11144   0.422  -0.271   9.317 -0.3810 -0.4597 -0.3488
  108OSM   H15F11145   0.451  -0.164   9.306 -0.6736 -0.4277 -0.8475
  108OSM   H15G11146   0.314  -0.259   9.335 -0.6404 -3.2411  0.4319
  108OSM   C16F11147   0.433  -0.347   9.186  0.3542  0.4969  0.8178
  108OSM   H16F11148   0.339  -0.336   9.129  1.5840  1.4100 -1.1584
  108OSM   H16G11149   0.441  -0.456   9.203 -1.7305  0.0830 -0.5830
  108OSM   C17F11150   0.544  -0.304   9.091  0.3262  0.1740  0.2137
  108OSM   H17F11151   0.641  -0.286   9.142  0.4290  0.0733  0.0530
  108OSM   H17G11152   0.511  -0.207   9.049  0.5796  0.7128  1.2169
  108OSM   C18F11153   0.578  -0.407   8.981  0.1106 -0.3620 -0.3713
  108OSM   H18F11154   0.647  -0.361   8.907 -1.7024 -1.0669 -2.5963
  108OSM   H18G11155   0.486  -0.440   8.929 -0.7505  2.0019 -0.4283
  108OSM   H18H11156   0.622  -0.495   9.033 -2.2290  0.0360  2.5457
  109OSM      N11157   0.116   4.779  11.276 -0.1122 -0.2066 -0.6872
  109OSM    C1511158   0.045   4.695  11.371  0.4316 -0.1157 -0.0186
  109OSM   H15A11159   0.046   4.595  11.330  0.0879  0.0926 -0.5454
  109OSM   H15B11160  -0.055   4.730  11.392 -0.2787 -1.9564 -0.1112
  109OSM   H15C11161   0.082   4.676  11.471 -0.8387  1.0376  0.7054
  109OSM    C1411162   0.075   4.915  11.308  0.3278  0.7707  0.6126
  109OSM   H14A11163  -0.031   4.928  11.291  0.2989 -0.5107 -0.3166
  109OSM   H14B11164   0.118   4.984  11.237 -1.1154 -0.2294 -1.3498
  109OSM   H14C11165   0.106   4.929  11.410  1.4002 -0.5621  0.4991
  109OSM    C1311166   0.263   4.753  11.302  0.3061  0.0449  0.4671
  109OSM   H13A11167   0.286   4.648  11.290 -0.4526 -0.0746  0.0192
  109OSM   H13B11168   0.303   4.788  11.396  1.1212  1.4600 -0.3749
  109OSM   H13C11169   0.335   4.794  11.233  1.0302 -3.1750 -0.8559
  109OSM    C1211170   0.090   4.738  11.130  0.4398  1.1770  0.5551
  109OSM   H12A11171   0.148   4.799  11.063  3.6607 -1.3181  0.8419
  109OSM   H12B11172  -0.016   4.744  11.111  0.8384  1.7794 -1.6440
  109OSM    C1111173   0.140   4.598  11.082  0.8378  0.5092 -0.0442
  109OSM   H11A11174   0.250   4.612  11.093  1.0160 -0.6382 -0.2302
  109OSM   H11B11175   0.118   4.584  10.974  0.1944  0.6747  0.0605
  109OSM      P11176  -0.053   4.427  11.131  0.7212 -0.0209 -0.1296
  109OSM    O1311177  -0.031   4.284  11.106 -0.1697  1.4762 -0.5969
  109OSM    O1411178  -0.159   4.462  11.229 -0.2936 -0.0722  0.5097
  109OSM    O1111179  -0.088   4.497  10.990 -0.1239  0.6214  0.0185
  109OSM    O1211180   0.079   4.495  11.168 -0.4570  0.1419  0.1728
  109OSM    C1S11181  -0.220   4.499  10.939 -0.1729  1.3253 -0.0753
  109OSM    H1S11182  -0.274   4.574  11.000 -1.4172  0.7991 -0.4924
  109OSM    H1T11183  -0.255   4.393  10.935 -1.1055  1.6433 -0.6538
  109OSM     NF11184  -0.326   4.652  10.775 -0.1371 -0.0184 -0.0924
  109OSM    HNF11185  -0.401   4.607  10.727  0.0276  1.0939 -1.4354
  109OSM    C2S11186  -0.209   4.567  10.794  0.2298  0.0365 -0.1094
  109OSM    H2S11187  -0.118   4.628  10.777  0.0277  0.3440 -0.0898
  109OSM    C3S11188  -0.187   4.459  10.686 -0.4109  0.6330  0.4940
  109OSM    H3S11189  -0.280   4.398  10.682  0.8259 -1.2711 -2.2203
  109OSM     O311190  -0.079   4.372  10.720  0.0740  0.3340 -0.3456
  109OSM    HO311191  -0.077   4.377  10.816  0.3861  0.1207 -0.3397
  109OSM    C4S11192  -0.184   4.511  10.547 -0.1549 -0.4234 -0.2533
  109OSM    H4S11193  -0.276   4.498  10.488 -0.6490 -0.6256  0.5453
  109OSM    C5S11194  -0.088   4.593  10.501  0.4315 -0.2042  0.6495
  109OSM    H5S11195   0.002   4.611  10.562  0.4883 -1.4462  0.9666
  109OSM    C6S11196  -0.082   4.655  10.364  0.4582 -0.7016  0.1688
  109OSM    H6S11197  -0.007   4.610  10.297  0.7576 -1.0419  0.7257
  109OSM    H6T11198  -0.043   4.758  10.381  1.7428 -1.3597  1.3337
  109OSM    C7S11199  -0.216   4.656  10.279  0.8289  0.3872  0.0316
  109OSM    H7S11200  -0.288   4.710  10.343 -2.3714 -2.4581 -0.8463
  109OSM    H7T11201  -0.254   4.551  10.277  1.9341 -0.0575  1.1403
  109OSM    C8S11202  -0.200   4.706  10.135  0.4028 -0.0328  0.6606
  109OSM    H8S11203  -0.132   4.793  10.146 -0.5837  0.6557  1.5471
  109OSM    H8T11204  -0.295   4.756  10.105 -0.2311 -1.4813  0.1613
  109OSM    C9S11205  -0.158   4.602  10.026 -0.0937 -0.1161 -0.1596
  109OSM    H9S11206  -0.235   4.524  10.011 -1.6409  1.4892 -0.8660
  109OSM    H9T11207  -0.070   4.559  10.080 -0.5761  1.0372  1.6194
  109OSM   C10S11208  -0.111   4.665   9.898 -0.5491 -0.3558  0.2194
  109OSM   H10S11209  -0.034   4.741   9.921  0.1558 -0.8232 -0.5065
  109OSM   H10T11210  -0.196   4.709   9.843 -1.5509 -0.9350  1.2735
  109OSM   C11S11211  -0.036   4.570   9.813  0.6392 -0.2747  0.0421
  109OSM   H11S11212  -0.099   4.492   9.765 -2.7895  1.5402  1.2806
  109OSM   H11T11213   0.041   4.532   9.884  0.2816 -0.4872  0.3163
  109OSM   C12S11214   0.050   4.634   9.708 -0.1860  0.7222  0.2110
  109OSM   H12S11215   0.110   4.554   9.660  3.8366  3.0844  0.8576
  109OSM   H12T11216   0.121   4.714   9.738  0.4559  1.2693 -2.5292
  109OSM   C13S11217  -0.035   4.702   9.599  0.7762 -0.5253 -0.0191
  109OSM   H13S11218  -0.082   4.791   9.646 -0.9238 -0.7073 -1.2383
  109OSM   H13T11219  -0.123   4.634   9.592 -0.8540  1.3118  1.3399
  109OSM   C14S11220   0.049   4.738   9.478 -0.0158 -0.8163 -0.0572
  109OSM   H14S11221   0.107   4.650   9.443 -2.4611 -1.9137 -1.5880
  109OSM   H14T11222   0.117   4.819   9.512 -1.5711 -0.2055  1.8468
  109OSM   C15S11223  -0.030   4.792   9.349 -0.5517 -0.3832 -0.0311
  109OSM   H15S11224  -0.076   4.884   9.389  1.0839  1.5312 -2.2568
  109OSM   H15T11225  -0.111   4.721   9.323 -1.0710 -0.2781  1.2398
  109OSM   C16S11226   0.064   4.812   9.228  0.0974  0.0195  0.1959
  109OSM   H16S11227   0.123   4.718   9.223  1.0839  0.5264  1.6325
  109OSM   H16T11228   0.125   4.895   9.269  1.5022 -0.6333 -0.5049
  109OSM   C17S11229  -0.012   4.851   9.092 -0.3621  0.2905 -0.1151
  109OSM   H17S11230  -0.094   4.921   9.120 -1.4231 -0.7167 -0.6200
  109OSM   H17T11231  -0.066   4.755   9.079  1.0029 -0.3616 -1.2266
  109OSM   C18S11232   0.082   4.888   8.974 -0.0258 -0.1864 -0.0641
  109OSM   H18S11233   0.020   4.891   8.882  0.3270  0.7535 -0.2802
  109OSM   H18T11234   0.169   4.818   8.979  0.9686  1.0941  1.7697
  109OSM   H18U11235   0.113   4.994   8.988  1.3673 -0.4686 -0.7339
  109OSM    C1F11236  -0.336   4.775  10.816  0.4710 -0.3549  0.1643
  109OSM     OF11237  -0.242   4.824  10.884  0.3552 -0.1296  0.4129
  109OSM    C2F11238  -0.458   4.844  10.777  0.2164  0.3342  0.1364
  109OSM    H2F11239  -0.503   4.902  10.860  0.8816  0.5186  0.3763
  109OSM    H2G11240  -0.524   4.770  10.728  1.6718 -0.4976 -0.6441
  109OSM    C3F11241  -0.422   4.964  10.686 -0.2283 -0.0184  0.7729
  109OSM    H3F11242  -0.339   5.022  10.731 -0.7657  2.5674 -1.3033
  109OSM    H3G11243  -0.517   5.021  10.691  0.1255  0.5136  1.7928
  109OSM    C4F11244  -0.387   4.929  10.540  0.8085  0.2921  0.6107
  109OSM    H4F11245  -0.485   4.885  10.512 -0.4868  3.0736  0.4972
  109OSM    H4G11246  -0.302   4.857  10.534 -0.3072 -1.0410  0.3801
  109OSM    C5F11247  -0.365   5.050  10.450 -0.0158 -0.2795 -0.1862
  109OSM    H5F11248  -0.287   5.113  10.499 -0.0336 -0.3245 -0.0991
  109OSM    H5G11249  -0.459   5.111  10.450  0.1415  0.0675 -2.7637
  109OSM    C6F11250  -0.334   5.010  10.310 -0.1300 -0.3848  0.4456
  109OSM    H6F11251  -0.412   4.938  10.279  0.1459 -0.3435 -0.3710
  109OSM    H6G11252  -0.244   4.946  10.299 -0.5620 -0.9580  0.2551
  109OSM    C7F11253  -0.322   5.134  10.222  0.9127  0.3269  0.5190
  109OSM    H7F11254  -0.252   5.211  10.262 -0.3764  2.1919 -0.6315
  109OSM    H7G11255  -0.420   5.186  10.226  0.3528 -0.7362  0.8976
  109OSM    C8F11256  -0.279   5.101  10.083  0.0677  0.1418  0.2725
  109OSM    H8F11257  -0.203   5.021  10.072  0.4962  0.6648 -0.6621
  109OSM    H8G11258  -0.222   5.185  10.038  1.9571 -2.6447 -3.0285
  109OSM    C9F11259  -0.408   5.064  10.001  0.1854 -0.2217 -1.2750
  109OSM    H9F11260  -0.466   4.987  10.053 -1.6708  2.9233  1.6904
  109OSM   C10F11261  -0.445   5.112   9.881 -0.4964 -0.2057  0.5602
  109OSM   H10F11262  -0.545   5.083   9.847 -0.4875 -0.8507  1.0555
  109OSM   C11F11263  -0.359   5.211   9.794  0.1785  0.8312 -0.8939
  109OSM   H11F11264  -0.265   5.239   9.846 -0.6003  0.4880  0.7527
  109OSM   H11G11265  -0.417   5.299   9.760  1.1606  0.4777 -3.7278
  109OSM   C12F11266  -0.323   5.138   9.656  0.2734 -0.1312  0.4291
  109OSM   H12F11267  -0.412   5.083   9.619  0.5953  0.3003 -1.0421
  109OSM   H12G11268  -0.234   5.073   9.666 -0.9055 -1.9443 -0.4054
  109OSM   C13F11269  -0.287   5.226   9.536  0.0105 -0.2669  0.4359
  109OSM   H13F11270  -0.218   5.305   9.573 -1.6736  1.7314 -0.4351
  109OSM   H13G11271  -0.379   5.280   9.503  0.9092  1.1512  0.1333
  109OSM   C14F11272  -0.234   5.146   9.416  0.2067 -0.1896  0.2628
  109OSM   H14F11273  -0.304   5.064   9.392  2.1892 -1.9786  0.3507
  109OSM   H14G11274  -0.141   5.096   9.453  0.1822 -0.8711 -0.5878
  109OSM   C15F11275  -0.220   5.225   9.286 -0.3972 -0.1413  0.2999
  109OSM   H15F11276  -0.150   5.181   9.211 -1.2929 -0.3114 -0.4530
  109OSM   H15G11277  -0.168   5.317   9.320  0.5365 -0.5250 -0.0374
  109OSM   C16F11278  -0.354   5.262   9.214 -0.1477 -0.1950 -0.2224
  109OSM   H16F11279  -0.350   5.365   9.174 -1.0211  0.0769  0.3577
  109OSM   H16G11280  -0.425   5.277   9.299 -0.9446  2.0120 -1.1955
  109OSM   C17F11281  -0.415   5.160   9.119  0.2389  0.2823  0.0603
  109OSM   H17F11282  -0.426   5.057   9.160 -5.7726  0.7377  0.4058
  109OSM   H17G11283  -0.360   5.145   9.023  0.9537  1.3027  0.2947
  109OSM   C18F11284  -0.551   5.206   9.078 -0.1971  0.4150 -0.0714
  109OSM   H18F11285  -0.621   5.203   9.165  1.3418 -2.7361  1.2093
  109OSM   H18G11286  -0.596   5.154   8.991 -1.1971  1.3083 -0.0994
  109OSM   H18H11287  -0.549   5.315   9.056 -1.5747  0.1765 -1.5136
  110OSM      N11288   5.911   3.455  11.388  0.1240  0.0591  0.2776
  110OSM    C1511289   5.819   3.371  11.470 -0.4229  0.3647  0.3718
  110OSM   H15A11290   5.720   3.410  11.449 -0.8483  0.1050  1.7728
  110OSM   H15B11291   5.853   3.386  11.572 -0.7709  2.0450  0.2853
  110OSM   H15C11292   5.831   3.269  11.438 -0.3464  0.6020 -0.3764
  110OSM    C1411293   5.883   3.598  11.419 -0.3085 -0.3776 -1.0493
  110OSM   H14A11294   5.933   3.668  11.354  0.5350  0.2243  0.1981
  110OSM   H14B11295   5.907   3.621  11.522 -0.5390  0.1055 -1.0999
  110OSM   H14C11296   5.777   3.618  11.410  0.0609  3.4938  0.9687
  110OSM    C1311297   6.057   3.422  11.419 -0.4034  0.0538  0.2549
  110OSM   H13A11298   6.073   3.442  11.524  1.3951  0.3152 -0.0367
  110OSM   H13B11299   6.120   3.485  11.358 -3.5936  0.9761 -2.3561
  110OSM   H13C11300   6.081   3.320  11.394  1.1826  0.6034 -0.6295
  110OSM    C1211301   5.878   3.428  11.243  0.0516  0.1980  0.3858
  110OSM   H12A11302   5.947   3.491  11.188  1.1807 -0.8946  0.5105
  110OSM   H12B11303   5.779   3.460  11.213 -0.2004 -0.7999  0.1188
  110OSM    C1111304   5.903   3.283  11.194 -0.0437  0.5522  0.4406
  110OSM   H11A11305   5.809   3.230  11.222 -1.7308  2.6361 -0.9743
  110OSM   H11B11306   5.991   3.243  11.250 -1.7704  0.6547  3.4434
  110OSM      P11307   6.077   3.298  11.002  0.1476 -0.0958  0.1133
  110OSM    O1311308   6.093   3.448  10.991 -0.5996 -0.0159 -0.0305
  110OSM    O1411309   6.183   3.231  11.075  0.1308  0.0659  0.1397
  110OSM    O1111310   6.062   3.240  10.859 -0.4159 -0.2119  0.1084
  110OSM    O1211311   5.935   3.279  11.056  0.3095  0.1811 -0.6626
  110OSM    C1S11312   5.947   3.256  10.771 -0.5057  0.8518  0.5470
  110OSM    H1S11313   5.867   3.310  10.825 -0.5710  0.3499  0.9659
  110OSM    H1T11314   5.908   3.156  10.741  0.8876 -0.3639  2.4708
  110OSM     NF11315   5.875   3.374  10.555  0.5524 -0.2233 -0.6034
  110OSM    HNF11316   5.836   3.311  10.489 -1.3270 -0.3034  0.5027
  110OSM    C2S11317   5.985   3.330  10.635  0.4652 -0.0135  0.0034
  110OSM    H2S11318   6.038   3.421  10.670 -0.9554 -0.4402  3.7973
  110OSM    C3S11319   6.081   3.244  10.551 -0.5342 -0.2996  0.2240
  110OSM    H3S11320   6.023   3.166  10.498 -0.6996  1.5598 -2.5661
  110OSM     O311321   6.182   3.177  10.623  0.1463  0.0452 -0.1007
  110OSM    HO311322   6.166   3.197  10.715  1.7072  0.7352  0.0547
  110OSM    C4S11323   6.133   3.322  10.440 -0.5436  0.5229 -0.1524
  110OSM    H4S11324   6.063   3.348  10.360 -0.3191  2.3367  0.2029
  110OSM    C5S11325   6.262   3.374  10.426 -0.0804 -0.3614 -0.0358
  110OSM    H5S11326   6.339   3.347  10.501 -1.7437 -0.9060  1.5575
  110OSM    C6S11327   6.317   3.459  10.316  0.3127  0.5935  0.8216
  110OSM    H6S11328   6.422   3.490  10.336  1.0816 -1.1380 -0.2997
  110OSM    H6T11329   6.253   3.544  10.286 -0.4211 -0.9075 -2.2999
  110OSM    C7S11330   6.307   3.363  10.189 -0.1873 -0.3211  0.4865
  110OSM    H7S11331   6.202   3.331  10.170  0.4041 -0.8072 -2.4723
  110OSM    H7T11332   6.369   3.270  10.183  1.8001  1.0013 -0.5192
  110OSM    C8S11333   6.354   3.448  10.068 -0.6053 -0.6483 -1.0383
  110OSM    H8S11334   6.453   3.493  10.088 -1.6672  1.1585  0.6169
  110OSM    H8T11335   6.292   3.540  10.056 -0.6081 -0.9624 -4.0752
  110OSM    C9S11336   6.342   3.367   9.944 -0.6053  0.2261  0.1565
  110OSM    H9S11337   6.236   3.338   9.928 -0.1250 -0.9142 -1.2718
  110OSM    H9T11338   6.399   3.271   9.944  1.3503  1.3186  0.4117
  110OSM   C10S11339   6.386   3.451   9.818 -0.5276 -0.2436 -0.1669
  110OSM   H10S11340   6.496   3.464   9.824 -0.3617 -1.6641  0.2930
  110OSM   H10T11341   6.327   3.545   9.820 -0.7963 -0.2507 -3.2851
  110OSM   C11S11342   6.364   3.386   9.676  0.0738 -0.1221  0.2367
  110OSM   H11S11343   6.255   3.366   9.669 -0.5827  2.9390 -0.0284
  110OSM   H11T11344   6.414   3.287   9.677  0.3713  0.0269  0.2348
  110OSM   C12S11345   6.402   3.480   9.567 -0.1872 -0.1792  0.2005
  110OSM   H12S11346   6.512   3.469   9.554 -0.5560 -2.4274 -1.6219
  110OSM   H12T11347   6.375   3.588   9.574  2.1357  0.6553 -2.0424
  110OSM   C13S11348   6.347   3.431   9.426 -0.7067 -0.1718 -0.4918
  110OSM   H13S11349   6.244   3.471   9.420 -0.5503  1.0106  2.6175
  110OSM   H13T11350   6.351   3.320   9.428  1.8586 -0.1344  0.3776
  110OSM   C14S11351   6.423   3.484   9.299 -0.4088  0.5862 -0.2088
  110OSM   H14S11352   6.532   3.466   9.309  0.0296  2.9520 -0.1081
  110OSM   H14T11353   6.401   3.593   9.298 -1.7413  0.3450  0.5320
  110OSM   C15S11354   6.377   3.409   9.171  0.1840 -0.0239  0.3906
  110OSM   H15S11355   6.267   3.394   9.160 -0.2300  1.2211  2.4013
  110OSM   H15T11356   6.414   3.304   9.172  0.0041 -0.1395 -1.3203
  110OSM   C16S11357   6.434   3.493   9.052 -0.1501 -0.4865 -1.0785
  110OSM   H16S11358   6.539   3.520   9.077 -0.4718  1.1228 -1.3781
  110OSM   H16T11359   6.383   3.591   9.059 -0.6955 -0.6546 -2.3050
  110OSM   C17S11360   6.421   3.424   8.919  0.0603  0.6021 -0.0699
  110OSM   H17S11361   6.476   3.328   8.919  1.2454  1.2174 -2.0976
  110OSM   H17T11362   6.481   3.485   8.848  0.4074 -1.7614 -1.9465
  110OSM   C18S11363   6.279   3.411   8.875 -0.6603  0.1447  0.2575
  110OSM   H18S11364   6.220   3.361   8.955  1.9068 -2.8925  0.4356
  110OSM   H18T11365   6.276   3.368   8.773 -1.6928  0.7774 -0.0011
  110OSM   H18U11366   6.242   3.516   8.873 -0.9455  0.0462  0.2874
  110OSM    C1F11367   5.782   3.454  10.603  0.5490 -0.7776 -0.1968
  110OSM     OF11368   5.801   3.510  10.709  0.9849  0.3133  0.5556
  110OSM    C2F11369   5.654   3.457  10.525  0.6191 -0.5140 -0.5620
  110OSM    H2F11370   5.571   3.430  10.593  2.2635  2.8056  3.2110
  110OSM    H2G11371   5.659   3.380  10.446 -1.8378 -1.2970 -0.0328
  110OSM    C3F11372   5.642   3.600  10.469 -0.3606 -0.3512 -0.2184
  110OSM    H3F11373   5.737   3.630  10.420  0.5733  0.6682  2.0729
  110OSM    H3G11374   5.638   3.670  10.556  0.3282 -0.9950  0.3537
  110OSM    C4F11375   5.522   3.618  10.377  0.0606 -0.5179  0.3932
  110OSM    H4F11376   5.418   3.606  10.414 -1.1846  0.7787 -2.4033
  110OSM    H4G11377   5.532   3.550  10.289  0.9123 -1.2807  1.0549
  110OSM    C5F11378   5.523   3.763  10.334 -0.5065 -0.1232  0.6955
  110OSM    H5F11379   5.625   3.785  10.296  0.0769 -3.6813 -0.1117
  110OSM    H5G11380   5.496   3.822  10.425  1.9454  1.0784  0.7231
  110OSM    C6F11381   5.418   3.803  10.223  0.1287  0.7775  1.1934
  110OSM    H6F11382   5.319   3.796  10.273 -0.8924  1.2927 -0.6651
  110OSM    H6G11383   5.441   3.723  10.150  0.3089  3.3752 -1.8077
  110OSM    C7F11384   5.438   3.949  10.182 -0.4975 -0.3705  0.1547
  110OSM    H7F11385   5.474   4.006  10.270  0.1378 -1.4545  0.6130
  110OSM    H7G11386   5.343   3.996  10.150 -0.2709 -1.1020 -1.7145
  110OSM    C8F11387   5.537   3.965  10.060  0.4523  0.4933 -0.0916
  110OSM    H8F11388   5.636   3.929  10.095  0.4722  0.5098 -0.1310
  110OSM    H8G11389   5.558   4.073  10.043  0.6734  0.2047 -1.7820
  110OSM    C9F11390   5.490   3.895   9.933 -0.5836  0.8410 -0.0689
  110OSM    H9F11391   5.483   3.786   9.947 -2.6963  1.1091  1.4189
  110OSM   C10F11392   5.436   3.956   9.825 -0.9677  0.3892 -0.2360
  110OSM   H10F11393   5.418   3.897   9.734 -0.1215 -0.7503  0.3058
  110OSM   C11F11394   5.426   4.102   9.796 -0.3248  0.1588 -0.3234
  110OSM   H11F11395   5.436   4.162   9.888  2.2050 -0.2856 -0.2598
  110OSM   H11G11396   5.328   4.113   9.745 -1.0962 -1.3006  0.7394
  110OSM   C12F11397   5.539   4.137   9.694  0.2670 -0.5335  0.3767
  110OSM   H12F11398   5.642   4.099   9.714  0.0804 -0.8221  0.8343
  110OSM   H12G11399   5.528   4.246   9.708 -1.9068 -0.4790 -1.1775
  110OSM   C13F11400   5.503   4.109   9.545 -0.3443 -0.0119  0.3487
  110OSM   H13F11401   5.406   4.154   9.517  0.4318  0.2995 -2.0808
  110OSM   H13G11402   5.513   4.003   9.513  1.7228  0.2212  0.0654
  110OSM   C14F11403   5.601   4.183   9.460  0.5834 -0.5454 -0.5140
  110OSM   H14F11404   5.708   4.155   9.471  0.1546 -1.8565  0.5125
  110OSM   H14G11405   5.601   4.292   9.483  1.6743 -0.1642 -2.1426
  110OSM   C15F11406   5.561   4.168   9.309 -0.7462  0.3635  0.4888
  110OSM   H15F11407   5.456   4.202   9.311 -0.2788  2.0196 -0.7209
  110OSM   H15G11408   5.569   4.059   9.289 -2.8783  0.2271  0.1715
  110OSM   C16F11409   5.649   4.256   9.226 -0.7722  0.0302  0.2224
  110OSM   H16F11410   5.723   4.189   9.178  0.2160  1.3191 -0.1211
  110OSM   H16G11411   5.688   4.342   9.285 -1.3294  0.0225  0.6095
  110OSM   C17F11412   5.559   4.307   9.112 -0.7440 -0.7479  0.5124
  110OSM   H17F11413   5.487   4.374   9.163 -0.5577  0.0921 -0.2843
  110OSM   H17G11414   5.498   4.226   9.066 -0.4873  0.1485 -1.5369
  110OSM   C18F11415   5.638   4.402   9.021  0.2658 -0.9310  0.5773
  110OSM   H18F11416   5.727   4.451   9.067 -0.6681  1.4449  0.0137
  110OSM   H18G11417   5.574   4.482   8.980  0.2223 -1.2629 -0.0031
  110OSM   H18H11418   5.682   4.352   8.933 -0.5948 -1.6104  0.5165
  111OSM      N11419   0.172   2.339  10.979 -0.1605  0.1051  0.2130
  111OSM    C1511420   0.087   2.346  11.096 -0.5599  0.2726  0.1776
  111OSM   H15A11421  -0.002   2.401  11.068 -0.2193 -0.2880 -2.2500
  111OSM   H15B11422   0.142   2.393  11.176 -0.6395  0.7496 -0.0375
  111OSM   H15C11423   0.059   2.248  11.131 -0.4731  0.1393 -0.1193
  111OSM    C1411424   0.240   2.478  10.962 -0.0468  0.6408 -0.2557
  111OSM   H14A11425   0.296   2.509  11.049 -1.5779 -0.2508  1.0967
  111OSM   H14B11426   0.169   2.558  10.943 -1.7103  0.1990  3.1912
  111OSM   H14C11427   0.310   2.465  10.881  0.9019 -2.4722  0.9361
  111OSM    C1311428   0.281   2.235  11.005  0.0434 -0.5028  0.8137
  111OSM   H13A11429   0.362   2.261  10.937 -0.5883  0.7288  0.4960
  111OSM   H13B11430   0.253   2.132  10.989  0.4489 -0.8449  2.1755
  111OSM   H13C11431   0.326   2.243  11.103  2.0972  0.4443 -0.1354
  111OSM    C1211432   0.092   2.312  10.859 -0.0413 -0.3869  0.0317
  111OSM   H12A11433   0.061   2.209  10.854  0.4432 -0.4814 -2.0798
  111OSM   H12B11434   0.161   2.338  10.780  0.2131  1.7195  0.8799
  111OSM    C1111435  -0.034   2.401  10.832  0.2485 -0.7023 -0.1271
  111OSM   H11A11436  -0.071   2.374  10.730 -0.1291 -0.3835 -0.0784
  111OSM   H11B11437  -0.012   2.510  10.825 -1.5067 -0.1525  1.9774
  111OSM      P11438  -0.256   2.474  10.946  0.6740  0.2579 -0.2440
  111OSM    O1311439  -0.385   2.405  10.929  0.0276  0.2965 -0.2779
  111OSM    O1411440  -0.244   2.543  11.076 -0.7467  0.4975  0.4459
  111OSM    O1111441  -0.242   2.578  10.831 -0.2231 -1.2461 -0.0074
  111OSM    O1211442  -0.140   2.367  10.920 -0.0393  0.2158 -1.0666
  111OSM    C1S11443  -0.352   2.636  10.754 -0.4230 -0.3258 -0.0407
  111OSM    H1S11444  -0.362   2.742  10.787 -1.7797  0.1839 -1.9213
  111OSM    H1T11445  -0.452   2.589  10.770  0.7121 -2.2094  2.1514
  111OSM     NF11446  -0.363   2.766  10.535 -0.7802  0.0266  0.0883
  111OSM    HNF11447  -0.435   2.777  10.467  0.4501  1.1393 -1.1114
  111OSM    C2S11448  -0.325   2.638  10.601  0.4397 -0.0401 -0.6553
  111OSM    H2S11449  -0.215   2.649  10.591  0.4197  2.7007  1.1235
  111OSM    C3S11450  -0.382   2.510  10.540 -0.2118  1.0370 -0.2764
  111OSM    H3S11451  -0.493   2.512  10.543 -0.2640 -0.2182 -0.9944
  111OSM     O311452  -0.345   2.387  10.611 -0.5479 -0.7321  0.9640
  111OSM    HO311453  -0.302   2.417  10.691 -0.6568  0.2860  0.6538
  111OSM    C4S11454  -0.340   2.514  10.398  0.1297  0.2833  0.4014
  111OSM    H4S11455  -0.402   2.587  10.343  3.2505  2.4214 -0.5490
  111OSM    C5S11456  -0.234   2.447  10.343  0.3352  0.0781  0.3792
  111OSM    H5S11457  -0.173   2.392  10.417 -1.8916 -0.9146  1.5601
  111OSM    C6S11458  -0.177   2.444  10.202 -0.0697  0.1950 -0.2264
  111OSM    H6S11459  -0.156   2.339  10.172 -0.5383  0.2123 -0.6388
  111OSM    H6T11460  -0.076   2.488  10.198  0.5244 -1.1059 -0.0128
  111OSM    C7S11461  -0.258   2.499  10.075 -0.4895 -0.1763  0.1350
  111OSM    H7S11462  -0.305   2.599  10.088  0.1087  0.8226 -3.9838
  111OSM    H7T11463  -0.329   2.415  10.056 -1.7535  0.4582  1.8537
  111OSM    C8S11464  -0.181   2.498   9.945 -0.1029  0.6285  0.4366
  111OSM    H8S11465  -0.106   2.416   9.945 -0.7895 -0.0195 -0.5622
  111OSM    H8T11466  -0.125   2.594   9.945  0.7124  0.1615  0.7257
  111OSM    C9S11467  -0.267   2.488   9.822  0.0850 -0.2319 -0.1299
  111OSM    H9S11468  -0.369   2.447   9.838  0.1945 -0.5586 -0.2675
  111OSM    H9T11469  -0.218   2.411   9.759  0.6471  0.6790 -0.8357
  111OSM   C10S11470  -0.285   2.615   9.734 -0.5175  0.0340 -0.1573
  111OSM   H10S11471  -0.186   2.659   9.709 -1.4739  1.2493 -1.9807
  111OSM   H10T11472  -0.333   2.697   9.790  0.6838  1.6437 -1.3991
  111OSM   C11S11473  -0.363   2.611   9.603  0.3215 -0.3901  0.0158
  111OSM   H11S11474  -0.330   2.535   9.529 -1.0754  1.8728 -3.1400
  111OSM   H11T11475  -0.348   2.705   9.545 -0.8873 -1.5085 -2.2403
  111OSM   C12S11476  -0.514   2.593   9.626 -0.2586  0.2372 -0.4778
  111OSM   H12S11477  -0.538   2.640   9.723 -0.5052 -0.4785 -0.1855
  111OSM   H12T11478  -0.543   2.486   9.630  1.0462 -0.0847  2.5272
  111OSM   C13S11479  -0.602   2.639   9.508  0.7596  0.1098 -0.4026
  111OSM   H13S11480  -0.601   2.750   9.502 -1.2111  0.1728 -0.2347
  111OSM   H13T11481  -0.701   2.611   9.551  1.1566  2.0648  2.0138
  111OSM   C14S11482  -0.571   2.590   9.368  0.6058  0.4691 -0.0146
  111OSM   H14S11483  -0.567   2.480   9.375  2.2879  0.5481  0.8649
  111OSM   H14T11484  -0.480   2.635   9.324  0.3677  1.5792  0.5714
  111OSM   C15S11485  -0.678   2.629   9.264  0.2452  0.2982  0.7882
  111OSM   H15S11486  -0.681   2.740   9.260  1.4185  0.3126 -0.8193
  111OSM   H15T11487  -0.783   2.604   9.289 -0.8329  0.4737 -2.8952
  111OSM   C16S11488  -0.638   2.587   9.120  1.2596  0.3291 -0.7170
  111OSM   H16S11489  -0.539   2.623   9.086  0.1661  1.6753 -2.7503
  111OSM   H16T11490  -0.713   2.632   9.051  2.1645  3.5375  0.2225
  111OSM   C17S11491  -0.636   2.432   9.088 -0.2737 -0.3584  0.8213
  111OSM   H17S11492  -0.734   2.384   9.110 -0.3032 -0.4056  0.5835
  111OSM   H17T11493  -0.554   2.386   9.147  0.0313 -0.0754  0.6195
  111OSM   C18S11494  -0.598   2.408   8.940  0.4319 -0.1266 -0.4493
  111OSM   H18S11495  -0.680   2.441   8.873 -0.8937 -0.4243  0.9905
  111OSM   H18T11496  -0.586   2.300   8.920 -1.5739 -1.4603  4.1534
  111OSM   H18U11497  -0.503   2.460   8.911 -1.3144  3.5854 -0.1717
  111OSM    C1F11498  -0.317   2.886  10.570 -0.1404 -0.0161  0.2888
  111OSM     OF11499  -0.222   2.899  10.646 -0.2313  0.1717  0.0436
  111OSM    C2F11500  -0.376   3.004  10.505 -0.1122  0.0910  0.4396
  111OSM    H2F11501  -0.379   3.092  10.573 -1.1767 -1.0396  1.9390
  111OSM    H2G11502  -0.482   2.976  10.485 -0.3524  1.2276  0.0315
  111OSM    C3F11503  -0.302   3.058  10.376 -0.0091 -0.4305 -0.6820
  111OSM    H3F11504  -0.194   3.078  10.393  0.1436 -0.1612 -1.8477
  111OSM    H3G11505  -0.355   3.152  10.348 -1.2712 -0.9647 -0.1608
  111OSM    C4F11506  -0.317   2.975  10.248 -0.1854  0.0687  1.0937
  111OSM    H4F11507  -0.423   2.958  10.221  0.3509 -0.8740 -0.4913
  111OSM    H4G11508  -0.268   2.876  10.260 -0.7512  0.0259  3.6531
  111OSM    C5F11509  -0.261   3.050  10.124 -0.8591  0.1842  0.2199
  111OSM    H5F11510  -0.153   3.072  10.139 -1.0387  0.1710  1.6684
  111OSM    H5G11511  -0.297   3.154  10.106 -1.1046  0.0831  0.1259
  111OSM    C6F11512  -0.271   2.970   9.993 -0.4006 -0.5503 -0.1860
  111OSM    H6F11513  -0.379   2.975   9.966 -0.7899 -2.2494  0.9223
  111OSM    H6G11514  -0.246   2.863  10.010  0.3384 -0.6086 -1.5120
  111OSM    C7F11515  -0.183   3.034   9.881 -0.4685  0.8573 -0.8410
  111OSM    H7F11516  -0.074   3.032   9.897 -0.8580 -0.1517  2.3868
  111OSM    H7G11517  -0.227   3.136   9.879 -1.3828  0.4765 -0.8976
  111OSM    C8F11518  -0.218   2.966   9.744  0.2939 -0.0588  0.2279
  111OSM    H8F11519  -0.327   2.947   9.735  0.3284  0.2331 -0.8936
  111OSM    H8G11520  -0.171   2.866   9.761 -1.4320 -0.8882  0.3304
  111OSM    C9F11521  -0.161   3.043   9.633  0.1308 -0.2737 -0.1064
  111OSM    H9F11522  -0.062   3.087   9.651 -0.4328  0.6884  0.6882
  111OSM   C10F11523  -0.212   3.066   9.516  1.1632  0.7474  0.6741
  111OSM   H10F11524  -0.158   3.130   9.445 -0.5037 -0.1340 -1.4864
  111OSM   C11F11525  -0.349   3.035   9.459  0.7972  0.0603  0.9461
  111OSM   H11F11526  -0.404   3.123   9.421 -0.2947  0.0996  2.4980
  111OSM   H11G11527  -0.418   2.990   9.533 -2.6910  0.5989 -1.7584
  111OSM   C12F11528  -0.345   2.918   9.347  1.0732 -0.8407  0.3030
  111OSM   H12F11529  -0.423   2.844   9.376  1.0446 -0.9476 -0.0451
  111OSM   H12G11530  -0.252   2.858   9.358  0.9310 -1.1427 -0.1027
  111OSM   C13F11531  -0.368   2.979   9.212 -0.3486  0.2794  0.4544
  111OSM   H13F11532  -0.303   3.069   9.204 -0.6594  0.3838 -1.2057
  111OSM   H13G11533  -0.468   3.020   9.186 -0.0515  0.0471 -1.1706
  111OSM   C14F11534  -0.331   2.875   9.102 -0.0769  0.0703  0.1316
  111OSM   H14F11535  -0.419   2.809   9.085 -1.4409  1.6613  0.7538
  111OSM   H14G11536  -0.246   2.813   9.139 -0.4090  0.1854  1.1230
  111OSM   C15F11537  -0.280   2.924   8.970 -0.1731  0.0671 -0.1098
  111OSM   H15F11538  -0.362   2.964   8.906 -1.0748 -1.8339 -0.2246
  111OSM   H15G11539  -0.243   2.834   8.915  1.5291  0.8825 -0.3345
  111OSM   C16F11540  -0.161   3.030   8.969 -0.2944  0.7294 -0.3194
  111OSM   H16F11541  -0.203   3.131   8.989  1.6558  1.5364 -0.0838
  111OSM   H16G11542  -0.123   3.017   8.865 -1.6605 -0.4726 -0.7123
  111OSM   C17F11543  -0.051   3.012   9.079 -0.4218  0.2340  0.1474
  111OSM   H17F11544   0.006   2.918   9.061  1.3272  1.5111 -1.4457
  111OSM   H17G11545  -0.097   3.010   9.179  0.4443 -0.3285  0.5511
  111OSM   C18F11546   0.063   3.120   9.064 -0.2949  0.8093 -0.4527
  111OSM   H18F11547   0.086   3.125   8.955  0.4779 -1.2551 -0.4193
  111OSM   H18G11548   0.149   3.073   9.116 -1.1843 -2.6811 -1.8659
  111OSM   H18H11549   0.041   3.217   9.114  1.4143 -1.0063  4.3607
  112OSM      N11550   5.960   1.414  10.824  0.5352  0.7985  0.2507
  112OSM    C1511551   5.863   1.530  10.824 -0.2972  0.2230  0.6871
  112OSM   H15A11552   5.826   1.551  10.725 -1.4214  0.5134  1.1594
  112OSM   H15B11553   5.919   1.617  10.857  0.6067  0.1199 -0.5261
  112OSM   H15C11554   5.779   1.516  10.891  0.7390  0.1360  2.0213
  112OSM    C1411555   6.077   1.451  10.737  0.0059  0.1476 -0.6679
  112OSM   H14A11556   6.108   1.553  10.758  1.2204 -0.1641 -0.8737
  112OSM   H14B11557   6.048   1.448  10.633 -0.3779 -0.4914 -0.5433
  112OSM   H14C11558   6.157   1.381  10.757 -0.8740 -0.2775  1.7015
  112OSM    C1311559   6.010   1.403  10.961 -0.2715  0.4402 -0.4778
  112OSM   H13A11560   6.028   1.503  10.999  1.3134  0.0811 -0.2089
  112OSM   H13B11561   6.096   1.338  10.958 -0.1029  0.5648  0.9124
  112OSM   H13C11562   5.934   1.357  11.022 -0.5399 -0.1054 -1.2118
  112OSM    C1211563   5.891   1.286  10.768 -0.1360 -0.0063 -0.4359
  112OSM   H12A11564   5.835   1.309  10.678 -1.2196  0.4384  0.3294
  112OSM   H12B11565   5.810   1.255  10.832 -2.0191  1.9531 -1.7115
  112OSM    C1111566   5.980   1.166  10.728  0.4786  0.3449  0.2504
  112OSM   H11A11567   6.041   1.202  10.642  0.5489 -0.1710  0.0797
  112OSM   H11B11568   5.913   1.085  10.694  1.1043 -0.2990  0.5324
  112OSM      P11569   6.214   1.105  10.829  0.1937 -0.1885 -0.2257
  112OSM    O1311570   6.269   1.242  10.831  0.4121  0.1424  0.3055
  112OSM    O1411571   6.263   1.017  10.935  0.7449  0.6188  0.3238
  112OSM    O1111572   6.247   1.043  10.691 -0.4173  0.0094  0.1691
  112OSM    O1211573   6.056   1.111  10.834  0.7089  0.3577 -0.0111
  112OSM    C1S11574   6.172   0.939  10.634  0.1756  0.2715  0.1321
  112OSM    H1S11575   6.065   0.936  10.663  0.3740 -2.2950  0.8158
  112OSM    H1T11576   6.211   0.844  10.676  0.6829  0.3352 -0.1890
  112OSM     NF11577   6.138   0.807  10.427 -0.0282 -1.1608  0.0090
  112OSM    HNF11578   6.214   0.743  10.432  0.4238 -0.6070  0.2715
  112OSM    C2S11579   6.175   0.939  10.478 -0.0110 -0.5460  0.6390
  112OSM    H2S11580   6.107   1.019  10.441  1.3601 -0.0415 -0.9075
  112OSM    C3S11581   6.311   0.988  10.428  0.3720 -0.7145  0.6223
  112OSM    H3S11582   6.390   0.927  10.477  0.7944  0.4880  1.4914
  112OSM     O311583   6.341   1.128  10.451 -0.3257  0.5205  0.0703
  112OSM    HO311584   6.325   1.146  10.544 -1.9158 -0.8698  0.1247
  112OSM    C4S11585   6.319   0.975  10.278  0.0084  0.3782 -0.3424
  112OSM    H4S11586   6.246   1.035  10.220 -2.1688  0.1033  1.9261
  112OSM    C5S11587   6.392   0.886  10.201 -0.2442 -0.3526  0.1640
  112OSM    H5S11588   6.441   0.806  10.259 -1.9527 -0.7527  1.1250
  112OSM    C6S11589   6.385   0.891  10.048  0.2303 -0.0970  0.7329
  112OSM    H6S11590   6.473   0.940  10.000  0.0301  0.5038  0.9727
  112OSM    H6T11591   6.296   0.941  10.004  0.9899  0.2690 -0.4245
  112OSM    C7S11592   6.377   0.749  10.000 -0.4183  0.6262 -0.8232
  112OSM    H7S11593   6.278   0.702  10.020  0.3540 -1.2014 -1.0674
  112OSM    H7T11594   6.457   0.693  10.054  2.5673  3.6561 -1.7724
  112OSM    C8S11595   6.412   0.741   9.848  0.2795  0.2850  0.5424
  112OSM    H8S11596   6.440   0.637   9.820 -0.8570 -0.1111  0.8069
  112OSM    H8T11597   6.505   0.801   9.833  3.9945 -4.8031  0.5227
  112OSM    C9S11598   6.295   0.774   9.756 -0.0076 -0.8546 -0.3491
  112OSM    H9S11599   6.255   0.870   9.796  2.4165 -0.2570  0.8343
  112OSM    H9T11600   6.215   0.697   9.760 -0.8086 -0.0808 -0.8941
  112OSM   C10S11601   6.331   0.797   9.606 -0.5108 -0.0492  0.1228
  112OSM   H10S11602   6.384   0.707   9.569 -0.6012 -0.7102  1.5464
  112OSM   H10T11603   6.408   0.877   9.595 -1.1120  0.4196 -0.7854
  112OSM   C11S11604   6.216   0.810   9.506  0.0186 -0.0881  0.0019
  112OSM   H11S11605   6.165   0.904   9.535 -0.3725  0.0530 -1.1178
  112OSM   H11T11606   6.142   0.729   9.522 -1.2927  0.4986 -2.5899
  112OSM   C12S11607   6.254   0.809   9.354 -0.1017 -0.9298 -0.3968
  112OSM   H12S11608   6.307   0.715   9.328  1.3776  0.1789 -1.5568
  112OSM   H12T11609   6.332   0.886   9.337  0.2136 -1.2633 -0.4919
  112OSM   C13S11610   6.125   0.824   9.264  0.1304 -0.4828 -0.6490
  112OSM   H13S11611   6.046   0.890   9.306 -0.3400  0.6904 -3.2489
  112OSM   H13T11612   6.077   0.724   9.272  1.7411 -1.1836  1.1064
  112OSM   C14S11613   6.153   0.862   9.123 -0.3608 -0.5108  0.2058
  112OSM   H14S11614   6.242   0.811   9.080  0.4469  0.3472  0.8217
  112OSM   H14T11615   6.183   0.969   9.121  0.8572 -0.8360  0.3295
  112OSM   C15S11616   6.039   0.851   9.026 -0.4073  0.3373 -0.2614
  112OSM   H15S11617   5.949   0.903   9.066  0.6889  0.6992  1.8638
  112OSM   H15T11618   6.028   0.741   9.018 -1.6096  0.2156  2.1931
  112OSM   C16S11619   6.074   0.932   8.900  1.1150 -0.7416  0.1749
  112OSM   H16S11620   6.181   0.945   8.873  0.7864  0.3351 -0.7048
  112OSM   H16T11621   6.041   1.036   8.925  2.5702 -0.0716 -0.5774
  112OSM   C17S11622   5.999   0.879   8.773  0.5550  0.1217 -0.3898
  112OSM   H17S11623   5.988   0.964   8.702  1.6306 -1.2129 -2.2483
  112OSM   H17T11624   5.898   0.849   8.809  0.3588 -2.1219 -2.5881
  112OSM   C18S11625   6.086   0.771   8.714 -0.5328  0.5817  0.5217
  112OSM   H18S11626   6.145   0.734   8.801  0.4738  1.1115  0.0824
  112OSM   H18T11627   6.162   0.811   8.645 -1.4909  1.2804 -0.1517
  112OSM   H18U11628   6.026   0.695   8.659  1.2061 -0.9269  0.6012
  112OSM    C1F11629   6.019   0.762  10.430 -0.2613 -0.1122 -0.0415
  112OSM     OF11630   5.921   0.828  10.464 -0.3263  0.0747 -0.4811
  112OSM    C2F11631   6.003   0.619  10.400  0.0780  0.1146  0.0997
  112OSM    H2F11632   5.952   0.570  10.486 -2.0672 -0.4831 -1.4390
  112OSM    H2G11633   6.103   0.576  10.377 -1.4495 -2.2442 -2.6717
  112OSM    C3F11634   5.910   0.588  10.279 -0.4033 -0.5866 -0.0007
  112OSM    H3F11635   5.817   0.648  10.292 -0.6788 -1.2833  1.4729
  112OSM    H3G11636   5.867   0.488  10.302 -0.9750 -0.0235  1.5484
  112OSM    C4F11637   5.970   0.615  10.140  0.1698  0.1782  0.1925
  112OSM    H4F11638   6.052   0.541  10.128  0.7824  1.3144 -4.2859
  112OSM    H4G11639   5.995   0.720  10.116 -1.8556  0.9639  1.2437
  112OSM    C5F11640   5.863   0.571  10.032  0.5155 -0.4098  0.4666
  112OSM    H5F11641   5.770   0.624  10.060 -0.8003 -2.3441 -0.0281
  112OSM    H5G11642   5.861   0.461  10.049  5.0275 -0.7449 -0.0975
  112OSM    C6F11643   5.914   0.608   9.894 -0.1500 -0.3034  0.0224
  112OSM    H6F11644   5.996   0.535   9.876  1.7061  1.7784 -0.3007
  112OSM    H6G11645   5.952   0.709   9.871  0.0372 -1.0017 -3.3300
  112OSM    C7F11646   5.816   0.572   9.778 -0.3260 -0.7031  0.3398
  112OSM    H7F11647   5.738   0.651   9.783 -1.7113 -1.9343 -0.7581
  112OSM    H7G11648   5.767   0.474   9.800 -0.5101 -0.0790  3.0941
  112OSM    C8F11649   5.883   0.580   9.643 -0.5016 -0.1962  0.0664
  112OSM    H8F11650   5.952   0.667   9.641  1.0612 -1.4040 -0.4988
  112OSM    H8G11651   5.806   0.602   9.566 -0.5108  0.2237  0.1883
  112OSM    C9F11652   5.957   0.453   9.610  0.9960  0.2237  0.0915
  112OSM    H9F11653   6.002   0.407   9.700 -0.4319  1.4538  1.4875
  112OSM   C10F11654   5.957   0.387   9.489 -0.8646  0.2023  0.3375
  112OSM   H10F11655   6.021   0.298   9.482  0.7375  1.2054  1.3632
  112OSM   C11F11656   5.892   0.429   9.359 -0.0166 -0.6101  0.0584
  112OSM   H11F11657   5.889   0.540   9.351 -0.5651 -0.5402  1.0576
  112OSM   H11G11658   5.786   0.397   9.352  0.4430 -2.4842  1.1069
  112OSM   C12F11659   5.979   0.374   9.245 -0.4485 -0.1989  0.0621
  112OSM   H12F11660   5.956   0.265   9.241  0.9424 -0.5118  0.1389
  112OSM   H12G11661   6.085   0.399   9.266 -1.0865  2.0495  0.8052
  112OSM   C13F11662   5.960   0.449   9.107 -0.2685 -0.0068  0.7045
  112OSM   H13F11663   6.045   0.514   9.077 -1.1113  0.9409  0.3163
  112OSM   H13G11664   5.871   0.516   9.106 -1.1510 -1.1431  0.1733
  112OSM   C14F11665   5.933   0.359   8.992 -0.1523 -0.4756  0.7470
  112OSM   H14F11666   5.828   0.322   8.989 -1.7378  3.5604  0.2273
  112OSM   H14G11667   6.004   0.273   8.992 -0.8431 -1.0923 -0.7093
  112OSM   C15F11668   5.953   0.435   8.854  0.2721 -0.6826  0.0400
  112OSM   H15F11669   6.042   0.500   8.865 -0.8503  0.8121  0.8004
  112OSM   H15G11670   5.862   0.499   8.842 -1.1596 -2.2041  2.2164
  112OSM   C16F11671   5.964   0.348   8.725  0.3356  0.6460 -0.0820
  112OSM   H16F11672   5.878   0.283   8.697 -0.4076  2.5438 -2.4658
  112OSM   H16G11673   6.051   0.282   8.744  0.2424 -0.0817 -1.9939
  112OSM   C17F11674   5.988   0.437   8.610  0.1583  0.0730 -0.4010
  112OSM   H17F11675   6.081   0.488   8.643  0.6528 -0.2776 -1.1987
  112OSM   H17G11676   5.903   0.507   8.598 -0.0602 -0.0261  0.5542
  112OSM   C18F11677   6.016   0.363   8.481  0.4911  0.4389 -0.3332
  112OSM   H18F11678   5.926   0.306   8.447  0.9946 -0.7908  0.3192
  112OSM   H18G11679   6.098   0.289   8.492  0.4323  0.3318 -0.5844
  112OSM   H18H11680   6.034   0.436   8.399 -1.6233  2.9457  1.2861
  113OSM      N11681   2.052   5.739  11.079 -0.1258 -0.0416 -0.4377
  113OSM    C1511682   2.003   5.682  11.210 -0.3292 -0.0384  0.5614
  113OSM   H15A11683   2.079   5.702  11.285  0.4071 -0.1897 -0.1366
  113OSM   H15B11684   1.983   5.576  11.207 -3.2661  0.4705 -1.5657
  113OSM   H15C11685   1.909   5.727  11.239 -0.0718  1.2891 -0.5218
  113OSM    C1411686   2.118   5.865  11.111  0.1325 -0.5929 -0.5695
  113OSM   H14A11687   2.169   5.915  11.030  2.6088  0.3411  1.4420
  113OSM   H14B11688   2.188   5.846  11.191 -1.2300  1.1669  1.1172
  113OSM   H14C11689   2.040   5.929  11.148 -0.6901 -3.4754  3.3166
  113OSM    C1311690   2.151   5.638  11.026 -0.2440  0.0499  0.3791
  113OSM   H13A11691   2.106   5.540  11.020 -0.8017  0.3440 -0.3103
  113OSM   H13B11692   2.237   5.631  11.092 -0.8221 -0.5370  1.0814
  113OSM   H13C11693   2.178   5.664  10.925 -2.5786 -0.6082 -0.4642
  113OSM    C1211694   1.942   5.770  10.980  0.3166 -0.4627  0.3212
  113OSM   H12A11695   1.962   5.852  10.913 -0.9687 -0.3238  0.0882
  113OSM   H12B11696   1.864   5.798  11.050  0.2014 -2.5175  1.0803
  113OSM    C1111697   1.879   5.656  10.898 -0.0765  0.1209  0.2950
  113OSM   H11A11698   1.965   5.615  10.842  0.3999  0.9776  0.3798
  113OSM   H11B11699   1.820   5.703  10.816  1.5781  1.3716 -0.2310
  113OSM      P11700   1.641   5.569  10.971 -0.2212 -0.3902 -0.3027
  113OSM    O1311701   1.592   5.459  11.052 -0.0998  0.2993  0.0648
  113OSM    O1411702   1.609   5.701  11.027  0.0449  0.8983 -0.1007
  113OSM    O1111703   1.600   5.560  10.816  0.2778 -0.3183 -0.1463
  113OSM    O1211704   1.801   5.562  10.964  0.2223  0.4078 -1.0451
  113OSM    C1S11705   1.465   5.579  10.780  0.5283 -0.4532 -0.7023
  113OSM    H1S11706   1.437   5.686  10.795 -1.5745 -1.1807  1.1362
  113OSM    H1T11707   1.400   5.522  10.849  2.1833  0.5200  1.7894
  113OSM     NF11708   1.296   5.578  10.614  0.7098  0.0955 -0.4878
  113OSM    HNF11709   1.227   5.516  10.650  0.8907 -0.5962 -1.3271
  113OSM    C2S11710   1.435   5.549  10.630 -0.2724  0.4534 -0.9340
  113OSM    H2S11711   1.493   5.619  10.566  0.6562 -0.7535 -1.4575
  113OSM    C3S11712   1.470   5.407  10.590 -0.1158 -0.2421  0.5549
  113OSM    H3S11713   1.401   5.333  10.637  0.8968 -1.3182  0.4094
  113OSM     O311714   1.603   5.373  10.626 -0.5464 -0.5166 -0.8144
  113OSM    HO311715   1.628   5.450  10.677 -3.1464  0.4562 -0.8537
  113OSM    C4S11716   1.471   5.398  10.448  0.0815  0.1554  0.9811
  113OSM    H4S11717   1.567   5.425  10.401 -0.2192  0.4660  0.5445
  113OSM    C5S11718   1.371   5.350  10.373  0.2254  0.2743  0.3057
  113OSM    H5S11719   1.278   5.328  10.427  0.6014 -0.4658  0.6666
  113OSM    C6S11720   1.375   5.329  10.222 -1.1975 -0.1151  0.0829
  113OSM    H6S11721   1.369   5.225  10.186 -0.6993  0.5859 -2.1917
  113OSM    H6T11722   1.470   5.373  10.185 -0.1409 -0.6950  2.0173
  113OSM    C7S11723   1.262   5.404  10.155 -0.7725  0.1294 -0.0478
  113OSM    H7S11724   1.269   5.512  10.178 -0.4677 -0.1471  1.2267
  113OSM    H7T11725   1.164   5.362  10.190 -0.7588  0.3682  0.2815
  113OSM    C8S11726   1.262   5.396   9.999  0.1312 -0.2475  0.0752
  113OSM    H8S11727   1.367   5.394   9.962  0.2955 -2.8898  0.4825
  113OSM    H8T11728   1.208   5.480   9.949  0.1480 -0.7827 -0.8641
  113OSM    C9S11729   1.181   5.271   9.948 -0.1012  0.1264 -0.2790
  113OSM    H9S11730   1.076   5.304   9.935  0.2327  0.9029 -1.1098
  113OSM    H9T11731   1.181   5.192  10.027  1.5158  1.2801  0.9427
  113OSM   C10S11732   1.241   5.235   9.814  0.1435  1.1385  0.3001
  113OSM   H10S11733   1.339   5.182   9.818 -0.0221  0.8005 -0.0187
  113OSM   H10T11734   1.262   5.329   9.759 -2.2696  1.0638 -0.8384
  113OSM   C11S11735   1.151   5.154   9.728 -0.2136 -0.3108  0.4248
  113OSM   H11S11736   1.053   5.204   9.710  0.4822  1.4230  1.2834
  113OSM   H11T11737   1.145   5.061   9.788  3.1376  1.0023  3.0575
  113OSM   C12S11738   1.212   5.120   9.595 -0.3485  0.0597  0.8313
  113OSM   H12S11739   1.321   5.100   9.608  0.5748  3.6806 -0.1322
  113OSM   H12T11740   1.203   5.211   9.532 -0.4109  0.4082  1.3388
  113OSM   C13S11741   1.127   5.019   9.527 -0.0604 -0.5424 -0.1313
  113OSM   H13S11742   1.029   5.059   9.494  1.0134  1.6949 -0.7829
  113OSM   H13T11743   1.102   4.945   9.606  2.0576 -2.3351 -1.0543
  113OSM   C14S11744   1.186   4.955   9.401 -0.8923  0.1217  0.2678
  113OSM   H14S11745   1.283   4.911   9.435 -0.1145  2.3488  1.1436
  113OSM   H14T11746   1.207   5.041   9.334 -0.5303 -0.1156  0.0699
  113OSM   C15S11747   1.111   4.850   9.312 -0.3530  0.0570  0.1789
  113OSM   H15S11748   1.020   4.898   9.271 -1.9835 -2.1217  1.0705
  113OSM   H15T11749   1.065   4.767   9.370  0.6872  0.3194  1.4112
  113OSM   C16S11750   1.185   4.772   9.194 -0.4399 -0.2738 -0.2127
  113OSM   H16S11751   1.236   4.848   9.131  0.5217 -1.2408 -0.6431
  113OSM   H16T11752   1.114   4.708   9.138 -1.2811 -1.4089  2.0310
  113OSM   C17S11753   1.289   4.675   9.244 -0.2395  0.2071  0.0240
  113OSM   H17S11754   1.237   4.601   9.309 -0.0586  0.4392  0.4328
  113OSM   H17T11755   1.356   4.731   9.313  0.5019  1.4564 -1.6312
  113OSM   C18S11756   1.370   4.599   9.131  0.0137  0.4275  0.0452
  113OSM   H18S11757   1.303   4.530   9.076 -2.3894  1.5965  1.3319
  113OSM   H18T11758   1.447   4.539   9.184  1.4614  0.1631 -2.2075
  113OSM   H18U11759   1.418   4.674   9.064  0.1552  0.0928 -0.2289
  113OSM    C1F11760   1.251   5.703  10.582  0.1734  0.8735 -0.8393
  113OSM     OF11761   1.326   5.801  10.574 -0.1890 -0.1616  0.1116
  113OSM    C2F11762   1.100   5.714  10.589  0.0767  0.0662 -0.1900
  113OSM    H2F11763   1.059   5.771  10.675 -1.6611  0.5080 -1.2877
  113OSM    H2G11764   1.066   5.608  10.592  3.1625 -1.0547 -0.9332
  113OSM    C3F11765   1.058   5.774  10.458  1.6030 -1.3954  0.6123
  113OSM    H3F11766   1.074   5.884  10.454 -1.4382 -0.7978  2.0454
  113OSM    H3G11767   0.948   5.767  10.453  1.4825  0.5714 -0.7218
  113OSM    C4F11768   1.106   5.705  10.328  0.6531  0.0176 -0.6214
  113OSM    H4F11769   1.075   5.598  10.330  1.2986 -0.1673  0.2331
  113OSM    H4G11770   1.215   5.711  10.312  0.5470 -0.4778 -1.5736
  113OSM    C5F11771   1.040   5.772  10.203  0.1892 -0.7087  0.1981
  113OSM    H5F11772   0.941   5.811  10.232  0.3582  0.7134 -1.0453
  113OSM    H5G11773   1.013   5.682  10.143 -3.1835 -1.7681  2.9434
  113OSM    C6F11774   1.137   5.870  10.131 -0.6656 -0.3355 -0.3490
  113OSM    H6F11775   1.241   5.831  10.137  0.1833  2.0072  1.5171
  113OSM    H6G11776   1.154   5.954  10.201  2.7368 -0.0580 -1.3249
  113OSM    C7F11777   1.095   5.906   9.992  0.0183 -0.1734 -0.0413
  113OSM    H7F11778   0.989   5.941   9.995 -0.4152 -1.5156  1.2703
  113OSM    H7G11779   1.102   5.811   9.936 -0.7591 -0.6518  0.6399
  113OSM    C8F11780   1.167   6.017   9.913  0.6115  0.6535  0.0772
  113OSM    H8F11781   1.143   6.004   9.805  0.3603  0.0280  0.2075
  113OSM    H8G11782   1.276   5.996   9.917  0.8169  1.6827  0.3113
  113OSM    C9F11783   1.147   6.154   9.976  0.3787 -0.0088  0.3404
  113OSM    H9F11784   1.129   6.150  10.084 -0.6811  0.6058  0.1984
  113OSM   C10F11785   1.127   6.270   9.915  0.4626  0.0691 -0.1972
  113OSM   H10F11786   1.125   6.365   9.971  0.9924  0.5888 -1.0443
  113OSM   C11F11787   1.136   6.289   9.762 -0.2449  0.6363 -0.0410
  113OSM   H11F11788   1.226   6.241   9.720  0.9600  3.0083 -0.3535
  113OSM   H11G11789   1.159   6.396   9.744  1.4403  0.2760 -0.1356
  113OSM   C12F11790   1.014   6.238   9.670 -0.4629  0.4350  0.0819
  113OSM   H12F11791   0.911   6.262   9.703 -0.2611  0.7138  0.5228
  113OSM   H12G11792   1.030   6.129   9.662 -0.5380  0.4156  0.2060
  113OSM   C13F11793   1.031   6.287   9.525 -0.6170 -0.2094 -0.4504
  113OSM   H13F11794   1.130   6.255   9.487 -0.4083  0.9139 -0.9062
  113OSM   H13G11795   1.039   6.398   9.529  0.4558 -0.2607 -0.7948
  113OSM   C14F11796   0.917   6.250   9.436 -0.8950 -0.0255 -0.0735
  113OSM   H14F11797   0.834   6.302   9.489 -1.3248 -0.3458 -0.4294
  113OSM   H14G11798   0.902   6.140   9.434  3.1090 -0.7440  0.4812
  113OSM   C15F11799   0.940   6.316   9.299 -0.6322  0.7870  0.7892
  113OSM   H15F11800   0.978   6.419   9.315  2.0515  0.2883 -1.5195
  113OSM   H15G11801   0.844   6.326   9.246 -0.8045 -0.0765  0.9272
  113OSM   C16F11802   1.043   6.244   9.209 -0.5870  0.1530 -0.3488
  113OSM   H16F11803   1.025   6.135   9.199  2.0934 -0.2960 -1.0687
  113OSM   H16G11804   1.146   6.271   9.240 -0.5762  1.7007 -1.5931
  113OSM   C17F11805   1.025   6.305   9.066 -0.1072  0.3146  1.2608
  113OSM   H17F11806   1.076   6.403   9.065 -0.2464  0.4989 -2.6995
  113OSM   H17G11807   0.916   6.315   9.044  0.1622 -1.1580 -1.1240
  113OSM   C18F11808   1.102   6.216   8.970  0.0640  0.3592 -0.0380
  113OSM   H18F11809   1.211   6.233   8.975  0.7323 -3.0535 -0.9029
  113OSM   H18G11810   1.064   6.233   8.867  1.5243  0.3180 -0.6003
  113OSM   H18H11811   1.088   6.108   8.990 -0.2932  0.2364 -0.8821
  114OSM      N11812   1.200   3.449  11.207 -0.2396 -0.6158 -0.1156
  114OSM    C1511813   1.124   3.334  11.268  0.4549  0.1983 -0.7895
  114OSM   H15A11814   1.018   3.345  11.250  0.4187 -1.2533 -1.6325
  114OSM   H15B11815   1.153   3.325  11.372 -0.5171 -1.8565 -0.6545
  114OSM   H15C11816   1.154   3.238  11.229  1.7444  0.4662 -0.4992
  114OSM    C1411817   1.234   3.418  11.067 -0.0069 -0.5233  0.2359
  114OSM   H14A11818   1.282   3.505  11.025 -0.5777 -1.1719 -1.8801
  114OSM   H14B11819   1.141   3.410  11.012  0.5933 -1.3009 -0.6829
  114OSM   H14C11820   1.300   3.335  11.049  0.0553  0.0997 -2.9865
  114OSM    C1311821   1.109   3.573  11.211  0.3481 -0.1830  0.0788
  114OSM   H13A11822   1.157   3.654  11.158 -1.1438  2.2100  2.1549
  114OSM   H13B11823   1.092   3.609  11.311 -0.3862 -0.5930  0.1029
  114OSM   H13C11824   1.016   3.550  11.162  0.2842 -0.5843  0.3802
  114OSM    C1211825   1.329   3.470  11.287 -0.0334  1.0909 -0.3822
  114OSM   H12A11826   1.293   3.494  11.386 -0.7796 -0.4020 -0.2653
  114OSM   H12B11827   1.393   3.541  11.237  0.7758  0.3189 -0.4809
  114OSM    C1111828   1.420   3.346  11.323  0.0297 -0.1544 -0.6359
  114OSM   H11A11829   1.498   3.385  11.392  0.1129 -0.7474 -0.3874
  114OSM   H11B11830   1.476   3.326  11.229 -0.4459  1.0878 -1.1938
  114OSM      P11831   1.443   3.108  11.402  0.3200 -0.2036 -0.3612
  114OSM    O1311832   1.558   3.130  11.484  0.2644 -0.0441  0.7250
  114OSM    O1411833   1.349   3.000  11.445  0.5410 -0.5290 -0.2957
  114OSM    O1111834   1.500   3.079  11.259 -0.1019  0.5053 -0.5688
  114OSM    O1211835   1.354   3.238  11.392  0.4890  0.4436  0.3671
  114OSM    C1S11836   1.415   3.047  11.154  0.1154  0.4225 -0.3970
  114OSM    H1S11837   1.342   3.130  11.138  0.3003  0.3133 -2.0238
  114OSM    H1T11838   1.359   2.955  11.180  0.2397  0.6641  0.7623
  114OSM     NF11839   1.407   3.016  10.905 -0.0927 -0.3967 -0.6871
  114OSM    HNF11840   1.377   2.924  10.880 -0.0519 -1.2162  1.9846
  114OSM    C2S11841   1.494   3.029  11.024 -0.0470  0.3750  0.6732
  114OSM    H2S11842   1.561   3.118  11.021 -0.6927  0.8701 -2.0791
  114OSM    C3S11843   1.579   2.897  11.033 -0.4376 -0.2296 -0.2459
  114OSM    H3S11844   1.511   2.810  11.028  1.9475 -2.1770 -0.2942
  114OSM     O311845   1.649   2.890  11.159  0.2165  0.1048  0.1102
  114OSM    HO311846   1.610   2.959  11.214 -1.7681 -1.4939  0.8245
  114OSM    C4S11847   1.678   2.886  10.919 -0.6564  0.9291 -0.6630
  114OSM    H4S11848   1.728   2.981  10.894 -0.6734  1.0745 -0.1631
  114OSM    C5S11849   1.703   2.774  10.842  0.4195 -0.0884  0.0870
  114OSM    H5S11850   1.641   2.683  10.846  0.6677 -0.4780 -3.0703
  114OSM    C6S11851   1.797   2.774  10.725  0.2498  0.9540 -0.4591
  114OSM    H6S11852   1.752   2.712  10.645  1.8503 -1.2761  0.2683
  114OSM    H6T11853   1.883   2.711  10.756 -1.4372 -1.6836 -0.8266
  114OSM    C7S11854   1.838   2.915  10.677  0.2536  0.1993 -0.1477
  114OSM    H7S11855   1.894   2.973  10.754  1.0107 -0.1781 -0.4109
  114OSM    H7T11856   1.739   2.964  10.666 -0.0532  1.0357  4.2452
  114OSM    C8S11857   1.928   2.900  10.550  0.4028  0.2529 -0.5825
  114OSM    H8S11858   1.934   3.006  10.518 -0.9580  0.3696 -0.4914
  114OSM    H8T11859   1.875   2.852  10.465  0.6787 -0.4198 -0.3827
  114OSM    C9S11860   2.068   2.838  10.562  0.8835  0.0401  0.5721
  114OSM    H9S11861   2.048   2.737  10.602 -0.4050 -1.3130 -3.0553
  114OSM    H9T11862   2.134   2.887  10.636  1.2099  0.3583  0.0808
  114OSM   C10S11863   2.150   2.834  10.424 -0.3055 -0.2275  0.0436
  114OSM   H10S11864   2.249   2.792  10.451  0.3277  0.9895 -0.3472
  114OSM   H10T11865   2.165   2.939  10.394  4.1878 -0.5351  0.6175
  114OSM   C11S11866   2.093   2.736  10.318 -0.1298 -0.1668 -0.2231
  114OSM   H11S11867   1.984   2.752  10.313 -0.1565  0.8964  2.3153
  114OSM   H11T11868   2.111   2.637  10.364  1.6262  1.1520  2.1533
  114OSM   C12S11869   2.168   2.747  10.183  0.5499  0.2956  0.8260
  114OSM   H12S11870   2.143   2.665  10.112  1.6152  0.3434  0.3741
  114OSM   H12T11871   2.272   2.731  10.221 -0.1712 -0.0003  2.7880
  114OSM   C13S11872   2.162   2.875  10.101  0.0489  0.2032 -0.0666
  114OSM   H13S11873   2.229   2.863  10.013 -0.3983  1.0593 -0.5439
  114OSM   H13T11874   2.196   2.966  10.156 -0.8013  0.7050 -0.3449
  114OSM   C14S11875   2.020   2.905  10.054  0.5200 -0.2202 -0.1594
  114OSM   H14S11876   1.955   2.918  10.143  2.2740 -0.6039  1.2269
  114OSM   H14T11877   1.980   2.813  10.005 -2.0170  1.9935 -2.6592
  114OSM   C15S11878   2.014   3.036   9.969  0.3425 -0.5709 -0.2481
  114OSM   H15S11879   2.089   3.109  10.005 -1.5575  1.8265 -0.9161
  114OSM   H15T11880   1.913   3.081   9.974  0.1368 -1.0060 -0.4242
  114OSM   C16S11881   2.058   3.017   9.815  0.8477  0.0221 -0.3375
  114OSM   H16S11882   1.998   2.928   9.785 -2.8225  2.1916 -0.0123
  114OSM   H16T11883   2.166   2.997   9.795  0.7172  0.9052 -2.0430
  114OSM   C17S11884   2.014   3.130   9.718  0.6455  1.0431  0.9911
  114OSM   H17S11885   2.065   3.228   9.732 -2.6501  3.2941 -1.2032
  114OSM   H17T11886   1.907   3.148   9.739 -0.0877 -1.1075 -0.5181
  114OSM   C18S11887   2.024   3.099   9.567  0.0172 -1.0860  0.0597
  114OSM   H18S11888   2.131   3.079   9.547  0.6399  0.5028  1.5447
  114OSM   H18T11889   1.990   3.185   9.504 -5.2459 -2.5836  0.3981
  114OSM   H18U11890   1.964   3.010   9.539 -0.1496  0.3119 -5.0322
  114OSM    C1F11891   1.375   3.125  10.846  0.4875 -0.8986  0.1846
  114OSM     OF11892   1.405   3.234  10.890 -0.2053  0.5390  0.4256
  114OSM    C2F11893   1.302   3.108  10.722 -0.4764  0.5681  0.9321
  114OSM    H2F11894   1.193   3.124  10.739 -0.7593  1.3589 -1.2815
  114OSM    H2G11895   1.323   3.006  10.684  0.0804  0.2965  1.9353
  114OSM    C3F11896   1.343   3.206  10.609  0.2217 -0.7124 -0.6071
  114OSM    H3F11897   1.348   3.311  10.646  0.2670 -1.8516  3.0496
  114OSM    H3G11898   1.265   3.193  10.531 -1.4900 -1.3081  1.1102
  114OSM    C4F11899   1.476   3.177  10.546 -0.7032 -0.3899 -0.1522
  114OSM    H4F11900   1.564   3.189  10.613  0.6692 -1.8522 -1.6156
  114OSM    H4G11901   1.495   3.246  10.461 -1.1686  1.0537  0.8551
  114OSM    C5F11902   1.489   3.029  10.489  0.1327 -0.1288 -0.1831
  114OSM    H5F11903   1.396   3.018  10.430  0.8293 -2.2073 -0.9732
  114OSM    H5G11904   1.495   2.956  10.571  0.8704  1.0555  0.8516
  114OSM    C6F11905   1.591   3.029  10.380 -0.4375  0.3682 -0.0128
  114OSM    H6F11906   1.693   3.027  10.424 -0.3154  2.2511 -0.1228
  114OSM    H6G11907   1.582   3.116  10.311 -0.0618  0.3214 -0.1216
  114OSM    C7F11908   1.574   2.903  10.291 -0.0172  0.0233  0.3833
  114OSM    H7F11909   1.467   2.911  10.264  0.2759  2.5878 -0.2168
  114OSM    H7G11910   1.579   2.803  10.341 -2.0369 -1.3256 -1.8644
  114OSM    C8F11911   1.661   2.920  10.165  0.2101 -0.2467 -0.0267
  114OSM    H8F11912   1.767   2.900  10.193 -0.2441 -2.0454  0.5487
  114OSM    H8G11913   1.637   3.025  10.137 -2.1113 -1.0090 -1.1910
  114OSM    C9F11914   1.632   2.839  10.043 -0.1789 -0.2294 -0.7789
  114OSM    H9F11915   1.631   2.730  10.061 -1.4596 -0.0248  0.5468
  114OSM   C10F11916   1.604   2.875   9.921 -0.7847 -0.0265 -0.2056
  114OSM   H10F11917   1.568   2.803   9.846 -1.1622  2.3444 -2.4364
  114OSM   C11F11918   1.601   3.016   9.871 -0.8255 -0.2719 -0.3004
  114OSM   H11F11919   1.699   3.063   9.888 -0.7214 -0.0089 -1.5366
  114OSM   H11G11920   1.524   3.069   9.931  0.6444  2.7027 -0.8836
  114OSM   C12F11921   1.554   3.025   9.725 -0.2971 -0.1229  0.8749
  114OSM   H12F11922   1.537   3.134   9.716  1.4291  0.4277  3.2565
  114OSM   H12G11923   1.454   2.979   9.717 -0.7070  0.9492 -0.5167
  114OSM   C13F11924   1.649   2.994   9.606 -0.0747  0.2378 -0.1618
  114OSM   H13F11925   1.683   2.888   9.613  1.5995  0.8350  1.6885
  114OSM   H13G11926   1.738   3.058   9.623 -1.6880  2.1136  1.8562
  114OSM   C14F11927   1.586   3.007   9.464 -0.2011  0.0227  0.5685
  114OSM   H14F11928   1.565   3.112   9.434 -0.3062 -1.2102 -4.6606
  114OSM   H14G11929   1.487   2.955   9.464 -1.4557  2.2252 -1.4321
  114OSM   C15F11930   1.660   2.960   9.339  0.0076  0.8306  0.0914
  114OSM   H15F11931   1.648   2.850   9.340 -0.8578  0.8746 -1.6302
  114OSM   H15G11932   1.768   2.987   9.335  0.2796 -0.2161  0.2360
  114OSM   C16F11933   1.595   3.004   9.202 -0.7902 -0.1312 -0.2181
  114OSM   H16F11934   1.638   2.944   9.120 -0.2747  0.0448 -0.0799
  114OSM   H16G11935   1.623   3.111   9.190  0.3655 -0.5878 -1.8821
  114OSM   C17F11936   1.448   3.006   9.198 -0.0272 -0.6540 -0.2333
  114OSM   H17F11937   1.418   3.097   9.253  0.6995 -1.1905  1.0968
  114OSM   H17G11938   1.397   2.925   9.255  1.0782 -0.3895  1.1830
  114OSM   C18F11939   1.397   3.014   9.053  0.1636 -0.0593 -0.2184
  114OSM   H18F11940   1.441   3.101   8.999  1.4302 -0.7145 -0.2912
  114OSM   H18G11941   1.287   3.028   9.057 -0.0911 -1.8114 -0.1646
  114OSM   H18H11942   1.431   2.928   8.991  0.9468  0.0739  0.0061
  115OSM      N11943   1.841   0.857   6.039  0.4353  0.6388  0.3671
  115OSM    C1511944   1.694   0.831   6.062  0.1370 -0.5103 -0.5943
  115OSM   H15A11945   1.676   0.726   6.046  0.1564 -0.5131 -0.5980
  115OSM   H15B11946   1.634   0.882   5.988  0.9278  1.6252  0.1717
  115OSM   H15C11947   1.654   0.859   6.158  0.9819  1.4948 -0.7809
  115OSM    C1411948   1.935   0.779   6.125  0.0808 -0.2576 -0.2450
  115OSM   H14A11949   2.036   0.809   6.104  0.4749 -1.0670  0.4252
  115OSM   H14B11950   1.922   0.673   6.105  0.9451 -0.5549  0.7377
  115OSM   H14C11951   1.916   0.796   6.229  0.9188 -0.4923 -0.0487
  115OSM    C1311952   1.865   0.814   5.894 -0.0003 -0.4582  0.0467
  115OSM   H13A11953   1.846   0.708   5.882  1.3318 -0.8254  0.8676
  115OSM   H13B11954   1.970   0.826   5.872  0.3418  0.5650  2.0272
  115OSM   H13C11955   1.798   0.870   5.831  0.7254 -0.1469 -0.4705
  115OSM    C1211956   1.869   1.003   6.062  0.1516 -0.7928 -0.2224
  115OSM   H12A11957   1.822   1.060   5.983  1.9956 -0.9830 -1.5213
  115OSM   H12B11958   1.975   1.019   6.052 -0.1283  0.2897 -1.8007
  115OSM    C1111959   1.834   1.067   6.197  0.1200  0.3623 -0.8630
  115OSM   H11A11960   1.728   1.041   6.214  0.5055  0.1576  1.5824
  115OSM   H11B11961   1.831   1.178   6.203  0.9839  0.3384  0.2460
  115OSM      P11962   2.044   1.103   6.341 -0.3292 -0.0233  0.0309
  115OSM    O1311963   2.150   1.017   6.400  0.0302 -0.4367 -0.6339
  115OSM    O1411964   2.092   1.186   6.226  0.7345  0.4425  0.2411
  115OSM    O1111965   1.992   1.203   6.453  0.0948 -0.5451  0.6289
  115OSM    O1211966   1.918   1.020   6.300 -0.7669 -0.5445 -1.1744
  115OSM    C1S11967   1.868   1.172   6.528 -0.6897 -0.2975  0.4788
  115OSM    H1S11968   1.847   1.063   6.532  0.2250 -0.4678  0.9375
  115OSM    H1T11969   1.781   1.226   6.485  0.1632  0.8258  0.0929
  115OSM     NF11970   1.774   1.134   6.751 -0.2665  0.2806  0.4495
  115OSM    HNF11971   1.700   1.191   6.783  1.6420  1.3826  3.2831
  115OSM    C2S11972   1.883   1.203   6.674  0.0573 -0.1707 -0.0093
  115OSM    H2S11973   1.981   1.162   6.705 -0.2155 -0.7950  0.0640
  115OSM    C3S11974   1.895   1.357   6.685  0.8793  0.3456 -0.4797
  115OSM    H3S11975   1.807   1.400   6.633  0.1290 -0.3173  0.2281
  115OSM     O311976   2.000   1.423   6.610  0.0382  0.4579 -0.2872
  115OSM    HO311977   2.021   1.362   6.538  0.8062 -0.0667  0.3649
  115OSM    C4S11978   1.898   1.409   6.827 -0.2371  0.0059  0.0274
  115OSM    H4S11979   1.798   1.430   6.868  1.4670  0.7386  4.3224
  115OSM    C5S11980   1.999   1.429   6.917  0.0126 -0.0303 -0.4135
  115OSM    H5S11981   2.096   1.390   6.883 -0.9142 -2.4088 -0.5226
  115OSM    C6S11982   1.988   1.479   7.056 -0.0246  0.3077 -0.0205
  115OSM    H6S11983   2.059   1.438   7.131  0.1658  0.1195 -0.3010
  115OSM    H6T11984   1.888   1.451   7.096 -0.2965  0.8761 -0.2913
  115OSM    C7S11985   2.005   1.629   7.076  0.0990  0.3482 -0.0186
  115OSM    H7S11986   1.927   1.675   7.012 -0.8025  0.0693  0.8531
  115OSM    H7T11987   2.100   1.676   7.044 -0.5123  2.9203  1.6353
  115OSM    C8S11988   1.966   1.671   7.219 -0.0248  1.0742  0.1592
  115OSM    H8S11989   1.863   1.630   7.230  0.9282 -1.2797  1.2149
  115OSM    H8T11990   1.961   1.781   7.233  3.4327  1.0249  3.2960
  115OSM    C9S11991   2.055   1.606   7.332 -0.0632  0.5554  0.5629
  115OSM    H9S11992   2.159   1.638   7.311  0.6277 -1.1008  1.3318
  115OSM    H9T11993   2.033   1.498   7.343 -2.4454  1.0749  1.7284
  115OSM   C10S11994   2.026   1.664   7.465 -0.3566 -0.0673 -0.1431
  115OSM   H10S11995   1.920   1.645   7.492 -0.3087 -1.0371 -0.6051
  115OSM   H10T11996   2.042   1.774   7.458  1.2217 -0.3609 -2.2385
  115OSM   C11S11997   2.109   1.606   7.585  0.7688 -0.4881  0.1857
  115OSM   H11S11998   2.218   1.615   7.563  0.7277  0.5504  0.3274
  115OSM   H11T11999   2.058   1.508   7.588 -2.3774  0.9762 -1.0519
  115OSM   C12S12000   2.095   1.668   7.729  0.5052  0.0487 -0.0153
  115OSM   H12S12001   1.986   1.666   7.750  0.8026  0.2907  1.7121
  115OSM   H12T12002   2.132   1.772   7.717 -1.2969  0.5017 -2.4161
  115OSM   C13S12003   2.173   1.591   7.844  0.0720  0.3033  0.4058
  115OSM   H13S12004   2.283   1.599   7.825  0.0696 -1.2237 -0.3355
  115OSM   H13T12005   2.145   1.484   7.845 -0.2416  0.3740 -0.5470
  115OSM   C14S12006   2.153   1.655   7.985 -0.1412  0.0216 -0.5734
  115OSM   H14S12007   2.052   1.642   8.029  0.0086 -2.6406 -0.8695
  115OSM   H14T12008   2.169   1.764   7.974 -2.2020  0.5611  1.1103
  115OSM   C15S12009   2.252   1.608   8.107  0.0955 -0.0860  0.3477
  115OSM   H15S12010   2.354   1.612   8.064 -0.0752 -1.0881 -0.1924
  115OSM   H15T12011   2.239   1.500   8.130 -0.0541  0.2348  1.8551
  115OSM   C16S12012   2.249   1.701   8.230  0.0843 -0.2730 -0.0120
  115OSM   H16S12013   2.148   1.695   8.276  0.0693 -0.4327 -0.0634
  115OSM   H16T12014   2.263   1.807   8.202  0.1022  0.4899  2.6006
  115OSM   C17S12015   2.354   1.656   8.335 -0.3815  0.4630 -0.5230
  115OSM   H17S12016   2.358   1.715   8.429 -1.5253  0.4712 -0.4628
  115OSM   H17T12017   2.452   1.674   8.287 -0.3708 -0.7988 -1.0160
  115OSM   C18S12018   2.349   1.511   8.365 -0.1273 -0.2942 -0.2524
  115OSM   H18S12019   2.418   1.487   8.448  2.7460  1.3414 -1.9725
  115OSM   H18T12020   2.380   1.455   8.274  1.1791  3.1941 -2.1891
  115OSM   H18U12021   2.246   1.479   8.393 -0.3588 -0.5270 -1.2951
  115OSM    C1F12022   1.776   1.003   6.781 -0.5430 -0.1402  0.5738
  115OSM     OF12023   1.865   0.925   6.743 -0.2176  0.1057  0.3595
  115OSM    C2F12024   1.670   0.948   6.870 -0.3365 -0.2003  0.1713
  115OSM    H2F12025   1.713   0.858   6.919 -1.3163 -0.4233  0.6367
  115OSM    H2G12026   1.589   0.903   6.809 -1.5389  1.8228  0.1818
  115OSM    C3F12027   1.607   1.036   6.979  0.3064  0.6066  0.7368
  115OSM    H3F12028   1.541   0.972   7.043  2.3731 -3.7452 -1.0553
  115OSM    H3G12029   1.548   1.112   6.924 -1.2212  0.0472  1.5491
  115OSM    C4F12030   1.698   1.110   7.084 -1.0427  0.1255  0.0774
  115OSM    H4F12031   1.764   1.173   7.021 -0.0260  0.9243  1.8535
  115OSM    H4G12032   1.773   1.045   7.134  0.5399  3.6234  2.6656
  115OSM    C5F12033   1.627   1.187   7.198  0.1643 -0.6202 -0.4815
  115OSM    H5F12034   1.545   1.121   7.235  1.7523 -2.0846  0.6062
  115OSM    H5G12035   1.577   1.276   7.156 -0.3254  0.0001  1.3280
  115OSM    C6F12036   1.708   1.227   7.316  0.0815  0.4608  0.2206
  115OSM    H6F12037   1.803   1.265   7.273 -0.0392  1.8832  1.1567
  115OSM    H6G12038   1.726   1.137   7.379  1.4001  0.7185  0.2378
  115OSM    C7F12039   1.630   1.321   7.407 -0.1031 -0.3410 -0.6700
  115OSM    H7F12040   1.523   1.292   7.405  0.1043 -1.6826  1.9558
  115OSM    H7G12041   1.645   1.424   7.369 -3.5187  0.1323 -0.9689
  115OSM    C8F12042   1.654   1.321   7.562  0.6999 -0.2790  0.2012
  115OSM    H8F12043   1.642   1.217   7.601 -0.5775 -0.5542 -0.8541
  115OSM    H8G12044   1.572   1.379   7.609  1.2296  0.5850  0.0821
  115OSM    C9F12045   1.792   1.368   7.596  0.3070 -0.1826 -1.0077
  115OSM    H9F12046   1.852   1.407   7.512  1.5457  0.5961  0.1867
  115OSM   C10F12047   1.836   1.375   7.723 -0.3245 -0.4030 -0.1677
  115OSM   H10F12048   1.938   1.411   7.744  1.2048 -3.0317 -2.5352
  115OSM   C11F12049   1.752   1.337   7.843  0.2055  0.0246  0.0617
  115OSM   H11F12050   1.646   1.316   7.814 -0.6089  0.2597  2.6197
  115OSM   H11G12051   1.746   1.419   7.918  1.0234 -3.8235  4.8887
  115OSM   C12F12052   1.813   1.225   7.935 -0.0461 -0.0992 -0.0540
  115OSM   H12F12053   1.857   1.142   7.876 -0.2300  1.1322 -2.0244
  115OSM   H12G12054   1.730   1.178   7.992  1.0210 -2.1602 -0.1229
  115OSM   C13F12055   1.914   1.276   8.036 -0.5882  0.1762 -0.0410
  115OSM   H13F12056   1.874   1.367   8.085 -0.2143  0.4282 -0.1990
  115OSM   H13G12057   1.998   1.316   7.974 -1.9870 -1.7610 -3.4865
  115OSM   C14F12058   1.964   1.174   8.137 -0.4036 -0.0515  0.3521
  115OSM   H14F12059   2.038   1.111   8.083  0.4547  0.6035  0.7403
  115OSM   H14G12060   1.882   1.103   8.161 -1.1542  1.1586  1.5038
  115OSM   C15F12061   2.023   1.229   8.260  0.1504 -0.2633 -0.4152
  115OSM   H15F12062   2.099   1.307   8.236 -0.2352 -0.3269 -1.9486
  115OSM   H15G12063   2.086   1.159   8.318  0.1907  0.6127  0.6491
  115OSM   C16F12064   1.914   1.292   8.349 -0.1469  0.0299  0.3218
  115OSM   H16F12065   1.831   1.222   8.370  0.4633 -0.5845  0.7304
  115OSM   H16G12066   1.870   1.383   8.303 -0.1179 -1.6429 -3.3968
  115OSM   C17F12067   1.979   1.342   8.482  0.4111 -0.0333 -0.7797
  115OSM   H17F12068   2.041   1.432   8.461 -3.1048  2.8259 -0.0643
  115OSM   H17G12069   2.033   1.259   8.532 -2.5202 -0.9623  1.0881
  115OSM   C18F12070   1.876   1.385   8.586  0.5569  0.0625  0.6210
  115OSM   H18F12071   1.796   1.447   8.539  1.8667  0.6488 -0.9195
  115OSM   H18G12072   1.921   1.437   8.673 -1.8303  1.7692  0.9276
  115OSM   H18H12073   1.825   1.296   8.628 -1.9969  1.0311 -0.2266
  116OSM      N12074   2.582   4.516   5.999  0.2722 -0.1493  0.4165
  116OSM    C1512075   2.442   4.543   5.958  0.5587 -0.1715 -0.5898
  116OSM   H15A12076   2.381   4.465   6.000 -0.4977  0.5917 -0.6687
  116OSM   H15B12077   2.440   4.543   5.850 -0.4733  1.5954 -0.6105
  116OSM   H15C12078   2.409   4.637   6.000  2.4929 -0.0882  0.8713
  116OSM    C1412079   2.620   4.381   5.958 -0.2962 -0.6606 -0.0566
  116OSM   H14A12080   2.649   4.376   5.854 -0.8563  0.6548 -0.3031
  116OSM   H14B12081   2.549   4.303   5.981  0.0273 -0.7985  0.5112
  116OSM   H14C12082   2.696   4.349   6.028  1.0695 -0.0487 -1.2271
  116OSM    C1312083   2.676   4.611   5.925  0.0840  0.7854 -0.4705
  116OSM   H13A12084   2.664   4.604   5.818  0.1259  1.3104 -0.5124
  116OSM   H13B12085   2.777   4.587   5.955 -0.2015 -1.9917 -1.4249
  116OSM   H13C12086   2.659   4.710   5.965  2.7843  0.7470  1.0118
  116OSM    C1212087   2.601   4.536   6.145  0.0484 -0.7390 -0.5660
  116OSM   H12A12088   2.514   4.494   6.191 -0.4141  0.8648  0.1021
  116OSM   H12B12089   2.591   4.639   6.177 -3.0032 -0.6048 -1.5748
  116OSM    C1112090   2.721   4.465   6.205  0.1178  1.0821 -0.0184
  116OSM   H11A12091   2.732   4.512   6.305  0.1336 -2.0346  1.5474
  116OSM   H11B12092   2.812   4.488   6.146  0.4776 -1.7634 -0.6829
  116OSM      P12093   2.584   4.243   6.282 -0.0387 -0.0709 -0.4787
  116OSM    O1312094   2.475   4.214   6.195  0.0538 -0.3820 -0.2972
  116OSM    O1412095   2.644   4.122   6.344 -0.0574  0.5660  0.4655
  116OSM    O1112096   2.536   4.345   6.388 -0.3632 -0.2280 -1.2991
  116OSM    O1212097   2.708   4.318   6.218 -0.0839 -0.5144  0.3613
  116OSM    C1S12098   2.594   4.352   6.520  0.2040 -0.4047 -0.2022
  116OSM    H1S12099   2.670   4.432   6.510  1.3760 -1.5116 -0.5273
  116OSM    H1T12100   2.638   4.255   6.553 -0.1491 -0.6829 -0.5321
  116OSM     NF12101   2.538   4.455   6.735  0.2989 -0.2229  0.0716
  116OSM    HNF12102   2.521   4.405   6.820 -1.0704  0.7932  0.4323
  116OSM    C2S12103   2.476   4.409   6.609  0.4776 -0.2518 -0.3668
  116OSM    H2S12104   2.426   4.493   6.555 -1.0968 -0.2752  0.9666
  116OSM    C3S12105   2.363   4.307   6.630  0.1183 -0.5374  0.4129
  116OSM    H3S12106   2.414   4.216   6.668  0.1258 -0.9912 -0.6356
  116OSM     O312107   2.292   4.272   6.509 -0.2484  0.2131  0.7042
  116OSM    HO312108   2.330   4.327   6.440 -2.5175  0.4449 -0.4495
  116OSM    C4S12109   2.259   4.355   6.736 -0.9505  0.2691  0.1768
  116OSM    H4S12110   2.297   4.351   6.839  2.7845  2.3708 -0.9507
  116OSM    C5S12111   2.145   4.420   6.723  0.0324 -0.6504 -0.3278
  116OSM    H5S12112   2.138   4.463   6.622 -0.3701  0.7632  0.2765
  116OSM    C6S12113   2.036   4.469   6.819 -0.2654  0.0146  0.3680
  116OSM    H6S12114   1.935   4.432   6.790 -0.3714 -0.8599  1.7279
  116OSM    H6T12115   2.019   4.578   6.828  0.6245  0.3482 -1.5125
  116OSM    C7S12116   2.064   4.414   6.965  0.2862 -0.4574  1.1480
  116OSM    H7S12117   2.157   4.460   7.003 -0.6989  1.4675  1.3606
  116OSM    H7T12118   2.064   4.303   6.963  1.0731 -0.4503  0.1417
  116OSM    C8S12119   1.955   4.462   7.058 -0.0963 -0.0344  0.3054
  116OSM    H8S12120   1.857   4.416   7.035  0.2992 -0.8993  0.3093
  116OSM    H8T12121   1.942   4.571   7.046 -3.0273 -0.3580 -0.1077
  116OSM    C9S12122   1.985   4.420   7.204 -0.2834 -0.2261 -0.1003
  116OSM    H9S12123   2.084   4.452   7.243 -1.2908  3.3661 -0.0735
  116OSM    H9T12124   1.973   4.311   7.220 -2.3356  0.1104  0.9618
  116OSM   C10S12125   1.890   4.496   7.293  0.2618  0.2520 -0.0870
  116OSM   H10S12126   1.875   4.599   7.253  1.2248 -0.2762 -1.9368
  116OSM   H10T12127   1.930   4.491   7.397 -1.2062  0.9297  0.5428
  116OSM   C11S12128   1.749   4.437   7.297  0.4844 -0.1016 -0.1561
  116OSM   H11S12129   1.743   4.329   7.323  0.3248 -0.3081 -0.9997
  116OSM   H11T12130   1.714   4.460   7.194  2.3716 -1.4249 -1.1387
  116OSM   C12S12131   1.645   4.515   7.392 -0.5922  0.1940 -0.4462
  116OSM   H12S12132   1.547   4.509   7.340 -1.2341  0.0152  0.7480
  116OSM   H12T12133   1.676   4.621   7.402  0.1097 -0.2027  2.9958
  116OSM   C13S12134   1.648   4.457   7.538  0.4707 -0.4178  0.1400
  116OSM   H13S12135   1.753   4.455   7.576  0.5643  2.7521  0.3401
  116OSM   H13T12136   1.623   4.350   7.522  0.6501 -0.1279 -2.5190
  116OSM   C14S12137   1.567   4.533   7.644  0.0150  0.3942 -0.5382
  116OSM   H14S12138   1.461   4.543   7.610 -0.5620  0.6163  1.2278
  116OSM   H14T12139   1.612   4.633   7.660 -0.2316  0.5208 -0.6158
  116OSM   C15S12140   1.577   4.453   7.779  0.5228  0.7162 -0.1986
  116OSM   H15S12141   1.681   4.464   7.817 -0.2781  1.3265  1.9697
  116OSM   H15T12142   1.564   4.345   7.755  2.2649  0.6776 -1.1702
  116OSM   C16S12143   1.482   4.508   7.881  0.2746  0.3345  0.2510
  116OSM   H16S12144   1.381   4.492   7.836 -0.3909  2.4646  0.8855
  116OSM   H16T12145   1.496   4.617   7.893 -0.6706  0.5886 -0.7742
  116OSM   C17S12146   1.485   4.445   8.019 -0.2514  0.8157  0.4584
  116OSM   H17S12147   1.591   4.448   8.053  0.5393  0.9410 -1.8559
  116OSM   H17T12148   1.464   4.338   8.003  0.3630  0.7188  0.2617
  116OSM   C18S12149   1.396   4.498   8.131  0.4974  0.5294 -1.0199
  116OSM   H18S12150   1.290   4.491   8.101  0.4062  2.1802 -1.1900
  116OSM   H18T12151   1.412   4.606   8.149  0.8148  0.3430 -0.0938
  116OSM   H18U12152   1.418   4.447   8.227  0.0011  2.4527  0.1683
  116OSM    C1F12153   2.603   4.577   6.741  0.0054  0.5480  0.1171
  116OSM     OF12154   2.611   4.640   6.637  0.3370 -0.7426 -0.8165
  116OSM    C2F12155   2.661   4.607   6.878  0.4166  0.0840  0.1963
  116OSM    H2F12156   2.763   4.563   6.888  0.2271 -0.5396 -0.4576
  116OSM    H2G12157   2.593   4.561   6.952  0.4222  1.5773  1.1521
  116OSM    C3F12158   2.668   4.759   6.911  0.3373  0.4542  0.1592
  116OSM    H3F12159   2.577   4.818   6.888 -0.2588 -0.1467  0.9188
  116OSM    H3G12160   2.740   4.794   6.834 -0.2022 -0.8870 -0.9994
  116OSM    C4F12161   2.714   4.798   7.051 -0.2812  0.3802 -0.1255
  116OSM    H4F12162   2.737   4.907   7.062 -0.7504  0.3842  1.0313
  116OSM    H4G12163   2.809   4.746   7.073 -1.4592 -1.2398  1.4759
  116OSM    C5F12164   2.616   4.766   7.165  0.4334 -0.4659 -0.0020
  116OSM    H5F12165   2.575   4.665   7.143  2.0781 -1.8597  2.8131
  116OSM    H5G12166   2.527   4.833   7.165  0.0662 -0.9406  0.9279
  116OSM    C6F12167   2.683   4.753   7.301  0.0179 -0.5521 -0.6726
  116OSM    H6F12168   2.775   4.692   7.299  0.2855 -0.4989  3.0100
  116OSM    H6G12169   2.620   4.691   7.368  0.5109 -0.2445  0.0887
  116OSM    C7F12170   2.691   4.887   7.374 -0.3392 -0.5923 -0.3241
  116OSM    H7F12171   2.584   4.916   7.376 -0.0802  0.9067 -2.9764
  116OSM    H7G12172   2.745   4.957   7.306 -0.7404 -3.4367 -3.9194
  116OSM    C8F12173   2.740   4.874   7.528  0.2024 -0.2537  0.8867
  116OSM    H8F12174   2.746   4.975   7.573  2.1323 -1.1088  2.6826
  116OSM    H8G12175   2.844   4.839   7.511  0.2719  0.5668 -0.5599
  116OSM    C9F12176   2.651   4.784   7.610  0.6821  0.3533 -1.0670
  116OSM    H9F12177   2.643   4.681   7.574  1.1328  0.2697 -0.9350
  116OSM   C10F12178   2.573   4.815   7.717 -0.1585  0.3128  0.5106
  116OSM   H10F12179   2.517   4.732   7.763 -2.3736  1.1468 -0.5534
  116OSM   C11F12180   2.555   4.940   7.798 -0.4343  0.1672 -0.0720
  116OSM   H11F12181   2.479   5.003   7.748  1.6919  0.2625 -3.4952
  116OSM   H11G12182   2.650   4.996   7.805  0.5472 -1.0939 -2.3873
  116OSM   C12F12183   2.492   4.915   7.935 -0.4799 -0.0505  0.2697
  116OSM   H12F12184   2.489   5.015   7.984 -0.0772  0.9447 -1.6442
  116OSM   H12G12185   2.553   4.838   7.988  1.6133 -0.7851 -2.9281
  116OSM   C13F12186   2.348   4.856   7.931 -0.0533 -0.6146 -0.1805
  116OSM   H13F12187   2.350   4.749   7.901 -2.5149 -1.0770  1.0254
  116OSM   H13G12188   2.293   4.913   7.853 -0.7725 -0.9313  0.0814
  116OSM   C14F12189   2.268   4.863   8.066 -0.1359  0.8074 -0.6620
  116OSM   H14F12190   2.167   4.821   8.045  0.7425 -1.2122 -1.1095
  116OSM   H14G12191   2.256   4.968   8.098  0.3322  1.0010 -1.1113
  116OSM   C15F12192   2.342   4.776   8.169 -0.1401 -0.2080 -0.3009
  116OSM   H15F12193   2.447   4.812   8.167 -0.2647  0.1289 -0.6763
  116OSM   H15G12194   2.339   4.673   8.127  1.1504 -0.0450 -0.8515
  116OSM   C16F12195   2.298   4.794   8.313  0.8765 -0.4276  0.1250
  116OSM   H16F12196   2.324   4.897   8.343  0.5736 -0.0653 -0.8155
  116OSM   H16G12197   2.358   4.727   8.379  0.7545 -1.0391 -0.3701
  116OSM   C17F12198   2.150   4.779   8.334  0.4272 -0.4933 -0.2506
  116OSM   H17F12199   2.130   4.671   8.319  0.3585 -1.0081  2.8000
  116OSM   H17G12200   2.090   4.835   8.259 -0.8599 -1.9367 -0.3636
  116OSM   C18F12201   2.098   4.808   8.475  0.4919  0.0207  0.3730
  116OSM   H18F12202   1.989   4.787   8.489 -0.1008  1.6277 -1.3098
  116OSM   H18G12203   2.123   4.909   8.514 -1.1712 -0.3831  2.6890
  116OSM   H18H12204   2.149   4.731   8.536  1.0425 -0.4228 -0.6340
  117OSM      N12205   0.173   5.634   6.087  0.4109 -0.2995 -0.4826
  117OSM    C1512206   0.152   5.535   5.978 -0.1666 -0.2415 -0.1273
  117OSM   H15A12207   0.102   5.450   6.023  2.7706 -1.5534  0.9290
  117OSM   H15B12208   0.248   5.495   5.952  1.2079  2.1603  0.8882
  117OSM   H15C12209   0.109   5.582   5.891  1.2649  1.0039 -0.1946
  117OSM    C1412210   0.260   5.737   6.026  0.2843 -0.9570  0.2111
  117OSM   H14A12211   0.215   5.782   5.939 -1.3801 -1.2615  0.8850
  117OSM   H14B12212   0.354   5.690   6.002  0.0362 -1.2461 -0.2007
  117OSM   H14C12213   0.282   5.815   6.098  0.1732 -0.2762 -0.4846
  117OSM    C1312214   0.042   5.710   6.114 -0.0720 -0.2787  0.5732
  117OSM   H13A12215   0.038   5.777   6.199 -0.1629  0.4492  0.0110
  117OSM   H13B12216  -0.038   5.641   6.137  0.5867 -1.1689  0.2364
  117OSM   H13C12217   0.003   5.760   6.027 -0.0326  1.8502  1.6995
  117OSM    C1212218   0.229   5.583   6.215  0.5954 -0.0577 -0.4630
  117OSM   H12A12219   0.254   5.670   6.275 -1.2953  1.5244 -1.8237
  117OSM   H12B12220   0.321   5.535   6.183  0.4164 -0.9066  0.2874
  117OSM    C1112221   0.147   5.492   6.300 -0.2218 -0.0831  0.4819
  117OSM   H11A12222   0.047   5.539   6.301 -0.6777 -1.0265  0.2249
  117OSM   H11B12223   0.182   5.490   6.406  0.1130 -1.3190  0.3679
  117OSM      P12224   0.003   5.280   6.225  0.0543 -0.2908  0.3492
  117OSM    O1312225  -0.094   5.343   6.128 -0.1184 -0.2395  0.4243
  117OSM    O1412226   0.037   5.138   6.197  0.1884 -0.1656 -0.5470
  117OSM    O1112227  -0.048   5.298   6.378  0.2711 -0.3328  0.1782
  117OSM    O1212228   0.140   5.362   6.232  0.1006 -0.2939  0.1722
  117OSM    C1S12229  -0.024   5.204   6.485  0.3467  0.1846  0.2412
  117OSM    H1S12230   0.085   5.188   6.498  0.1664 -2.8634 -1.1962
  117OSM    H1T12231  -0.069   5.106   6.460  0.8915  0.3846 -1.6689
  117OSM     NF12232  -0.039   5.159   6.726  0.1896 -0.5202  0.4947
  117OSM    HNF12233  -0.113   5.107   6.767  1.5192 -0.3220  3.3976
  117OSM    C2S12234  -0.071   5.257   6.623  0.1723 -0.6962 -0.2465
  117OSM    H2S12235  -0.014   5.351   6.642 -0.0786 -0.7103  0.5839
  117OSM    C3S12236  -0.220   5.310   6.611 -0.4185  0.2932  0.2064
  117OSM    H3S12237  -0.269   5.217   6.576 -1.0483  0.6522  0.1147
  117OSM     O312238  -0.241   5.406   6.508  0.6851  0.3953 -0.0193
  117OSM    HO312239  -0.161   5.401   6.455  2.3104 -2.5451  2.3744
  117OSM    C4S12240  -0.265   5.352   6.749 -0.6401 -0.1767 -0.4948
  117OSM    H4S12241  -0.303   5.266   6.806 -0.4381 -0.5660 -0.9330
  117OSM    C5S12242  -0.268   5.475   6.806 -0.4435  0.1643 -0.0385
  117OSM    H5S12243  -0.231   5.564   6.755 -1.8884  0.6065 -0.3705
  117OSM    C6S12244  -0.321   5.503   6.950 -0.3200 -0.3792  0.1385
  117OSM    H6S12245  -0.432   5.498   6.954 -0.5271  2.8225  1.1338
  117OSM    H6T12246  -0.306   5.609   6.981  0.3007 -0.3944 -0.0975
  117OSM    C7S12247  -0.262   5.411   7.056 -0.4885  0.1562  1.0153
  117OSM    H7S12248  -0.154   5.400   7.032 -0.9697  1.5012 -2.3553
  117OSM    H7T12249  -0.299   5.307   7.053 -0.4160  0.1052 -2.4981
  117OSM    C8S12250  -0.269   5.474   7.195 -0.2515 -0.4727  0.5857
  117OSM    H8S12251  -0.237   5.580   7.179  1.3496 -1.3481 -3.3239
  117OSM    H8T12252  -0.203   5.422   7.267  0.9738 -0.6942 -0.6439
  117OSM    C9S12253  -0.413   5.470   7.251  0.3189  0.5336  0.0830
  117OSM    H9S12254  -0.441   5.363   7.257  0.9833  0.3035 -0.7099
  117OSM    H9T12255  -0.480   5.512   7.173 -0.1745  0.7937  0.6412
  117OSM   C10S12256  -0.423   5.543   7.390  0.8333  0.6002  0.0299
  117OSM   H10S12257  -0.530   5.571   7.399  0.6213 -0.1152 -0.1997
  117OSM   H10T12258  -0.360   5.632   7.410 -1.4665  2.1354  0.7291
  117OSM   C11S12259  -0.397   5.445   7.517  0.1153  0.1938  0.2095
  117OSM   H11S12260  -0.296   5.401   7.506 -0.0579 -0.5557  1.4382
  117OSM   H11T12261  -0.477   5.368   7.514  0.2599  0.0734 -1.1976
  117OSM   C12S12262  -0.420   5.510   7.662  0.1876  0.1880  0.2995
  117OSM   H12S12263  -0.528   5.537   7.669  0.6424  1.9114  1.3900
  117OSM   H12T12264  -0.374   5.610   7.676  3.9539 -1.1319 -1.3363
  117OSM   C13S12265  -0.363   5.420   7.775  0.9032 -0.4378 -0.1433
  117OSM   H13S12266  -0.256   5.401   7.755  0.4883 -2.8108 -0.4106
  117OSM   H13T12267  -0.401   5.315   7.779  2.0656 -0.8344  0.9757
  117OSM   C14S12268  -0.383   5.482   7.909 -0.4799 -0.2352 -0.8887
  117OSM   H14S12269  -0.489   5.478   7.939 -0.7385 -0.5013 -1.8082
  117OSM   H14T12270  -0.357   5.590   7.918 -1.4491  0.0022 -0.9185
  117OSM   C15S12271  -0.323   5.388   8.018  0.7322 -0.2810  0.0155
  117OSM   H15S12272  -0.212   5.390   8.016  0.7253  1.9686 -0.8241
  117OSM   H15T12273  -0.355   5.282   8.004  1.3675 -0.1140 -3.8116
  117OSM   C16S12274  -0.375   5.420   8.156 -0.8466 -0.0227 -0.4344
  117OSM   H16S12275  -0.486   5.416   8.164 -1.0688  3.1824 -0.6189
  117OSM   H16T12276  -0.352   5.523   8.189 -2.1109 -0.1680  1.0258
  117OSM   C17S12277  -0.324   5.322   8.265  0.4652 -0.0276  0.5900
  117OSM   H17S12278  -0.219   5.354   8.285  0.5061 -0.9728  2.0763
  117OSM   H17T12279  -0.319   5.215   8.234 -0.0047 -0.0405  0.5542
  117OSM   C18S12280  -0.395   5.329   8.400 -0.2370  0.2800 -0.3748
  117OSM   H18S12281  -0.369   5.425   8.450 -1.8730  0.9563 -0.7310
  117OSM   H18T12282  -0.364   5.242   8.463 -2.7698 -0.8268 -0.5115
  117OSM   H18U12283  -0.505   5.318   8.387  0.0025 -0.1206 -2.2641
  117OSM    C1F12284   0.080   5.136   6.775  0.3209  0.4820 -0.0056
  117OSM     OF12285   0.175   5.203   6.735 -0.3152  0.2444  0.1865
  117OSM    C2F12286   0.095   5.019   6.868  0.0780 -0.1078 -0.0264
  117OSM    H2F12287   0.128   4.934   6.804  0.4632  0.7982 -1.0610
  117OSM    H2G12288  -0.002   5.002   6.920  0.1841  1.0752  0.6068
  117OSM    C3F12289   0.180   5.052   6.994 -0.4593  0.0838 -0.0343
  117OSM    H3F12290   0.285   5.054   6.957 -0.7616  0.2766 -0.8842
  117OSM    H3G12291   0.171   4.968   7.066  0.6173 -0.8829 -0.9803
  117OSM    C4F12292   0.130   5.173   7.068 -0.1690 -0.0463  0.6892
  117OSM    H4F12293   0.019   5.177   7.060 -0.0961 -2.0671 -3.3614
  117OSM    H4G12294   0.165   5.258   7.006 -0.4819 -0.5645 -0.2153
  117OSM    C5F12295   0.173   5.178   7.217  0.1630 -0.7288 -0.3051
  117OSM    H5F12296   0.283   5.194   7.217 -0.1460  3.0350  2.8350
  117OSM    H5G12297   0.149   5.084   7.271 -1.5482 -0.7037 -0.9840
  117OSM    C6F12298   0.124   5.302   7.290  0.3742 -0.3067 -0.1614
  117OSM    H6F12299   0.013   5.297   7.295  0.3799  0.3235  1.0759
  117OSM    H6G12300   0.149   5.393   7.231  0.1149 -0.0164  0.1684
  117OSM    C7F12301   0.187   5.312   7.436 -0.3940 -0.9302  0.3855
  117OSM    H7F12302   0.293   5.283   7.417 -0.4272 -1.2487  0.6859
  117OSM    H7G12303   0.159   5.232   7.507 -1.6317  1.0712  2.2791
  117OSM    C8F12304   0.177   5.453   7.500 -0.2237 -0.5392 -0.2156
  117OSM    H8F12305   0.237   5.509   7.426  0.2765 -0.2348  0.4119
  117OSM    H8G12306   0.230   5.443   7.598 -1.9441  0.1294  0.8347
  117OSM    C9F12307   0.036   5.512   7.516  0.0432  0.2346  0.0457
  117OSM    H9F12308  -0.030   5.518   7.427 -3.1026  1.2262  2.2583
  117OSM   C10F12309  -0.015   5.559   7.634  0.3498  0.1994  0.5544
  117OSM   H10F12310  -0.113   5.609   7.629  0.2148 -0.0304  0.8500
  117OSM   C11F12311   0.052   5.566   7.758  0.3964  0.1932 -0.2228
  117OSM   H11F12312  -0.019   5.630   7.815 -0.3423 -1.0484  0.3108
  117OSM   H11G12313   0.147   5.620   7.742  1.1988 -1.1192 -0.0601
  117OSM   C12F12314   0.067   5.440   7.846 -0.6194 -0.0852 -0.1113
  117OSM   H12F12315   0.133   5.366   7.795  1.3275  2.9222 -2.3238
  117OSM   H12G12316  -0.038   5.408   7.863 -0.2245 -1.0766  0.5650
  117OSM   C13F12317   0.131   5.477   7.977  0.0264  0.1707  0.6192
  117OSM   H13F12318   0.074   5.562   8.020 -0.4356 -0.4753  1.3092
  117OSM   H13G12319   0.238   5.508   7.970  0.3421 -1.2112 -3.8440
  117OSM   C14F12320   0.131   5.366   8.081  0.0528  0.2091 -0.1701
  117OSM   H14F12321   0.160   5.270   8.032  0.7849 -0.7788  2.0825
  117OSM   H14G12322   0.030   5.361   8.128  0.8509 -2.4101  1.4424
  117OSM   C15F12323   0.245   5.377   8.191  0.6902  0.5993  0.1640
  117OSM   H15F12324   0.229   5.470   8.250 -2.8079  0.6969 -0.7137
  117OSM   H15G12325   0.338   5.386   8.130 -0.3052  0.3991 -1.4644
  117OSM   C16F12326   0.240   5.253   8.294  0.6424 -0.6081  0.5443
  117OSM   H16F12327   0.160   5.274   8.369  0.1438  1.1807 -0.4282
  117OSM   H16G12328   0.329   5.267   8.358  0.0598  0.6412  1.1215
  117OSM   C17F12329   0.232   5.112   8.235 -0.8637  0.1414 -0.2253
  117OSM   H17F12330   0.145   5.104   8.167 -0.3947  1.1177 -0.9866
  117OSM   H17G12331   0.321   5.093   8.171 -1.7915 -1.5975 -1.0723
  117OSM   C18F12332   0.213   5.003   8.334 -0.6288 -0.4779 -0.0564
  117OSM   H18F12333   0.110   5.016   8.375 -1.0555 -1.1861 -0.8783
  117OSM   H18G12334   0.284   5.013   8.420  0.5605 -2.2511 -0.7713
  117OSM   H18H12335   0.205   4.902   8.289  0.5567  0.2594 -2.0066
  118OSM      N12336   3.555   6.595   6.214  0.3686 -0.2035  0.4428
  118OSM    C1512337   3.677   6.624   6.294  0.5947 -0.7047  0.1719
  118OSM   H15A12338   3.663   6.705   6.364  0.6143  0.2096 -0.8467
  118OSM   H15B12339   3.763   6.651   6.234  1.0474 -0.6300  0.8532
  118OSM   H15C12340   3.706   6.531   6.340 -1.1461 -1.9500 -1.0888
  118OSM    C1412341   3.507   6.721   6.144  0.3025  0.0626 -0.3055
  118OSM   H14A12342   3.491   6.791   6.225  0.0427 -0.6147  0.2377
  118OSM   H14B12343   3.416   6.694   6.093 -1.0445  2.1534  0.8246
  118OSM   H14C12344   3.585   6.746   6.074  1.1204 -4.0471 -1.1445
  118OSM    C1312345   3.600   6.508   6.100 -0.5635 -0.1040  0.1202
  118OSM   H13A12346   3.659   6.422   6.131 -1.6759 -1.9033 -2.4374
  118OSM   H13B12347   3.665   6.560   6.032 -1.4589  1.1529  0.2015
  118OSM   H13C12348   3.521   6.470   6.037 -0.9577  1.1741 -0.1698
  118OSM    C1212349   3.443   6.536   6.296 -0.2989  0.1029  0.9219
  118OSM   H12A12350   3.426   6.599   6.382  1.8915 -0.4098  1.7947
  118OSM   H12B12351   3.469   6.444   6.346  1.6321  0.3513  0.4273
  118OSM    C1112352   3.314   6.502   6.217 -0.0031 -0.5481 -0.1109
  118OSM   H11A12353   3.289   6.584   6.146 -0.6044 -1.9265 -1.5829
  118OSM   H11B12354   3.238   6.484   6.296 -0.0762  1.3045  0.2863
  118OSM      P12355   3.319   6.248   6.176 -0.3172 -0.1144 -0.4548
  118OSM    O1312356   3.177   6.208   6.162 -0.2072 -0.2184 -1.1180
  118OSM    O1412357   3.417   6.170   6.103  0.4077  0.3685  0.3091
  118OSM    O1112358   3.375   6.259   6.322 -0.2902  0.0281  0.8143
  118OSM    O1212359   3.338   6.395   6.121  0.1809 -0.0291 -0.0215
  118OSM    C1S12360   3.437   6.145   6.379  0.1504  0.3787 -0.6394
  118OSM    H1S12361   3.544   6.137   6.350  0.3330 -1.9697  0.4206
  118OSM    H1T12362   3.389   6.052   6.340 -1.0020  1.0687 -0.8876
  118OSM     NF12363   3.505   6.045   6.591  0.1391  0.3178  0.2073
  118OSM    HNF12364   3.463   5.955   6.587 -3.9925  2.0496  0.2232
  118OSM    C2S12365   3.425   6.152   6.540  0.1295  0.5145  0.2306
  118OSM    H2S12366   3.454   6.255   6.572 -0.9122  0.7030  0.6389
  118OSM    C3S12367   3.267   6.140   6.576  1.0323  0.1612 -0.3240
  118OSM    H3S12368   3.218   6.051   6.531 -3.1565  1.9278  0.2842
  118OSM     O312369   3.188   6.250   6.535 -0.2537  0.5658  0.9884
  118OSM    HO312370   3.248   6.303   6.482  1.1890 -0.7775  1.2054
  118OSM    C4S12371   3.248   6.118   6.728  0.3109 -0.6743 -0.3222
  118OSM    H4S12372   3.330   6.159   6.790 -0.2798 -1.3250  0.9134
  118OSM    C5S12373   3.168   6.028   6.789  0.0936  0.2397 -0.0277
  118OSM    H5S12374   3.086   5.971   6.743 -0.7914  1.2191  0.2857
  118OSM    C6S12375   3.160   6.004   6.933 -0.7333  0.3162 -0.0127
  118OSM    H6S12376   3.119   5.903   6.957 -1.0068  1.1070  3.3442
  118OSM    H6T12377   3.092   6.083   6.971 -0.9771  0.6501 -1.1039
  118OSM    C7S12378   3.296   6.017   7.004  0.2044 -0.7070 -0.4747
  118OSM    H7S12379   3.346   6.116   6.993  1.4833 -1.2659  0.0331
  118OSM    H7T12380   3.357   5.937   6.958 -0.7849 -2.5489  1.2358
  118OSM    C8S12381   3.296   5.988   7.153  0.2556  0.1256 -0.4153
  118OSM    H8S12382   3.390   6.017   7.204 -0.3819  0.7927  0.4254
  118OSM    H8T12383   3.288   5.879   7.173 -3.1301  0.2440 -0.5834
  118OSM    C9S12384   3.182   6.054   7.233 -0.6036  1.3543  0.1539
  118OSM    H9S12385   3.192   6.029   7.341  1.9327  1.5939  0.0320
  118OSM    H9T12386   3.089   6.005   7.198 -0.4670  0.2516  1.2434
  118OSM   C10S12387   3.167   6.201   7.234 -0.0491  0.1088 -0.2078
  118OSM   H10S12388   3.067   6.221   7.279 -0.4133 -2.9648  0.6191
  118OSM   H10T12389   3.169   6.242   7.131 -0.5550 -1.0237 -0.6833
  118OSM   C11S12390   3.273   6.271   7.313 -0.4258  0.4764 -0.1337
  118OSM   H11S12391   3.372   6.223   7.296  1.0207  3.2538 -0.0688
  118OSM   H11T12392   3.253   6.269   7.422 -0.1543  1.7560 -0.0509
  118OSM   C12S12393   3.283   6.420   7.279 -0.1472  0.4908  0.1409
  118OSM   H12S12394   3.183   6.469   7.283 -0.5102  0.4808 -4.2702
  118OSM   H12T12395   3.338   6.436   7.184 -0.2984  2.8636  0.4018
  118OSM   C13S12396   3.378   6.485   7.389 -0.1426 -0.7435  0.2800
  118OSM   H13S12397   3.480   6.447   7.371 -0.6766 -1.2445 -1.9826
  118OSM   H13T12398   3.333   6.459   7.487 -3.6726  0.1324 -0.9571
  118OSM   C14S12399   3.371   6.637   7.371 -0.7096  0.3188 -0.4552
  118OSM   H14S12400   3.261   6.653   7.364 -1.1562 -2.3025 -0.4143
  118OSM   H14T12401   3.420   6.666   7.276  2.2043  2.6720  1.5832
  118OSM   C15S12402   3.436   6.705   7.494  0.3940 -0.3964 -0.2909
  118OSM   H15S12403   3.545   6.688   7.479  0.2938 -1.5977  0.2401
  118OSM   H15T12404   3.409   6.658   7.591  1.9431  2.0427  1.4490
  118OSM   C16S12405   3.417   6.851   7.517 -0.3567 -0.0634 -0.1863
  118OSM   H16S12406   3.309   6.871   7.537 -0.2379  0.6565 -0.2421
  118OSM   H16T12407   3.455   6.900   7.425 -0.4588 -1.5540 -1.0684
  118OSM   C17S12408   3.463   6.918   7.653 -0.0426 -0.3773  0.1169
  118OSM   H17S12409   3.472   7.024   7.619  1.5180 -1.1463 -2.1060
  118OSM   H17T12410   3.569   6.905   7.684  0.7339  0.6564 -1.9131
  118OSM   C18S12411   3.366   6.916   7.770 -0.3993 -0.3847  0.3961
  118OSM   H18S12412   3.395   6.980   7.856  1.4203  1.7818 -1.7097
  118OSM   H18T12413   3.348   6.813   7.810  2.3698 -0.6080  1.2480
  118OSM   H18U12414   3.266   6.960   7.750  0.3579  2.1450  1.7009
  118OSM    C1F12415   3.630   6.064   6.620 -0.3345  0.5987  0.1699
  118OSM     OF12416   3.673   6.178   6.631  0.0589 -0.3161  0.1730
  118OSM    C2F12417   3.704   5.933   6.639 -0.2528  0.0676  0.1664
  118OSM    H2F12418   3.771   5.915   6.552  3.8717  1.9114  2.6361
  118OSM    H2G12419   3.641   5.842   6.648 -0.2199 -0.1819 -1.8012
  118OSM    C3F12420   3.792   5.952   6.762 -0.0557  0.6472 -0.1879
  118OSM    H3F12421   3.886   6.008   6.740  0.2901 -0.5170 -1.8649
  118OSM    H3G12422   3.825   5.857   6.809 -1.2785  1.4799  2.5447
  118OSM    C4F12423   3.721   6.019   6.882 -0.0193 -0.0097 -0.1664
  118OSM    H4F12424   3.611   6.002   6.878  0.0551 -0.4102 -0.5758
  118OSM    H4G12425   3.738   6.128   6.886 -1.3753  0.1999  1.1760
  118OSM    C5F12426   3.769   5.960   7.019 -0.6196 -0.5913  0.0995
  118OSM    H5F12427   3.880   5.965   7.024 -0.6476 -0.0314  0.2510
  118OSM    H5G12428   3.749   5.851   7.018 -0.7206 -0.6264 -2.9100
  118OSM    C6F12429   3.708   6.030   7.140 -0.3926 -0.6866  0.0319
  118OSM    H6F12430   3.699   5.955   7.222 -2.8922 -0.7506 -0.2152
  118OSM    H6G12431   3.604   6.062   7.118 -0.2377  1.2805  1.8158
  118OSM    C7F12432   3.786   6.161   7.182  0.4756  0.7141  0.6600
  118OSM    H7F12433   3.844   6.218   7.106  0.2734  0.8445  0.6048
  118OSM    H7G12434   3.872   6.125   7.243 -0.4556  0.4663  1.8510
  118OSM    C8F12435   3.699   6.259   7.259  0.0826 -0.7773 -0.4258
  118OSM    H8F12436   3.608   6.286   7.201  0.4352  0.4825 -0.4255
  118OSM    H8G12437   3.766   6.347   7.265 -0.2218 -0.6252  1.2260
  118OSM    C9F12438   3.653   6.204   7.390 -0.0350  0.2252  0.2361
  118OSM    H9F12439   3.607   6.104   7.392 -0.5989  0.2726 -3.2622
  118OSM   C10F12440   3.680   6.266   7.509  1.2637  0.1022  0.6182
  118OSM   H10F12441   3.654   6.210   7.599 -0.8376 -2.3532 -1.3658
  118OSM   C11F12442   3.743   6.396   7.530  0.2058 -0.4887  0.0650
  118OSM   H11F12443   3.680   6.469   7.475 -0.9675 -0.1657  1.7755
  118OSM   H11G12444   3.846   6.393   7.487 -0.1735 -0.4142 -0.8741
  118OSM   C12F12445   3.755   6.439   7.676  0.7163  0.4717 -0.2876
  118OSM   H12F12446   3.818   6.367   7.732  0.2977  1.1680  1.1311
  118OSM   H12G12447   3.653   6.443   7.721  0.6175 -1.1134 -0.3272
  118OSM   C13F12448   3.806   6.580   7.700  0.3879 -0.5519 -0.0132
  118OSM   H13F12449   3.749   6.658   7.645  2.6317  1.9908  0.9963
  118OSM   H13G12450   3.909   6.593   7.661 -0.0262  0.4264 -0.8231
  118OSM   C14F12451   3.795   6.623   7.845  0.1338  0.4662  0.0114
  118OSM   H14F12452   3.836   6.550   7.918  1.0315 -1.6169 -2.4240
  118OSM   H14G12453   3.687   6.610   7.866  0.6923 -3.8903  1.1840
  118OSM   C15F12454   3.869   6.751   7.876  0.3786 -0.7529 -0.7322
  118OSM   H15F12455   3.830   6.835   7.816  2.2802  0.2653 -0.6086
  118OSM   H15G12456   3.977   6.744   7.852  0.8238 -0.4033  0.9880
  118OSM   C16F12457   3.856   6.786   8.025  0.1070  0.3910 -0.1733
  118OSM   H16F12458   3.761   6.743   8.064  0.3948 -0.6163 -0.5618
  118OSM   H16G12459   3.850   6.895   8.045 -0.3261  0.3552 -0.0868
  118OSM   C17F12460   3.975   6.743   8.106 -0.2156  0.3322 -0.4767
  118OSM   H17F12461   4.060   6.794   8.054 -0.4631  0.4222 -0.7993
  118OSM   H17G12462   3.988   6.633   8.100  1.1346  0.2819  2.0943
  118OSM   C18F12463   3.969   6.782   8.253 -0.7058 -0.0686 -0.4524
  118OSM   H18F12464   4.076   6.783   8.284 -0.6274  0.0996 -0.7243
  118OSM   H18G12465   3.897   6.728   8.318 -1.1056  1.5828  0.5459
  118OSM   H18H12466   3.938   6.888   8.270 -1.4451 -0.4672  0.7804
  119OSM      N12467   4.593   6.170   6.129  0.2480  0.8787  0.4438
  119OSM    C1512468   4.458   6.140   6.076  0.5588  1.1035  0.0378
  119OSM   H15A12469   4.416   6.219   6.015 -1.8062 -1.1461 -1.4523
  119OSM   H15B12470   4.390   6.131   6.160 -0.5018 -0.7025 -0.9528
  119OSM   H15C12471   4.445   6.048   6.021 -1.7004 -0.9089  3.5407
  119OSM    C1412472   4.686   6.197   6.024 -0.4241  0.3334  0.4970
  119OSM   H14A12473   4.681   6.123   5.945 -0.1651  0.5314  0.2902
  119OSM   H14B12474   4.790   6.196   6.055 -0.5584  0.8276  0.9705
  119OSM   H14C12475   4.678   6.298   5.986  0.4083  0.3496  0.3484
  119OSM    C1312476   4.581   6.294   6.210 -0.3200  0.0581 -0.0163
  119OSM   H13A12477   4.551   6.386   6.162  1.2974  0.3433 -0.5478
  119OSM   H13B12478   4.683   6.310   6.242 -0.7682  0.4161  1.2844
  119OSM   H13C12479   4.520   6.274   6.296 -2.3903  0.6848 -1.2715
  119OSM    C1212480   4.630   6.048   6.213  0.2910 -0.6145  0.2402
  119OSM   H12A12481   4.639   5.955   6.160  1.5104 -1.5604  2.0121
  119OSM   H12B12482   4.544   6.042   6.279 -1.0113 -2.2545 -1.4796
  119OSM    C1112483   4.759   6.067   6.302 -0.5471 -0.2763  0.4656
  119OSM   H11A12484   4.754   5.994   6.386 -1.3785 -1.6329 -0.7061
  119OSM   H11B12485   4.760   6.163   6.358  0.3308  0.0662 -0.1302
  119OSM      P12486   4.941   5.927   6.186  0.2532 -0.1318  0.5149
  119OSM    O1312487   4.879   5.873   6.063 -0.3619  0.5762  0.6862
  119OSM    O1412488   5.086   5.951   6.181 -0.1538  0.4670  0.3092
  119OSM    O1112489   4.907   5.817   6.299  0.1469 -0.2811 -0.3494
  119OSM    O1212490   4.870   6.059   6.221  0.5119  0.1403  0.1455
  119OSM    C1S12491   4.985   5.819   6.421 -0.1842 -0.3596  0.0138
  119OSM    H1S12492   4.955   5.906   6.484 -1.1295 -1.0057  0.4912
  119OSM    H1T12493   5.092   5.839   6.401  0.0024 -1.6982 -0.3782
  119OSM     NF12494   5.061   5.723   6.627  0.4472  0.8850 -0.1679
  119OSM    HNF12495   5.146   5.674   6.646 -0.9852 -1.1857  1.2968
  119OSM    C2S12496   4.977   5.696   6.510 -0.4423 -0.3510 -0.2409
  119OSM    H2S12497   4.872   5.684   6.543 -0.1564 -1.0851  0.4408
  119OSM    C3S12498   5.014   5.572   6.423 -0.0207 -0.5886  0.3550
  119OSM    H3S12499   5.109   5.595   6.372 -1.8159  1.9458 -2.1233
  119OSM     O312500   4.942   5.543   6.308 -0.6003 -0.1438  0.0925
  119OSM    HO312501   4.882   5.615   6.285 -0.2881 -0.6235 -2.5966
  119OSM    C4S12502   5.037   5.445   6.505  0.4178  0.2445  0.0164
  119OSM    H4S12503   5.142   5.424   6.526  0.3376 -0.0467  0.1340
  119OSM    C5S12504   4.943   5.350   6.542 -0.1569 -0.3525 -0.9892
  119OSM    H5S12505   4.837   5.355   6.512 -0.1400  2.0914 -0.7975
  119OSM    C6S12506   4.992   5.232   6.629  0.4265  0.5830 -0.0813
  119OSM    H6S12507   5.089   5.186   6.602 -0.3436 -0.6620 -0.8378
  119OSM    H6T12508   4.927   5.142   6.625  1.8723 -0.4845 -0.0945
  119OSM    C7S12509   5.018   5.276   6.783 -0.5817  0.2749 -0.1448
  119OSM    H7S12510   4.920   5.281   6.835 -0.6205  0.4238 -0.2310
  119OSM    H7T12511   5.078   5.369   6.784 -0.4487  0.2157 -1.1201
  119OSM    C8S12512   5.088   5.165   6.870  0.5362 -0.0783 -0.0672
  119OSM    H8S12513   5.111   5.215   6.967  1.0664  1.6172 -1.0182
  119OSM    H8T12514   5.185   5.132   6.826  1.4658  1.3599  0.7982
  119OSM    C9S12515   4.982   5.052   6.882 -0.7791 -0.0577  0.8790
  119OSM    H9S12516   4.963   4.991   6.792 -2.5164  0.7132  0.6910
  119OSM    H9T12517   4.883   5.086   6.918 -0.7825 -0.2211  1.0276
  119OSM   C10S12518   5.016   4.946   6.987 -0.3600  0.3271 -0.4071
  119OSM   H10S12519   4.923   4.889   7.014 -0.1833  0.5908  0.8270
  119OSM   H10T12520   5.041   5.003   7.079  0.6209  1.1540 -1.1784
  119OSM   C11S12521   5.125   4.853   6.944  0.6181  0.4904 -0.2846
  119OSM   H11S12522   5.198   4.912   6.885  1.0059  1.8495  1.4693
  119OSM   H11T12523   5.070   4.769   6.897  1.8719 -0.1630 -0.6039
  119OSM   C12S12524   5.201   4.800   7.077 -0.1563  0.0103  0.0249
  119OSM   H12S12525   5.290   4.737   7.054  1.0366  0.9373  1.8213
  119OSM   H12T12526   5.125   4.766   7.150  1.0332 -0.2441  1.1906
  119OSM   C13S12527   5.269   4.906   7.167  0.3115 -0.2298  0.3555
  119OSM   H13S12528   5.192   4.963   7.223  1.3352  0.9551  0.6083
  119OSM   H13T12529   5.306   4.981   7.093  0.0472  1.0259  1.4665
  119OSM   C14S12530   5.383   4.850   7.259  0.7163 -0.6602  0.5030
  119OSM   H14S12531   5.457   4.795   7.198  1.8807 -1.5210  2.6129
  119OSM   H14T12532   5.353   4.771   7.331  0.7701  1.0047  2.4344
  119OSM   C15S12533   5.449   4.973   7.323 -0.0695 -0.4503 -0.1566
  119OSM   H15S12534   5.378   5.007   7.401  0.8491  0.0157  0.4987
  119OSM   H15T12535   5.458   5.053   7.246 -0.2420 -1.4461 -1.2416
  119OSM   C16S12536   5.595   4.955   7.370  0.5892 -0.4624 -0.0993
  119OSM   H16S12537   5.630   5.049   7.417 -0.5960  1.5910 -3.0395
  119OSM   H16T12538   5.658   4.954   7.278 -0.2858  2.2476 -0.8125
  119OSM   C17S12539   5.619   4.842   7.466 -0.8227  0.1572 -0.1917
  119OSM   H17S12540   5.595   4.744   7.420  1.3754  0.3266 -1.8847
  119OSM   H17T12541   5.555   4.851   7.556  1.5144  0.6385  1.5278
  119OSM   C18S12542   5.762   4.825   7.522 -0.5799 -0.2273  0.3198
  119OSM   H18S12543   5.795   4.922   7.565  4.0369 -0.2537 -2.4365
  119OSM   H18T12544   5.833   4.821   7.436 -0.6931  0.9094  0.1588
  119OSM   H18U12545   5.778   4.734   7.583 -2.4725 -2.0609 -1.7606
  119OSM    C1F12546   5.035   5.811   6.719  0.0523 -0.3502  0.3235
  119OSM     OF12547   4.922   5.840   6.738 -0.7174 -0.3668  0.4625
  119OSM    C2F12548   5.147   5.870   6.792  0.8303  0.1303  0.2028
  119OSM    H2F12549   5.124   5.979   6.793 -2.0350 -0.3761 -1.2770
  119OSM    H2G12550   5.248   5.849   6.751 -0.4149 -1.4663 -2.2562
  119OSM    C3F12551   5.149   5.834   6.941  0.4198  0.3062  0.6432
  119OSM    H3F12552   5.063   5.884   6.991 -0.4632  0.1134 -0.6447
  119OSM    H3G12553   5.240   5.887   6.977  0.2560  1.8608 -1.0711
  119OSM    C4F12554   5.155   5.691   6.987  0.7159  0.1493 -0.5520
  119OSM    H4F12555   5.228   5.669   7.067 -1.3620 -2.5456  0.7601
  119OSM    H4G12556   5.189   5.637   6.896 -0.2172  0.7133 -1.2667
  119OSM    C5F12557   5.011   5.638   7.033 -0.4442  0.4156 -0.6479
  119OSM    H5F12558   4.944   5.658   6.947  0.4527  0.5485 -1.3281
  119OSM    H5G12559   4.980   5.711   7.111 -0.8154  0.6858 -1.0419
  119OSM    C6F12560   5.007   5.488   7.078 -0.1774 -0.7374 -0.3405
  119OSM    H6F12561   5.078   5.439   7.008  1.2186  2.9393 -1.7629
  119OSM    H6G12562   4.903   5.450   7.070 -0.1879 -0.5947 -0.9240
  119OSM    C7F12563   5.062   5.482   7.220  0.2765  0.0201  0.3437
  119OSM    H7F12564   5.008   5.544   7.294 -2.1766  0.3628 -1.6312
  119OSM    H7G12565   5.165   5.524   7.215  1.2652 -2.2939 -0.1478
  119OSM    C8F12566   5.090   5.337   7.265  0.2868 -0.0151  0.7358
  119OSM    H8F12567   5.126   5.353   7.369 -0.2417  0.9167  0.7861
  119OSM    H8G12568   5.175   5.299   7.204 -0.0189 -0.6332  0.6914
  119OSM    C9F12569   4.983   5.231   7.251  0.4402  0.4929 -0.2805
  119OSM    H9F12570   4.913   5.254   7.170 -1.7821  3.8307  2.3173
  119OSM   C10F12571   4.967   5.122   7.331  0.0565  0.1530 -0.4897
  119OSM   H10F12572   4.883   5.054   7.312 -1.3683  1.3760  1.0298
  119OSM   C11F12573   5.042   5.089   7.455 -0.5760  0.4611  0.0083
  119OSM   H11F12574   5.043   5.184   7.513  1.1916  1.7054 -1.9356
  119OSM   H11G12575   5.147   5.061   7.433 -1.2135 -0.9616 -1.4347
  119OSM   C12F12576   4.980   4.969   7.532  0.1282 -0.1822  0.2383
  119OSM   H12F12577   5.046   4.933   7.614  3.2040 -0.6488 -2.2485
  119OSM   H12G12578   4.983   4.876   7.472 -0.3749 -0.4514  0.6275
  119OSM   C13F12579   4.838   4.987   7.588 -0.0325 -0.0611  0.6998
  119OSM   H13F12580   4.811   4.890   7.635  2.2245 -0.8856  0.4201
  119OSM   H13G12581   4.774   4.994   7.497  0.0383 -1.1327  0.5538
  119OSM   C14F12582   4.822   5.105   7.687  0.2293  0.3276  0.0765
  119OSM   H14F12583   4.720   5.125   7.725 -0.4936  2.6719 -2.7618
  119OSM   H14G12584   4.833   5.192   7.618  0.3516 -1.7939 -2.7434
  119OSM   C15F12585   4.920   5.118   7.801 -0.7095 -0.0969  0.4032
  119OSM   H15F12586   4.898   5.218   7.844  1.0106  0.6879 -0.4474
  119OSM   H15G12587   5.019   5.130   7.751 -1.5653  0.0309 -1.3468
  119OSM   C16F12588   4.937   4.996   7.894  0.3652 -0.0578  0.7517
  119OSM   H16F12589   5.024   5.024   7.957  1.7827 -2.1070 -0.1870
  119OSM   H16G12590   4.956   4.895   7.852 -1.9506  0.1848 -1.1291
  119OSM   C17F12591   4.815   4.979   7.980 -0.4776 -0.2502 -0.4934
  119OSM   H17F12592   4.742   4.931   7.912 -2.5185 -1.2869  2.2520
  119OSM   H17G12593   4.772   5.076   8.015  0.1535  0.4286 -1.5287
  119OSM   C18F12594   4.855   4.884   8.096  0.6246 -0.0495 -0.3571
  119OSM   H18F12595   4.901   4.795   8.049  1.9839 -0.0298  0.8627
  119OSM   H18G12596   4.765   4.871   8.159  0.6914  2.6199  0.4266
  119OSM   H18H12597   4.937   4.919   8.163  1.9012 -1.2133 -1.2533
  120OSM      N12598   1.350   5.564   6.431  0.2530 -0.2793 -0.6215
  120OSM    C1512599   1.327   5.665   6.326  0.1120  0.0068  0.3264
  120OSM   H15A12600   1.350   5.764   6.363 -0.9770  0.5096 -0.2763
  120OSM   H15B12601   1.227   5.670   6.284  0.1104 -1.5460  0.1043
  120OSM   H15C12602   1.387   5.649   6.238  1.8474 -0.2731  1.5136
  120OSM    C1412603   1.280   5.611   6.547 -0.3343  0.5918 -0.3435
  120OSM   H14A12604   1.174   5.613   6.528 -0.9317 -1.9181  2.1103
  120OSM   H14B12605   1.311   5.713   6.565 -2.0588  1.0125  0.4773
  120OSM   H14C12606   1.302   5.553   6.636 -1.0884 -1.6222 -1.5327
  120OSM    C1312607   1.288   5.435   6.383 -0.0435  0.5426  0.2771
  120OSM   H13A12608   1.181   5.447   6.373 -0.6141 -1.7090  2.6450
  120OSM   H13B12609   1.306   5.354   6.453 -2.9644 -0.4007  0.0657
  120OSM   H13C12610   1.339   5.401   6.294  0.2053 -0.2152  0.6985
  120OSM    C1212611   1.502   5.558   6.464  0.1334  0.1931 -0.5991
  120OSM   H12A12612   1.510   5.487   6.545  0.3097  1.4673  0.5444
  120OSM   H12B12613   1.533   5.658   6.491  2.6012 -0.9573  1.1810
  120OSM    C1112614   1.602   5.501   6.358 -0.7884 -0.5580  0.9795
  120OSM   H11A12615   1.705   5.503   6.401 -0.7792 -0.0387  0.9305
  120OSM   H11B12616   1.608   5.568   6.270 -1.0319 -0.8003  0.7771
  120OSM      P12617   1.599   5.249   6.357  0.1382  0.2367  0.1042
  120OSM    O1312618   1.562   5.139   6.267  0.5729 -0.3113 -0.1004
  120OSM    O1412619   1.743   5.254   6.412  0.7473  0.3810  0.1447
  120OSM    O1112620   1.502   5.229   6.486  0.0622 -0.5325 -0.3147
  120OSM    O1212621   1.558   5.382   6.295 -0.4207  0.2933 -0.3462
  120OSM    C1S12622   1.558   5.250   6.613 -0.0949 -0.7119  0.7014
  120OSM    H1S12623   1.606   5.350   6.621  1.2008 -1.3484  1.1901
  120OSM    H1T12624   1.636   5.174   6.634 -0.0706 -1.0226 -0.4637
  120OSM     NF12625   1.515   5.300   6.843  0.2676 -0.2112  0.5056
  120OSM    HNF12626   1.574   5.238   6.893  0.5035 -0.8071 -0.4811
  120OSM    C2S12627   1.454   5.243   6.723  0.2495 -0.8759 -0.1870
  120OSM    H2S12628   1.364   5.303   6.698  0.8222 -0.8508 -2.4322
  120OSM    C3S12629   1.402   5.099   6.732 -0.4378  0.2826 -0.2210
  120OSM    H3S12630   1.489   5.048   6.780 -0.6066 -0.8440 -1.0601
  120OSM     O312631   1.394   5.032   6.607 -0.5625  0.2472  0.2540
  120OSM    HO312632   1.420   5.103   6.547  0.0133  0.9588  1.3157
  120OSM    C4S12633   1.282   5.088   6.823  0.0283  0.3953 -0.2121
  120OSM    H4S12634   1.192   5.152   6.818 -1.3725 -1.2956  1.4516
  120OSM    C5S12635   1.270   5.012   6.937 -0.4003 -0.1020  0.8135
  120OSM    H5S12636   1.340   4.932   6.965 -0.4505 -0.0223  1.1709
  120OSM    C6S12637   1.154   5.016   7.035 -0.0943 -0.2374 -0.1834
  120OSM    H6S12638   1.124   4.912   7.061 -1.6921 -0.2449 -1.8220
  120OSM    H6T12639   1.066   5.061   6.986  0.0653  0.2712 -0.0036
  120OSM    C7S12640   1.205   5.084   7.168  0.0947 -0.8597 -0.1398
  120OSM    H7S12641   1.296   5.031   7.203  1.1511 -0.3457 -1.9484
  120OSM    H7T12642   1.119   5.067   7.236 -0.1589 -0.8663 -0.4610
  120OSM    C8S12643   1.216   5.235   7.152 -0.4055  0.1268  0.6335
  120OSM    H8S12644   1.113   5.274   7.136  0.2061  2.0921  1.1353
  120OSM    H8T12645   1.271   5.244   7.056 -1.4317 -0.3180 -0.0139
  120OSM    C9S12646   1.286   5.304   7.266  0.1331 -0.2603 -0.3374
  120OSM    H9S12647   1.298   5.413   7.246  0.4307  0.0757  1.5172
  120OSM    H9T12648   1.387   5.259   7.280  0.6581  1.3491  1.4563
  120OSM   C10S12649   1.218   5.280   7.402 -0.5924 -0.3084  0.3507
  120OSM   H10S12650   1.214   5.174   7.436  1.6313  0.0763  2.0438
  120OSM   H10T12651   1.108   5.297   7.393 -0.7934 -1.3886  0.6040
  120OSM   C11S12652   1.271   5.365   7.524 -0.5427 -0.4052  0.0314
  120OSM   H11S12653   1.313   5.457   7.479  0.3313 -0.9653 -0.3239
  120OSM   H11T12654   1.367   5.318   7.554  0.1398  0.6526 -0.4473
  120OSM   C12S12655   1.176   5.380   7.641  0.1347 -0.2897  0.4518
  120OSM   H12S12656   1.114   5.289   7.652  1.2587 -1.0127  0.8735
  120OSM   H12T12657   1.105   5.460   7.610 -2.2724 -2.7002 -0.6775
  120OSM   C13S12658   1.250   5.408   7.770 -0.5367 -0.3559 -0.1714
  120OSM   H13S12659   1.307   5.503   7.755 -0.6393 -0.3621 -0.6029
  120OSM   H13T12660   1.332   5.335   7.788  0.0847  0.0570 -1.1893
  120OSM   C14S12661   1.151   5.404   7.891  0.2352  0.1494  0.2850
  120OSM   H14S12662   1.118   5.299   7.878 -0.4187  0.5681 -1.8498
  120OSM   H14T12663   1.068   5.476   7.876  0.8110  0.6329 -0.7631
  120OSM   C15S12664   1.207   5.410   8.031  0.5523 -0.1491 -0.3690
  120OSM   H15S12665   1.285   5.488   8.044 -1.2703  1.6582  0.3709
  120OSM   H15T12666   1.250   5.312   8.061 -1.7024 -1.1217 -0.0759
  120OSM   C16S12667   1.086   5.425   8.124 -0.0356  0.1557 -0.6224
  120OSM   H16S12668   1.019   5.344   8.089 -1.0625 -0.3208  2.2145
  120OSM   H16T12669   1.033   5.522   8.109  0.9414  0.6673 -0.9381
  120OSM   C17S12670   1.111   5.423   8.279 -0.3948 -0.2985  0.4435
  120OSM   H17S12671   1.016   5.405   8.333  0.1459 -1.2215  1.1102
  120OSM   H17T12672   1.141   5.524   8.314  0.4520 -0.4979  0.3231
  120OSM   C18S12673   1.233   5.338   8.323  0.1625 -0.3471 -0.3529
  120OSM   H18S12674   1.238   5.340   8.434  0.9629  1.9418 -0.3735
  120OSM   H18T12675   1.326   5.379   8.277  0.0618  1.9577  1.3164
  120OSM   H18U12676   1.225   5.231   8.297 -0.7959 -0.6996  1.2430
  120OSM    C1F12677   1.495   5.430   6.880  0.7526 -0.2477 -0.3685
  120OSM     OF12678   1.417   5.501   6.821  0.2200  0.2018 -0.0928
  120OSM    C2F12679   1.582   5.495   6.984 -0.1443 -0.4426  0.4435
  120OSM    H2F12680   1.536   5.585   7.029 -0.3690 -0.5657  0.4635
  120OSM    H2G12681   1.676   5.534   6.939  0.4770 -0.7263  1.4613
  120OSM    C3F12682   1.605   5.390   7.093  0.0503  0.5744 -0.0931
  120OSM    H3F12683   1.680   5.315   7.059  0.2711 -0.5499  2.5819
  120OSM    H3G12684   1.511   5.355   7.140  0.7638  1.3724  2.0597
  120OSM    C4F12685   1.701   5.461   7.202 -0.6353  0.7321 -0.2363
  120OSM    H4F12686   1.792   5.484   7.143 -0.8114 -1.6921 -1.5834
  120OSM    H4G12687   1.737   5.382   7.271  0.1227  0.5861 -0.7869
  120OSM    C5F12688   1.641   5.579   7.274 -0.4575 -0.0801  0.4855
  120OSM    H5F12689   1.545   5.556   7.324 -1.8969 -1.1254 -2.5461
  120OSM    H5G12690   1.616   5.659   7.201 -2.5444 -0.1362  1.0924
  120OSM    C6F12691   1.735   5.637   7.379 -0.2422 -0.1535 -0.1263
  120OSM    H6F12692   1.805   5.701   7.323 -0.3300 -0.7965 -0.9966
  120OSM    H6G12693   1.803   5.558   7.417 -1.1876 -0.5345  0.8473
  120OSM    C7F12694   1.678   5.718   7.499  0.3381  0.5430 -0.2552
  120OSM    H7F12695   1.596   5.775   7.451  0.1579  0.4371 -0.0766
  120OSM    H7G12696   1.752   5.787   7.544  0.6335  0.3172 -0.3909
  120OSM    C8F12697   1.621   5.627   7.611 -0.4432 -1.0960  0.2869
  120OSM    H8F12698   1.705   5.563   7.645  0.9433  1.3223  1.7908
  120OSM    H8G12699   1.532   5.567   7.584 -1.6428 -0.0549  1.7596
  120OSM    C9F12700   1.578   5.722   7.722 -0.7419  0.0804  0.3598
  120OSM    H9F12701   1.540   5.821   7.695  2.3045  1.2509 -0.0252
  120OSM   C10F12702   1.611   5.709   7.849  0.1618 -0.1011  0.2053
  120OSM   H10F12703   1.562   5.779   7.919  0.3242  0.2928 -0.0722
  120OSM   C11F12704   1.685   5.588   7.919 -0.1667  0.8925  0.4229
  120OSM   H11F12705   1.793   5.608   7.935  0.3181 -0.7931 -0.4468
  120OSM   H11G12706   1.683   5.499   7.851 -0.6494  0.0120  1.5619
  120OSM   C12F12707   1.609   5.544   8.051 -0.0160 -0.0167  0.7395
  120OSM   H12F12708   1.643   5.440   8.067  1.8060  0.6992  1.8683
  120OSM   H12G12709   1.500   5.546   8.030  0.1319 -3.2158 -1.0176
  120OSM   C13F12710   1.640   5.635   8.174  0.1287  0.3966 -0.0932
  120OSM   H13F12711   1.666   5.736   8.137 -0.6088  0.3797 -0.6816
  120OSM   H13G12712   1.738   5.616   8.224  1.2652  2.1722 -1.5149
  120OSM   C14F12713   1.539   5.626   8.281 -0.1039 -0.5448  0.0327
  120OSM   H14F12714   1.520   5.521   8.313  1.1798 -1.4494 -1.9734
  120OSM   H14G12715   1.443   5.665   8.240 -0.7957 -1.4204  0.7612
  120OSM   C15F12716   1.577   5.709   8.411 -0.0625  0.0478  0.0302
  120OSM   H15F12717   1.614   5.811   8.389  0.2345 -0.3559 -1.4799
  120OSM   H15G12718   1.663   5.650   8.449  1.4469  2.0683 -0.1234
  120OSM   C16F12719   1.457   5.711   8.515 -0.0202 -0.1040 -0.6447
  120OSM   H16F12720   1.425   5.609   8.543  2.0932 -0.3332  1.2101
  120OSM   H16G12721   1.365   5.758   8.474 -1.0201 -0.3874  1.1606
  120OSM   C17F12722   1.509   5.795   8.639 -0.0096  0.5334  0.3806
  120OSM   H17F12723   1.415   5.775   8.694 -1.4522  0.6406 -1.9064
  120OSM   H17G12724   1.514   5.904   8.623 -1.2052  1.1265  3.4904
  120OSM   C18F12725   1.627   5.737   8.709  0.5566  0.0772 -0.0911
  120OSM   H18F12726   1.624   5.771   8.815 -0.4714 -0.0035 -0.0911
  120OSM   H18G12727   1.721   5.761   8.654 -0.3597 -0.1997 -1.8666
  120OSM   H18H12728   1.624   5.626   8.704 -1.6052  0.1565 -1.7352
  121OSM      N12729   4.102   5.742   6.411 -0.3478 -0.9686  0.0393
  121OSM    C1512730   3.973   5.716   6.350  0.2346  0.3924  0.2424
  121OSM   H15A12731   3.993   5.664   6.258  2.8106  1.1815  0.3013
  121OSM   H15B12732   3.924   5.808   6.322  1.2192  0.2687 -2.0944
  121OSM   H15C12733   3.914   5.649   6.412  1.9467 -0.1918  1.2983
  121OSM    C1412734   4.180   5.827   6.313  0.0940 -0.4362 -0.4930
  121OSM   H14A12735   4.137   5.921   6.283 -0.9238 -1.3639 -2.1127
  121OSM   H14B12736   4.192   5.784   6.214  0.2198  0.4033 -0.8534
  121OSM   H14C12737   4.281   5.841   6.349 -0.9351  1.1679  1.9754
  121OSM    C1312738   4.079   5.817   6.542 -0.3522 -0.4279 -0.3775
  121OSM   H13A12739   4.030   5.912   6.531 -0.0430  0.2370  2.8816
  121OSM   H13B12740   4.182   5.833   6.573  0.7713 -0.7257 -3.6083
  121OSM   H13C12741   4.013   5.759   6.604 -1.8096  0.7068 -0.8288
  121OSM    C1212742   4.186   5.613   6.440 -0.2559 -0.3647 -0.1009
  121OSM   H12A12743   4.112   5.554   6.493 -1.1195 -0.7194 -1.6548
  121OSM   H12B12744   4.268   5.651   6.499  0.1387 -0.0756 -0.8244
  121OSM    C1112745   4.232   5.527   6.320 -0.3884 -0.4377 -0.4867
  121OSM   H11A12746   4.145   5.511   6.253  0.1791 -1.1329 -1.0733
  121OSM   H11B12747   4.278   5.437   6.367 -0.0619 -0.2273 -0.4026
  121OSM      P12748   4.467   5.644   6.269  0.1790 -0.0550 -0.2938
  121OSM    O1312749   4.557   5.528   6.247 -0.3253  0.0902 -0.5957
  121OSM    O1412750   4.495   5.766   6.185 -0.3399 -0.0013 -0.4501
  121OSM    O1112751   4.468   5.681   6.421 -0.0735  0.2864 -0.0598
  121OSM    O1212752   4.316   5.604   6.239  0.2299 -0.2755 -0.4369
  121OSM    C1S12753   4.549   5.793   6.472 -0.3982  0.4487 -0.1240
  121OSM    H1S12754   4.515   5.887   6.425 -0.4253  1.6618  2.1992
  121OSM    H1T12755   4.656   5.780   6.444 -0.5303 -1.1544 -0.0209
  121OSM     NF12756   4.637   5.900   6.671 -0.6450 -0.0290  0.3383
  121OSM    HNF12757   4.719   5.866   6.716 -0.0974  1.8265  0.8163
  121OSM    C2S12758   4.536   5.806   6.625  0.6035  0.3751 -0.2159
  121OSM    H2S12759   4.441   5.858   6.647  0.9221  0.1595  1.8592
  121OSM    C3S12760   4.533   5.667   6.696  1.0481 -0.2587 -0.1545
  121OSM    H3S12761   4.627   5.611   6.677  1.7701  0.5091  1.0864
  121OSM     O312762   4.426   5.586   6.647  0.0359  0.3801  0.4744
  121OSM    HO312763   4.432   5.590   6.551 -2.1796 -0.4507  0.2212
  121OSM    C4S12764   4.519   5.693   6.849 -0.5052 -0.3047 -1.1106
  121OSM    H4S12765   4.423   5.740   6.876 -0.0739 -0.6062  1.1597
  121OSM    C5S12766   4.610   5.645   6.942  0.1741  0.1218  0.3463
  121OSM    H5S12767   4.701   5.600   6.899  0.2028  0.0471  0.4862
  121OSM    C6S12768   4.603   5.639   7.088 -0.8032  0.2222 -0.4618
  121OSM    H6S12769   4.506   5.688   7.114  0.5114  1.2525  3.0274
  121OSM    H6T12770   4.676   5.713   7.126 -1.6128  0.5292  0.5647
  121OSM    C7S12771   4.611   5.503   7.168  0.2685 -0.0682  0.9275
  121OSM    H7S12772   4.707   5.452   7.144  0.1683  0.1492  0.0397
  121OSM    H7T12773   4.531   5.435   7.132  0.9828 -0.1083 -0.6747
  121OSM    C8S12774   4.600   5.516   7.323  0.1971  0.3737  0.6353
  121OSM    H8S12775   4.621   5.412   7.355 -2.4822  0.1225  1.8616
  121OSM    H8T12776   4.497   5.542   7.353 -0.2071  0.3875 -0.6743
  121OSM    C9S12777   4.696   5.610   7.395  1.1584  0.6076 -0.3461
  121OSM    H9S12778   4.677   5.709   7.347 -1.4909 -0.2770 -1.2943
  121OSM    H9T12779   4.805   5.593   7.377  0.6769 -0.3540 -2.7458
  121OSM   C10S12780   4.690   5.619   7.553  0.8381  0.2945 -0.2783
  121OSM   H10S12781   4.775   5.674   7.598  0.5951 -0.1387  0.7261
  121OSM   H10T12782   4.685   5.514   7.588  2.2333 -0.1320 -1.2666
  121OSM   C11S12783   4.574   5.701   7.615  0.4726 -0.0120  0.0410
  121OSM   H11S12784   4.484   5.644   7.585  0.6001 -1.0290  1.5021
  121OSM   H11T12785   4.582   5.797   7.559  0.4213 -0.5342 -0.8694
  121OSM   C12S12786   4.586   5.747   7.761 -0.5877  0.6592  1.2058
  121OSM   H12S12787   4.494   5.800   7.793  0.5015  2.1038  2.0411
  121OSM   H12T12788   4.673   5.815   7.772 -0.2438  0.5137 -0.3098
  121OSM   C13S12789   4.632   5.637   7.852  0.8988  0.7784  0.0508
  121OSM   H13S12790   4.733   5.611   7.816  0.4080  1.2261 -1.7376
  121OSM   H13T12791   4.576   5.542   7.841  4.5653 -1.6014  0.3877
  121OSM   C14S12792   4.635   5.669   8.004  0.1491 -0.3378 -0.6540
  121OSM   H14S12793   4.546   5.630   8.057 -0.6570  0.2950 -1.5160
  121OSM   H14T12794   4.633   5.779   8.019  3.2291  0.2007 -3.0323
  121OSM   C15S12795   4.765   5.623   8.066  0.8249  0.5887 -0.0189
  121OSM   H15S12796   4.759   5.648   8.175 -0.5392 -2.3599  0.6592
  121OSM   H15T12797   4.850   5.666   8.009  1.7710 -2.0718 -0.7487
  121OSM   C16S12798   4.785   5.471   8.064  0.2736 -0.2770  0.0603
  121OSM   H16S12799   4.757   5.431   7.964 -2.7514  0.1820  0.6138
  121OSM   H16T12800   4.722   5.436   8.149  1.9222 -0.9259  1.0621
  121OSM   C17S12801   4.929   5.424   8.088  0.3202  0.9760 -0.2765
  121OSM   H17S12802   4.915   5.314   8.079  0.7503  1.0450 -2.0566
  121OSM   H17T12803   4.957   5.442   8.194  1.9278 -0.1004 -0.4743
  121OSM   C18S12804   5.032   5.466   7.986  0.8326 -0.6070 -0.6820
  121OSM   H18S12805   5.059   5.573   7.996  5.8412 -1.7948  1.4293
  121OSM   H18T12806   4.993   5.446   7.883  1.3790 -1.0814 -0.7997
  121OSM   H18U12807   5.130   5.419   8.008  0.4777 -1.2331 -0.4162
  121OSM    C1F12808   4.628   6.029   6.651  0.9471  0.5722 -0.0860
  121OSM     OF12809   4.530   6.072   6.586 -0.1688 -0.6408  0.4289
  121OSM    C2F12810   4.738   6.109   6.711  0.1207 -0.0077  0.2939
  121OSM    H2F12811   4.806   6.150   6.632  0.9159 -1.8940 -0.0629
  121OSM    H2G12812   4.799   6.041   6.774 -1.3370  1.2584  3.2201
  121OSM    C3F12813   4.687   6.225   6.794 -0.0141 -0.6507  0.2693
  121OSM    H3F12814   4.621   6.295   6.740 -0.9034  1.0677  3.3640
  121OSM    H3G12815   4.778   6.276   6.832 -2.0800  2.8379  0.9271
  121OSM    C4F12816   4.596   6.173   6.907 -0.1928 -0.0558  0.0705
  121OSM    H4F12817   4.507   6.124   6.864  0.8596 -1.3006 -0.7616
  121OSM    H4G12818   4.570   6.261   6.970  0.9400  0.5422 -0.2499
  121OSM    C5F12819   4.659   6.069   6.995  0.2082 -0.1115 -0.1526
  121OSM    H5F12820   4.754   6.113   7.033 -0.3691 -0.4956  1.8793
  121OSM    H5G12821   4.679   5.971   6.946  0.8248 -0.8387  1.4669
  121OSM    C6F12822   4.571   6.043   7.121  0.0113  0.6629  0.0198
  121OSM    H6F12823   4.623   5.961   7.175 -0.2313  0.6530  0.2353
  121OSM    H6G12824   4.473   5.999   7.095  0.9169 -0.7860 -1.1677
  121OSM    C7F12825   4.549   6.167   7.209  0.0545 -0.0130 -0.4763
  121OSM    H7F12826   4.458   6.216   7.167  0.3544  0.3258 -0.7437
  121OSM    H7G12827   4.646   6.218   7.190  0.0831  1.0059  2.0282
  121OSM    C8F12828   4.544   6.134   7.359  0.1852 -0.3515 -0.9958
  121OSM    H8F12829   4.641   6.082   7.372  0.7768  1.2198  1.6315
  121OSM    H8G12830   4.456   6.068   7.367 -0.7222  0.6797 -1.9994
  121OSM    C9F12831   4.534   6.254   7.449  0.1981  0.3977  0.2627
  121OSM    H9F12832   4.437   6.303   7.431 -1.0234 -1.8455  0.4595
  121OSM   C10F12833   4.618   6.281   7.555  0.5836 -0.1630 -0.2381
  121OSM   H10F12834   4.598   6.374   7.609 -1.1861  0.6691 -2.1880
  121OSM   C11F12835   4.731   6.198   7.594 -0.3975  1.3098 -0.4612
  121OSM   H11F12836   4.821   6.260   7.572 -1.1845  2.2541 -1.0630
  121OSM   H11G12837   4.733   6.102   7.538  2.5529 -0.0862  1.6916
  121OSM   C12F12838   4.720   6.151   7.742  0.4888  0.2276  0.4678
  121OSM   H12F12839   4.759   6.233   7.805  0.0590  0.0320  0.9996
  121OSM   H12G12840   4.787   6.064   7.756 -0.9080 -0.7909  1.1504
  121OSM   C13F12841   4.579   6.105   7.799  0.3038 -0.4363 -0.1404
  121OSM   H13F12842   4.529   6.036   7.728  0.1151  1.2365 -1.7121
  121OSM   H13G12843   4.509   6.192   7.801  0.0706 -0.5829 -1.1569
  121OSM   C14F12844   4.605   6.049   7.939  1.0903 -0.2144 -0.3682
  121OSM   H14F12845   4.659   6.126   7.997  3.2240 -0.9445 -1.3026
  121OSM   H14G12846   4.675   5.963   7.936 -1.1350 -2.1775  0.5531
  121OSM   C15F12847   4.475   6.018   8.023  0.4722 -0.2208  0.1685
  121OSM   H15F12848   4.442   5.913   8.008  2.4944 -1.0442  1.1282
  121OSM   H15G12849   4.393   6.082   7.982 -0.6313 -0.6415  1.6604
  121OSM   C16F12850   4.496   6.039   8.174 -0.5417  0.3261 -0.7642
  121OSM   H16F12851   4.553   6.134   8.184 -0.8313  0.4914 -0.7011
  121OSM   H16G12852   4.570   5.960   8.201  2.1694  1.8045 -3.2700
  121OSM   C17F12853   4.373   6.023   8.258 -0.0269 -0.1578 -0.0324
  121OSM   H17F12854   4.294   6.089   8.216 -1.0218  0.1192  2.1014
  121OSM   H17G12855   4.398   6.049   8.363 -1.2150 -1.0593  0.5022
  121OSM   C18F12856   4.327   5.879   8.270 -0.2039  0.1781 -0.2487
  121OSM   H18F12857   4.249   5.865   8.348  1.3745  0.2211  1.4099
  121OSM   H18G12858   4.416   5.819   8.299 -1.1572 -0.2869  1.8877
  121OSM   H18H12859   4.290   5.832   8.176  0.2802 -0.0212 -0.3451
  122OSM      N12860   3.108   1.904   5.888  0.4489 -0.5337 -0.4809
  122OSM    C1512861   3.042   1.892   5.760 -0.2594  0.0655  0.7560
  122OSM   H15A12862   3.014   1.789   5.744  0.8041 -0.3440  1.4593
  122OSM   H15B12863   3.102   1.921   5.676  0.1235 -2.1471  0.2165
  122OSM   H15C12864   2.947   1.942   5.773  0.1116  0.1772  3.8236
  122OSM    C1412865   3.227   1.813   5.891  0.1535  0.3485 -0.0854
  122OSM   H14A12866   3.194   1.711   5.882 -0.4769  0.5520 -0.1489
  122OSM   H14B12867   3.292   1.823   5.977  1.2829 -0.0740 -0.8646
  122OSM   H14C12868   3.292   1.833   5.807  0.7228  0.1458  0.3053
  122OSM    C1312869   3.160   2.044   5.906 -0.3802  0.0466 -0.1446
  122OSM   H13A12870   3.073   2.107   5.912 -2.0133 -2.1164  0.2370
  122OSM   H13B12871   3.202   2.074   5.811 -0.9176 -2.3974 -1.2618
  122OSM   H13C12872   3.227   2.060   5.989  0.5908  0.2956 -0.9413
  122OSM    C1212873   3.012   1.865   6.002 -0.4445 -0.4967 -0.0309
  122OSM   H12A12874   2.983   1.761   5.989 -0.2793 -0.7334  1.3331
  122OSM   H12B12875   2.919   1.919   5.995 -1.1338 -1.5495  0.6293
  122OSM    C1112876   3.053   1.876   6.153  0.0240  0.7594  0.3286
  122OSM   H11A12877   3.127   1.795   6.172  0.6488  1.4366  0.8149
  122OSM   H11B12878   2.972   1.836   6.218  2.2866 -2.4054  1.4578
  122OSM      P12879   2.987   2.121   6.204 -0.1199 -0.1855 -0.3304
  122OSM    O1312880   3.065   2.248   6.224  1.2659  0.0563  0.1591
  122OSM    O1412881   2.881   2.118   6.102  0.3052  0.2252  0.1714
  122OSM    O1112882   2.922   2.094   6.343 -0.2988 -0.6894 -0.4986
  122OSM    O1212883   3.091   2.005   6.188  0.0707  0.3162  0.4969
  122OSM    C1S12884   3.003   2.072   6.458 -0.9096  0.7248  0.1867
  122OSM    H1S12885   3.028   2.169   6.506  1.5934  0.7414 -1.0004
  122OSM    H1T12886   3.100   2.024   6.434 -0.7029  2.0147 -1.7387
  122OSM     NF12887   2.975   1.999   6.693 -0.4104  0.7556 -0.1550
  122OSM    HNF12888   3.020   1.914   6.721 -1.2900 -0.3099 -1.8048
  122OSM    C2S12889   2.911   1.991   6.560 -0.6307 -0.4477  0.4791
  122OSM    H2S12890   2.811   2.039   6.567 -1.5951 -2.3882  0.7211
  122OSM    C3S12891   2.883   1.849   6.508 -0.0426 -0.2063 -0.1140
  122OSM    H3S12892   2.976   1.791   6.488 -0.0442 -0.7625  1.3519
  122OSM     O312893   2.808   1.848   6.389  0.3535 -0.2067 -0.1636
  122OSM    HO312894   2.814   1.937   6.353 -0.9298 -0.6069 -1.4925
  122OSM    C4S12895   2.797   1.776   6.608 -0.4159 -0.0878  0.3242
  122OSM    H4S12896   2.698   1.823   6.622 -0.6697 -0.5072 -0.0341
  122OSM    C5S12897   2.817   1.658   6.665  0.9113 -0.0714  0.2319
  122OSM    H5S12898   2.898   1.589   6.637 -1.3346 -2.4926 -0.7417
  122OSM    C6S12899   2.721   1.601   6.766  0.3133  0.1123  0.1367
  122OSM    H6S12900   2.666   1.506   6.749 -0.3356  0.1937  1.6424
  122OSM    H6T12901   2.644   1.675   6.795  0.5523 -0.7772  3.3918
  122OSM    C7S12902   2.789   1.581   6.900  0.0417  0.0326 -0.1769
  122OSM    H7S12903   2.869   1.504   6.900  1.4724  1.4648 -0.0999
  122OSM    H7T12904   2.710   1.548   6.971 -0.1559  1.6165  0.3718
  122OSM    C8S12905   2.859   1.704   6.970 -0.1613 -0.4379 -0.0398
  122OSM    H8S12906   2.781   1.782   6.982  0.8686  0.7071 -0.5732
  122OSM    H8T12907   2.935   1.740   6.899 -1.9577 -0.4964 -2.1191
  122OSM    C9S12908   2.921   1.678   7.108  0.4344 -0.6786  0.1266
  122OSM    H9S12909   2.989   1.763   7.131 -1.4595  0.2652  2.7021
  122OSM    H9T12910   2.986   1.589   7.095  2.6814  0.2255  3.8042
  122OSM   C10S12911   2.827   1.642   7.230  0.3189 -0.5533 -0.5649
  122OSM   H10S12912   2.760   1.562   7.193  0.1903 -0.5825 -0.2681
  122OSM   H10T12913   2.769   1.736   7.243 -0.7508 -1.0728 -1.4439
  122OSM   C11S12914   2.906   1.590   7.354 -0.1857  0.0869  0.8061
  122OSM   H11S12915   3.006   1.562   7.317  0.7982  2.2500  1.6185
  122OSM   H11T12916   2.854   1.499   7.390 -0.2503 -0.4641 -0.6193
  122OSM   C12S12917   2.900   1.693   7.467  0.8442 -0.3739  0.2207
  122OSM   H12S12918   2.792   1.704   7.492  0.2464 -1.1776 -1.7770
  122OSM   H12T12919   2.937   1.790   7.429  2.9828 -1.2804 -0.1381
  122OSM   C13S12920   2.981   1.640   7.592  0.9167 -0.6331  0.1194
  122OSM   H13S12921   3.079   1.603   7.553  0.1218 -2.9369  0.1378
  122OSM   H13T12922   2.934   1.543   7.622  1.4250 -0.4507  1.5956
  122OSM   C14S12923   2.981   1.739   7.708 -0.0945 -0.2790  0.0759
  122OSM   H14S12924   2.879   1.768   7.743  0.3704 -0.5459  1.7554
  122OSM   H14T12925   3.041   1.827   7.676 -0.2272 -0.1330  0.2243
  122OSM   C15S12926   3.042   1.690   7.840 -0.8741 -0.4320  0.0166
  122OSM   H15S12927   3.145   1.654   7.816  0.5157  1.5574  2.5110
  122OSM   H15T12928   2.987   1.601   7.879 -0.9013 -0.9003 -1.0668
  122OSM   C16S12929   3.079   1.796   7.936  0.4057  0.0941  0.6034
  122OSM   H16S12930   2.994   1.867   7.948 -1.9370 -2.2375 -1.0630
  122OSM   H16T12931   3.176   1.848   7.923  0.7201 -1.0911 -2.6428
  122OSM   C17S12932   3.079   1.720   8.075  0.2516  0.0691  0.4484
  122OSM   H17S12933   3.151   1.635   8.078 -0.7645 -0.8226 -0.0584
  122OSM   H17T12934   2.979   1.672   8.081  1.2424 -2.0760  0.6296
  122OSM   C18S12935   3.092   1.805   8.201 -0.0848  1.0913  0.1495
  122OSM   H18S12936   3.023   1.892   8.193 -1.8288 -0.3728 -1.1891
  122OSM   H18T12937   3.196   1.839   8.225  0.5780 -0.3267 -0.6319
  122OSM   H18U12938   3.065   1.742   8.288  0.8249  1.2206  0.5364
  122OSM    C1F12939   2.976   2.116   6.761  0.5803 -0.3112 -0.8960
  122OSM     OF12940   2.897   2.212   6.734 -0.0218  0.7281 -0.5138
  122OSM    C2F12941   3.077   2.128   6.872 -0.2876 -0.2452  0.0743
  122OSM    H2F12942   3.121   2.230   6.882 -0.8071 -0.2193  2.9992
  122OSM    H2G12943   3.156   2.052   6.857  0.0288  0.0788  0.0773
  122OSM    C3F12944   3.012   2.107   7.011 -0.3769  0.0007 -0.2169
  122OSM    H3F12945   2.976   2.003   7.023 -0.0114 -0.1750 -0.6225
  122OSM    H3G12946   2.929   2.177   7.037  2.3291  2.8601  1.4543
  122OSM    C4F12947   3.109   2.146   7.123  0.0339 -0.4375 -0.1412
  122OSM    H4F12948   3.138   2.253   7.108 -0.6827 -0.2557 -0.2790
  122OSM    H4G12949   3.196   2.078   7.115 -1.3572 -2.1409 -1.4865
  122OSM    C5F12950   3.054   2.122   7.266  0.1164  0.3235 -0.2092
  122OSM    H5F12951   3.041   2.014   7.285  1.3244  0.4130  1.3216
  122OSM    H5G12952   2.950   2.159   7.281 -0.0630 -0.5159  0.7382
  122OSM    C6F12953   3.158   2.167   7.376 -0.1979 -1.5863 -0.4263
  122OSM    H6F12954   3.183   2.275   7.369 -0.8757 -1.5017 -2.1862
  122OSM    H6G12955   3.257   2.118   7.362 -0.3028 -1.0365 -4.3059
  122OSM    C7F12956   3.107   2.146   7.519  0.1070 -0.1069 -0.2069
  122OSM    H7F12957   3.070   2.041   7.529 -1.6541  0.5106  0.2895
  122OSM    H7G12958   3.011   2.200   7.538 -0.2340 -0.7063 -0.1686
  122OSM    C8F12959   3.211   2.177   7.627  0.5222 -0.4155  0.1023
  122OSM    H8F12960   3.251   2.280   7.642  1.0617 -0.7183  0.8131
  122OSM    H8G12961   3.301   2.117   7.601  0.3501  0.1789 -2.0362
  122OSM    C9F12962   3.150   2.128   7.759  0.0654 -0.2099 -0.1716
  122OSM    H9F12963   3.158   2.020   7.780 -0.5229  0.3738  4.0071
  122OSM   C10F12964   3.074   2.200   7.849  0.3143  0.0673  0.0973
  122OSM   H10F12965   3.029   2.148   7.935  1.4303 -0.0906  0.6073
  122OSM   C11F12966   3.031   2.344   7.830 -0.7147 -0.6156 -1.0080
  122OSM   H11F12967   2.924   2.345   7.862 -0.3373  0.7959  0.3486
  122OSM   H11G12968   3.038   2.379   7.725  1.1462  1.9389 -0.1451
  122OSM   C12F12969   3.105   2.455   7.913 -0.1927 -0.0080 -0.5828
  122OSM   H12F12970   3.209   2.456   7.874 -0.0050 -1.9199 -0.2177
  122OSM   H12G12971   3.109   2.436   8.022 -0.6082  1.8831 -0.1994
  122OSM   C13F12972   3.031   2.585   7.888 -0.2599  0.4579  0.1774
  122OSM   H13F12973   2.925   2.556   7.903 -0.4685 -0.3874 -2.3099
  122OSM   H13G12974   3.034   2.599   7.778 -0.8415  0.0163  0.0974
  122OSM   C14F12975   3.079   2.701   7.981 -0.6064  0.2569  0.4527
  122OSM   H14F12976   3.067   2.654   8.081 -0.0550 -3.2801 -1.0009
  122OSM   H14G12977   3.014   2.790   7.975  0.2056  0.7691 -3.6492
  122OSM   C15F12978   3.226   2.734   7.958 -0.0424 -0.7282 -0.2149
  122OSM   H15F12979   3.251   2.752   7.852  3.6449 -0.7665  0.5433
  122OSM   H15G12980   3.294   2.653   7.992  3.3310  2.2183  0.6779
  122OSM   C16F12981   3.272   2.861   8.027  0.4409  0.0934 -0.1620
  122OSM   H16F12982   3.209   2.948   8.000  1.1823  0.6011 -0.3020
  122OSM   H16G12983   3.377   2.879   7.994  0.4223 -0.7859 -0.7554
  122OSM   C17F12984   3.266   2.836   8.179  0.5720  0.9193  0.8178
  122OSM   H17F12985   3.331   2.746   8.185  0.5202  0.7569 -0.5970
  122OSM   H17G12986   3.159   2.826   8.206  0.2351  2.2503  0.0634
  122OSM   C18F12987   3.343   2.942   8.261 -0.6011 -0.6232  0.0455
  122OSM   H18F12988   3.391   3.004   8.183 -2.6205 -0.7419 -1.3623
  122OSM   H18G12989   3.420   2.890   8.322 -0.8618 -1.1973 -0.1091
  122OSM   H18H12990   3.271   2.989   8.331 -0.7788 -0.4723 -0.2385
  123OSM      N12991   6.459   2.976   6.398  0.8636 -0.1800 -0.1939
  123OSM    C1512992   6.388   3.011   6.267 -0.0697  0.2750 -0.4891
  123OSM   H15A12993   6.290   2.966   6.265 -0.3508  0.7889  0.7599
  123OSM   H15B12994   6.441   2.963   6.186 -0.1702 -0.7606  0.0457
  123OSM   H15C12995   6.376   3.118   6.256 -1.2298  0.3525  1.2289
  123OSM    C1412996   6.591   3.038   6.394  0.1746  0.2086  0.2386
  123OSM   H14A12997   6.588   3.143   6.369  0.6286  0.0710 -0.4209
  123OSM   H14B12998   6.643   2.980   6.319 -1.1291 -0.7537  0.0433
  123OSM   H14C12999   6.640   3.025   6.490 -1.1540 -1.4374  0.7434
  123OSM    C1313000   6.376   3.045   6.509 -0.7675 -0.4606 -0.1595
  123OSM   H13A13001   6.382   3.150   6.485  1.0826 -0.7769 -1.2961
  123OSM   H13B13002   6.414   3.013   6.605  0.3181  2.0844  0.3416
  123OSM   H13C13003   6.271   3.019   6.509 -1.0412  0.5757  0.0595
  123OSM    C1213004   6.464   2.825   6.405  0.4460  0.8642  0.2896
  123OSM   H12A13005   6.501   2.777   6.316  1.3026  1.4963  0.2920
  123OSM   H12B13006   6.369   2.775   6.420  0.6212 -0.3868 -2.2878
  123OSM    C1113007   6.553   2.766   6.519 -0.0422  0.0373 -1.0993
  123OSM   H11A13008   6.524   2.661   6.540  0.1950  0.4198  1.4538
  123OSM   H11B13009   6.531   2.835   6.603  0.3813 -1.6366  0.4501
  123OSM      P13010   6.760   2.704   6.367 -0.0089  0.3089 -0.3112
  123OSM    O1313011   6.709   2.752   6.238 -0.5274  0.1253  0.2808
  123OSM    O1413012   6.905   2.701   6.395  0.5893  0.1684  0.3379
  123OSM    O1113013   6.712   2.557   6.393 -0.1683  0.3116 -0.1945
  123OSM    O1213014   6.691   2.779   6.484  0.6447  0.1649 -0.3311
  123OSM    C1S13015   6.784   2.440   6.445  0.2763  0.1379  0.3731
  123OSM    H1S13016   6.874   2.467   6.505  1.1756  1.3864 -1.4453
  123OSM    H1T13017   6.825   2.371   6.369  3.0843 -0.0931  1.9537
  123OSM     NF13018   6.770   2.231   6.576  0.3503  0.4171  0.2878
  123OSM    HNF13019   6.747   2.147   6.527 -0.2015  0.8868 -0.2697
  123OSM    C2S13020   6.693   2.359   6.546 -0.4804  0.8620 -0.0009
  123OSM    H2S13021   6.696   2.423   6.636  2.8976 -0.1619  0.7440
  123OSM    C3S13022   6.557   2.323   6.481  0.6440 -0.4031 -0.3732
  123OSM    H3S13023   6.579   2.254   6.397  2.4629  0.0888 -0.3472
  123OSM     O313024   6.491   2.432   6.418  0.4910 -0.3422 -0.2030
  123OSM    HO313025   6.561   2.498   6.421  0.7808 -0.6187  3.6227
  123OSM    C4S13026   6.470   2.255   6.585  1.3620 -0.0944  0.0773
  123OSM    H4S13027   6.455   2.147   6.580 -0.6462  0.1616 -0.6611
  123OSM    C5S13028   6.395   2.320   6.680 -0.2390 -0.2692 -0.0428
  123OSM    H5S13029   6.379   2.429   6.680  3.0841  0.3656 -1.3906
  123OSM    C6S13030   6.310   2.239   6.772 -0.5142 -1.1728  0.8977
  123OSM    H6S13031   6.339   2.132   6.764  1.5972 -0.6903  1.4101
  123OSM    H6T13032   6.203   2.245   6.744 -0.0295 -0.5290 -0.9250
  123OSM    C7S13033   6.335   2.248   6.922 -0.0799  1.1157  0.2176
  123OSM    H7S13034   6.334   2.352   6.962  0.7300  0.4040  2.2024
  123OSM    H7T13035   6.442   2.219   6.934  0.2180  1.8896 -0.4559
  123OSM    C8S13036   6.253   2.145   7.008  0.1031 -0.1617  0.4747
  123OSM    H8S13037   6.254   2.042   6.967 -0.0520 -0.6566  1.6706
  123OSM    H8T13038   6.146   2.172   7.015 -0.7650 -3.0992  0.0264
  123OSM    C9S13039   6.301   2.142   7.148 -0.8085 -0.7360 -0.1564
  123OSM    H9S13040   6.298   2.245   7.189 -0.6520  0.1412 -2.2307
  123OSM    H9T13041   6.410   2.117   7.146 -0.6655 -0.3067  1.3490
  123OSM   C10S13042   6.222   2.037   7.231  0.0131 -0.0323 -0.3797
  123OSM   H10S13043   6.241   1.929   7.212  1.3672 -0.3982  2.4484
  123OSM   H10T13044   6.115   2.053   7.209 -0.0577  1.1870  0.7055
  123OSM   C11S13045   6.251   2.064   7.374 -0.1424 -0.1763 -0.0043
  123OSM   H11S13046   6.253   2.174   7.393 -0.8646 -0.2446  0.5067
  123OSM   H11T13047   6.344   2.017   7.411 -0.2044  1.3152  2.2897
  123OSM   C12S13048   6.143   2.007   7.473 -0.2976  0.4044 -0.1702
  123OSM   H12S13049   6.187   2.020   7.574  0.3277  0.5769 -0.4611
  123OSM   H12T13050   6.116   1.899   7.468 -1.5243  0.4965  2.5741
  123OSM   C13S13051   6.019   2.093   7.487  0.1709 -0.0304  0.0398
  123OSM   H13S13052   5.992   2.110   7.381 -3.1502 -1.8326  0.4721
  123OSM   H13T13053   6.043   2.190   7.536 -1.1592  0.8141 -0.9026
  123OSM   C14S13054   5.901   2.015   7.561 -0.4024 -0.1065  0.5889
  123OSM   H14S13055   5.883   1.925   7.498 -0.2465  1.5644 -1.9874
  123OSM   H14T13056   5.803   2.068   7.554  0.1667  0.9171  0.1624
  123OSM   C15S13057   5.946   1.975   7.702  0.2673  0.0776 -0.0350
  123OSM   H15S13058   6.035   1.909   7.692  0.7837  0.3137  2.2770
  123OSM   H15T13059   5.864   1.911   7.739 -1.2378  2.3813  0.8366
  123OSM   C16S13060   5.963   2.091   7.800 -0.6026 -0.3468 -0.4030
  123OSM   H16S13061   5.865   2.143   7.806  0.0328  0.7493  1.3335
  123OSM   H16T13062   6.052   2.150   7.770  0.5552 -0.3449  2.6601
  123OSM   C17S13063   5.978   2.036   7.945 -0.2247 -0.1699  0.2174
  123OSM   H17S13064   5.893   1.975   7.981  0.1438  0.1062  1.6548
  123OSM   H17T13065   5.991   2.125   8.011  0.7722 -0.1178 -0.0306
  123OSM   C18S13066   6.118   1.969   7.950 -0.2128 -0.3649  0.3270
  123OSM   H18S13067   6.125   1.906   8.042 -1.9088  0.1064  0.8299
  123OSM   H18T13068   6.190   2.052   7.941 -0.3243 -0.4250 -1.4938
  123OSM   H18U13069   6.137   1.898   7.867 -0.4611 -1.6648  1.3471
  123OSM    C1F13070   6.871   2.224   6.653 -0.1739 -0.8296 -0.1036
  123OSM     OF13071   6.911   2.319   6.713  0.7098 -0.0599  0.2128
  123OSM    C2F13072   6.925   2.089   6.679  0.5116  0.4106  0.8045
  123OSM    H2F13073   6.978   2.046   6.591 -1.3272  1.6037 -0.9872
  123OSM    H2G13074   6.843   2.020   6.706 -0.1950 -0.9432 -3.8286
  123OSM    C3F13075   7.019   2.092   6.802 -0.2315 -0.4603  0.0606
  123OSM    H3F13076   6.964   2.143   6.885  1.0120 -2.9888  2.6042
  123OSM    H3G13077   7.106   2.148   6.762 -1.4539  1.4569 -0.0719
  123OSM    C4F13078   7.062   1.943   6.840  0.5329  0.8386 -0.3760
  123OSM    H4F13079   7.073   1.890   6.743 -0.7261 -1.2497  0.5525
  123OSM    H4G13080   6.979   1.895   6.896  2.9918 -1.0101  1.9456
  123OSM    C5F13081   7.182   1.933   6.933  0.7032 -1.0599 -0.0850
  123OSM    H5F13082   7.144   1.980   7.025  0.5449  0.0873 -0.7179
  123OSM    H5G13083   7.255   2.013   6.908 -1.5488  1.4805  1.0645
  123OSM    C6F13084   7.226   1.789   6.943  0.2838  0.2749 -1.2885
  123OSM    H6F13085   7.249   1.732   6.850  1.2939 -3.6547  1.1426
  123OSM    H6G13086   7.139   1.738   6.991 -1.3283  0.7118 -3.5436
  123OSM    C7F13087   7.337   1.771   7.052  0.0293  0.1799  0.0889
  123OSM    H7F13088   7.305   1.804   7.154  0.3645 -0.7997  0.5189
  123OSM    H7G13089   7.424   1.836   7.026  1.5218 -2.0190 -0.6355
  123OSM    C8F13090   7.387   1.627   7.065 -0.2589  0.9584 -0.6916
  123OSM    H8F13091   7.402   1.591   6.961 -1.1007  1.3146 -0.9433
  123OSM    H8G13092   7.302   1.568   7.107 -1.0265  1.7401 -1.1201
  123OSM    C9F13093   7.517   1.612   7.152 -0.1327  0.5377 -0.4325
  123OSM    H9F13094   7.609   1.635   7.095  0.4527  0.4769  0.4680
  123OSM   C10F13095   7.526   1.578   7.284 -0.2231  0.0618 -0.0364
  123OSM   H10F13096   7.625   1.558   7.328  0.6458  1.7270 -1.0869
  123OSM   C11F13097   7.419   1.541   7.376  0.3995  0.2702  0.1591
  123OSM   H11F13098   7.453   1.445   7.419  0.2882 -0.1294 -0.6332
  123OSM   H11G13099   7.330   1.503   7.321  0.6784 -0.2346  0.0538
  123OSM   C12F13100   7.379   1.652   7.477  0.1855  0.5921  0.2990
  123OSM   H12F13101   7.323   1.726   7.415  0.8734  0.9064  0.0389
  123OSM   H12G13102   7.468   1.717   7.494  0.1842  0.6793 -0.0094
  123OSM   C13F13103   7.308   1.600   7.596 -0.4252  1.0958 -0.3833
  123OSM   H13F13104   7.273   1.677   7.668  0.7232 -0.6764  2.2428
  123OSM   H13G13105   7.388   1.549   7.655 -1.5484  0.1467  0.3524
  123OSM   C14F13106   7.188   1.500   7.567 -0.3382 -0.0641  0.2087
  123OSM   H14F13107   7.236   1.414   7.514  2.3234  0.8609  0.9595
  123OSM   H14G13108   7.113   1.550   7.502 -0.1231  1.8083  1.3378
  123OSM   C15F13109   7.131   1.450   7.701 -0.5398  0.5446 -0.4032
  123OSM   H15F13110   7.051   1.517   7.738  0.2761  1.3221 -0.0207
  123OSM   H15G13111   7.214   1.449   7.775  1.2999 -1.0570 -2.3471
  123OSM   C16F13112   7.072   1.303   7.697 -0.8097  0.1968 -0.1143
  123OSM   H16F13113   7.145   1.244   7.639 -0.2639  1.2866 -0.5626
  123OSM   H16G13114   6.977   1.299   7.639  0.5274  1.1459 -2.4898
  123OSM   C17F13115   7.067   1.236   7.833  0.1901  0.2895 -0.4305
  123OSM   H17F13116   7.169   1.258   7.872  0.6444 -0.2541 -1.2647
  123OSM   H17G13117   7.043   1.128   7.819  1.2163  0.2703 -2.4337
  123OSM   C18F13118   6.976   1.300   7.946 -0.3857 -0.4823  0.3751
  123OSM   H18F13119   7.004   1.402   7.979  1.4190 -1.0831  0.7880
  123OSM   H18G13120   6.978   1.242   8.041 -0.8550 -0.2512  0.5304
  123OSM   H18H13121   6.871   1.312   7.911 -0.0469  0.1433 -0.4444
  124OSM      N13122   2.271   1.291   5.840  0.4811  0.4220  0.3409
  124OSM    C1513123   2.249   1.195   5.724  0.0927  0.0008 -0.0024
  124OSM   H15A13124   2.341   1.140   5.718 -0.0520 -0.6579  2.5077
  124OSM   H15B13125   2.238   1.251   5.632 -2.0138  1.2232  0.9072
  124OSM   H15C13126   2.170   1.125   5.747  1.2836 -1.3441  0.1292
  124OSM    C1413127   2.398   1.366   5.817  0.4568 -0.4886  0.2476
  124OSM   H14A13128   2.411   1.459   5.870  2.4053 -0.7702  0.3272
  124OSM   H14B13129   2.424   1.390   5.714  2.1370  1.5782  1.0798
  124OSM   H14C13130   2.483   1.312   5.855 -0.1422 -0.0866  2.2387
  124OSM    C1313131   2.157   1.383   5.858  0.1675 -0.2777  0.4922
  124OSM   H13A13132   2.170   1.444   5.947  0.3093 -1.3295  1.2092
  124OSM   H13B13133   2.069   1.325   5.882 -1.4073  1.7984 -0.0287
  124OSM   H13C13134   2.136   1.445   5.773 -1.1591 -0.9938  0.2741
  124OSM    C1213135   2.290   1.206   5.968  0.3805 -0.1564 -0.7000
  124OSM   H12A13136   2.199   1.155   5.996  0.7623  0.9634  3.2966
  124OSM   H12B13137   2.305   1.279   6.046  2.3148 -0.6246 -0.5721
  124OSM    C1113138   2.412   1.113   5.967 -0.6905 -0.4085  0.1795
  124OSM   H11A13139   2.410   1.042   5.881 -0.7414  0.2980 -0.4100
  124OSM   H11B13140   2.406   1.043   6.053  1.0578  0.3018  0.9287
  124OSM      P13141   2.620   1.246   6.085  0.0033 -0.2300 -0.4171
  124OSM    O1313142   2.719   1.146   6.130  0.3833 -0.1576  0.3230
  124OSM    O1413143   2.677   1.375   6.035  0.2138  0.0419  0.1109
  124OSM    O1113144   2.520   1.283   6.200 -0.5759  0.1529 -0.6963
  124OSM    O1213145   2.543   1.180   5.961  0.3082  0.2209 -0.7517
  124OSM    C1S13146   2.499   1.195   6.312 -0.0865 -0.0294 -0.1897
  124OSM    H1S13147   2.569   1.108   6.316  1.2059  0.9975  0.4645
  124OSM    H1T13148   2.400   1.146   6.299  0.0373 -0.5764  0.8353
  124OSM     NF13149   2.518   1.161   6.551  0.6796  0.8841  0.0710
  124OSM    HNF13150   2.433   1.132   6.595  1.7278 -3.3703 -0.2343
  124OSM    C2S13151   2.515   1.263   6.448  0.0967  0.5143 -0.1027
  124OSM    H2S13152   2.616   1.309   6.451  0.8907 -0.9136 -2.3874
  124OSM    C3S13153   2.396   1.363   6.469  0.1849 -0.2197  0.3279
  124OSM    H3S13154   2.300   1.308   6.476 -0.0118  0.1348  0.4558
  124OSM     O313155   2.371   1.454   6.359 -0.2740  0.8671 -0.6599
  124OSM    HO313156   2.413   1.406   6.288  0.4363 -0.8728  0.8399
  124OSM    C4S13157   2.416   1.436   6.605  0.0398  0.4048  1.3170
  124OSM    H4S13158   2.500   1.505   6.590 -0.3115  0.7397  0.8470
  124OSM    C5S13159   2.336   1.431   6.712 -0.0211  0.0722 -0.1690
  124OSM    H5S13160   2.241   1.375   6.710 -0.2512  0.3060  2.0024
  124OSM    C6S13161   2.359   1.520   6.836 -0.4647 -0.5088  0.2453
  124OSM    H6S13162   2.260   1.567   6.858 -0.8196  0.0099 -2.2281
  124OSM    H6T13163   2.434   1.594   6.802 -1.6855 -0.0852 -1.6795
  124OSM    C7S13164   2.403   1.426   6.953  0.0499  0.3682  0.1638
  124OSM    H7S13165   2.497   1.377   6.920 -0.2752  0.1157 -0.4087
  124OSM    H7T13166   2.328   1.348   6.979  2.1024 -2.7887 -2.6328
  124OSM    C8S13167   2.432   1.513   7.081  0.9000  0.7737 -0.5315
  124OSM    H8S13168   2.340   1.562   7.119 -0.9826 -2.5427 -0.4134
  124OSM    H8T13169   2.504   1.594   7.058  2.1600  0.4836  2.0581
  124OSM    C9S13170   2.504   1.438   7.191 -0.0377 -0.6910  0.6015
  124OSM    H9S13171   2.601   1.402   7.148 -0.8344 -0.5821 -1.4162
  124OSM    H9T13172   2.454   1.340   7.204  1.1812 -1.7159 -1.6514
  124OSM   C10S13173   2.499   1.516   7.321  0.5611 -0.4439  0.3436
  124OSM   H10S13174   2.393   1.546   7.339  1.0570  0.7065  1.5232
  124OSM   H10T13175   2.570   1.601   7.321  0.1643 -0.0643 -1.8291
  124OSM   C11S13176   2.550   1.435   7.440 -0.3895 -0.1868 -0.8115
  124OSM   H11S13177   2.661   1.427   7.437  0.0645  3.7949 -0.2855
  124OSM   H11T13178   2.493   1.340   7.441 -0.7815  0.0496 -0.6872
  124OSM   C12S13179   2.527   1.504   7.575 -0.1988  0.2213  0.0431
  124OSM   H12S13180   2.422   1.536   7.595 -1.0069 -2.2928  0.1106
  124OSM   H12T13181   2.591   1.594   7.563 -0.2009  0.5756  2.2861
  124OSM   C13S13182   2.580   1.441   7.701 -0.0724  0.1958  0.2959
  124OSM   H13S13183   2.687   1.424   7.676 -0.1840 -3.1610  1.5651
  124OSM   H13T13184   2.526   1.345   7.718  1.0489 -0.7020 -0.9576
  124OSM   C14S13185   2.571   1.522   7.832  0.4233 -0.6991  0.4655
  124OSM   H14S13186   2.471   1.520   7.879 -0.3572  1.5811 -0.9209
  124OSM   H14T13187   2.583   1.631   7.815 -0.2058 -0.5542  0.9137
  124OSM   C15S13188   2.670   1.479   7.939  0.3028  0.0869  0.2099
  124OSM   H15S13189   2.776   1.507   7.923  0.0861  0.9473  0.2478
  124OSM   H15T13190   2.665   1.368   7.947 -0.3339 -0.0276 -1.3548
  124OSM   C16S13191   2.628   1.542   8.074 -0.0866  0.6266  0.4746
  124OSM   H16S13192   2.528   1.508   8.109  1.3505 -1.9879  2.4779
  124OSM   H16T13193   2.623   1.651   8.055 -4.7796  0.3916 -0.7952
  124OSM   C17S13194   2.729   1.524   8.189  0.0715  0.6628  0.6094
  124OSM   H17S13195   2.690   1.599   8.261 -0.2455  3.1707 -1.9969
  124OSM   H17T13196   2.828   1.554   8.151 -0.7809  3.9439  0.7203
  124OSM   C18S13197   2.730   1.384   8.246  0.1932 -0.4079 -0.5916
  124OSM   H18S13198   2.774   1.386   8.348 -0.2326 -1.6803 -0.3687
  124OSM   H18T13199   2.788   1.317   8.179  1.4699 -0.4652  0.5423
  124OSM   H18U13200   2.627   1.342   8.257  1.4934 -3.5525  0.8128
  124OSM    C1F13201   2.620   1.093   6.578 -0.7996  0.4379 -0.3424
  124OSM     OF13202   2.731   1.130   6.541 -0.1551 -0.6527  0.1029
  124OSM    C2F13203   2.603   0.967   6.649 -0.9368 -0.1707 -0.7219
  124OSM    H2F13204   2.591   0.885   6.575  2.8950 -0.5024 -1.1832
  124OSM    H2G13205   2.516   0.967   6.719  0.0211  0.8099  0.5147
  124OSM    C3F13206   2.733   0.921   6.721 -0.1166  0.7947  0.5290
  124OSM    H3F13207   2.818   0.903   6.651 -0.9977 -1.1450 -0.1060
  124OSM    H3G13208   2.720   0.824   6.772 -1.1857  0.3192 -0.6005
  124OSM    C4F13209   2.772   1.023   6.833  0.7602  0.6560 -0.0370
  124OSM    H4F13210   2.814   1.115   6.786 -0.7465  1.5632  0.3166
  124OSM    H4G13211   2.857   0.970   6.881 -0.1333 -1.4277 -0.6527
  124OSM    C5F13212   2.657   1.041   6.937 -0.4639  0.3499  0.0598
  124OSM    H5F13213   2.595   0.949   6.948 -0.5540  0.6933  3.3107
  124OSM    H5G13214   2.596   1.125   6.898 -3.4009 -1.3836  0.5553
  124OSM    C6F13215   2.701   1.098   7.069  0.8077  0.1169  0.4363
  124OSM    H6F13216   2.614   1.155   7.108 -0.4647  0.2484 -2.3305
  124OSM    H6G13217   2.791   1.159   7.047  0.7663 -0.1752 -0.5855
  124OSM    C7F13218   2.751   0.997   7.163  0.1108  0.1636  0.3060
  124OSM    H7F13219   2.828   0.927   7.122 -0.7402 -1.7396  1.7755
  124OSM    H7G13220   2.662   0.942   7.200  1.5199 -1.4183  1.5466
  124OSM    C8F13221   2.808   1.064   7.288 -0.0791  0.7779 -0.1489
  124OSM    H8F13222   2.732   1.135   7.329 -0.0134  2.1934 -2.3371
  124OSM    H8G13223   2.895   1.123   7.253  1.1043 -0.5429  0.4663
  124OSM    C9F13224   2.855   0.965   7.388 -0.1199  0.1181 -0.4610
  124OSM    H9F13225   2.893   0.873   7.341  0.8197 -0.3178  1.1051
  124OSM   C10F13226   2.851   0.971   7.525 -0.4292 -0.2195 -0.1436
  124OSM   H10F13227   2.909   0.898   7.584 -0.1254  0.2319  0.1247
  124OSM   C11F13228   2.802   1.088   7.606  0.2979 -0.6637 -0.3418
  124OSM   H11F13229   2.703   1.058   7.647  0.3565  0.7853  0.9422
  124OSM   H11G13230   2.788   1.172   7.534 -1.0750 -2.2133 -1.9841
  124OSM   C12F13231   2.903   1.132   7.720 -0.0100  0.1728  0.1800
  124OSM   H12F13232   2.935   1.035   7.764 -1.5876 -0.2245  0.5267
  124OSM   H12G13233   2.863   1.198   7.801  0.1384  0.4929 -0.0062
  124OSM   C13F13234   3.026   1.192   7.663  0.2396 -0.2935  0.3288
  124OSM   H13F13235   3.003   1.294   7.624 -1.7886 -0.9284 -0.2622
  124OSM   H13G13236   3.068   1.133   7.578  2.1377 -0.7044  1.5064
  124OSM   C14F13237   3.137   1.209   7.767 -0.1111  0.4397  0.8926
  124OSM   H14F13238   3.217   1.266   7.715 -0.6981 -0.1113 -0.6623
  124OSM   H14G13239   3.179   1.112   7.801  0.4691  0.5068  0.3848
  124OSM   C15F13240   3.095   1.292   7.887 -0.3933 -0.0809 -0.0405
  124OSM   H15F13241   3.009   1.250   7.945 -1.3759  0.8857 -0.7400
  124OSM   H15G13242   3.053   1.390   7.857  0.3305  0.7891  1.6396
  124OSM   C16F13243   3.208   1.332   7.981  0.0716 -0.2405  0.4091
  124OSM   H16F13244   3.252   1.431   7.956  0.1933 -0.4658 -0.2846
  124OSM   H16G13245   3.286   1.254   7.983  2.0537  1.3845 -3.1993
  124OSM   C17F13246   3.171   1.348   8.131  0.6286  0.2163 -0.3123
  124OSM   H17F13247   3.118   1.257   8.167 -1.2043  0.3580 -2.4315
  124OSM   H17G13248   3.087   1.421   8.137  0.0126 -0.5272  0.3294
  124OSM   C18F13249   3.280   1.394   8.225  0.0520 -0.2489 -0.0661
  124OSM   H18F13250   3.260   1.356   8.327 -1.5205 -2.0930 -1.0028
  124OSM   H18G13251   3.289   1.504   8.217 -0.4334 -0.1612  0.4842
  124OSM   H18H13252   3.384   1.362   8.203  0.0942  0.1468 -0.4557
  125OSM      N13253   3.587   5.131   6.260  0.0281  0.5929  0.0878
  125OSM    C1513254   3.460   5.061   6.300 -0.3609 -0.2691  0.1372
  125OSM   H15A13255   3.436   5.057   6.405 -1.5994 -0.0292 -0.1184
  125OSM   H15B13256   3.456   4.965   6.252 -1.7283 -0.1913  0.0587
  125OSM   H15C13257   3.383   5.124   6.259 -0.0212 -0.1535 -0.3395
  125OSM    C1413258   3.608   5.121   6.113  0.1639 -0.9073 -0.5108
  125OSM   H14A13259   3.699   5.169   6.081 -0.1707  0.5802  0.6541
  125OSM   H14B13260   3.528   5.175   6.064  0.1021 -0.5049  0.0373
  125OSM   H14C13261   3.599   5.020   6.073 -1.0422 -0.6910 -0.8513
  125OSM    C1313262   3.569   5.275   6.282  0.5682 -1.0790  0.0284
  125OSM   H13A13263   3.659   5.326   6.252 -0.2832 -0.9531 -2.5650
  125OSM   H13B13264   3.552   5.308   6.384  1.1904  1.4716 -0.6140
  125OSM   H13C13265   3.503   5.321   6.210  0.0588  0.2079  1.2479
  125OSM    C1213266   3.714   5.076   6.319  0.0626 -0.2351  0.2872
  125OSM   H12A13267   3.797   5.104   6.255 -2.3142 -1.1463 -3.5318
  125OSM   H12B13268   3.718   4.969   6.307 -1.7369 -0.3362  0.4734
  125OSM    C1113269   3.743   5.106   6.468  0.4795  0.4906 -0.6052
  125OSM   H11A13270   3.812   5.027   6.506  0.2492  0.8275  0.5820
  125OSM   H11B13271   3.648   5.096   6.527  0.6438  0.3413 -0.3608
  125OSM      P13272   3.941   5.273   6.421  0.1721  0.0486 -0.4366
  125OSM    O1313273   3.957   5.223   6.282 -0.2168 -0.1546 -0.2747
  125OSM    O1413274   3.972   5.409   6.463 -0.8558  0.1911 -0.3536
  125OSM    O1113275   4.021   5.175   6.514  0.1946 -0.3182  0.0326
  125OSM    O1213276   3.795   5.238   6.485 -0.3850 -0.1229 -0.3473
  125OSM    C1S13277   4.044   5.203   6.656  1.2003 -0.5153 -0.5573
  125OSM    H1S13278   3.952   5.166   6.706  0.3810 -0.3498 -1.8881
  125OSM    H1T13279   4.043   5.312   6.678 -0.3023 -0.2416 -1.8285
  125OSM     NF13280   4.167   5.158   6.858 -0.3887 -0.9752  0.2492
  125OSM    HNF13281   4.212   5.243   6.886  0.0448 -0.9661 -0.4739
  125OSM    C2S13282   4.169   5.139   6.715 -0.1517  0.2609  0.2332
  125OSM    H2S13283   4.175   5.030   6.696  1.8240  0.7817 -2.8561
  125OSM    C3S13284   4.293   5.202   6.645  0.3720  0.5929  0.1339
  125OSM    H3S13285   4.306   5.309   6.673  0.6927  0.4618  0.4943
  125OSM     O313286   4.299   5.191   6.508  0.3362 -0.3334  0.5856
  125OSM    HO313287   4.208   5.162   6.494  0.4185 -1.1745  1.6459
  125OSM    C4S13288   4.407   5.121   6.690 -0.4077  0.5714  0.9529
  125OSM    H4S13289   4.410   5.022   6.641 -1.4701  1.4037 -0.8972
  125OSM    C5S13290   4.503   5.158   6.778  0.2238  0.5943  0.4512
  125OSM    H5S13291   4.491   5.253   6.832 -0.7601 -0.9225  3.0812
  125OSM    C6S13292   4.618   5.072   6.818  0.3891  0.2506 -0.5897
  125OSM    H6S13293   4.712   5.131   6.829  0.5455 -0.0420 -0.3592
  125OSM    H6T13294   4.630   4.985   6.750 -0.2950  0.1072 -0.5379
  125OSM    C7S13295   4.572   4.997   6.946 -0.6170 -0.4291 -0.0889
  125OSM    H7S13296   4.664   4.941   6.974 -0.3255 -0.3252 -0.8038
  125OSM    H7T13297   4.494   4.920   6.928 -0.6246 -0.3365 -0.4575
  125OSM    C8S13298   4.538   5.088   7.069  0.0082 -0.1160 -0.1636
  125OSM    H8S13299   4.431   5.115   7.064 -0.3379  0.0753  4.4653
  125OSM    H8T13300   4.599   5.181   7.070 -1.2017  0.6896 -0.0590
  125OSM    C9S13301   4.566   5.014   7.197 -0.1549  0.1115  0.0657
  125OSM    H9S13302   4.676   5.004   7.202 -0.0206  1.5149  0.6456
  125OSM    H9T13303   4.522   4.913   7.191 -0.0103 -0.0172  0.9802
  125OSM   C10S13304   4.519   5.095   7.320 -0.5669 -0.0467 -0.0393
  125OSM   H10S13305   4.554   5.200   7.326 -0.6361 -0.0980  1.9479
  125OSM   H10T13306   4.575   5.061   7.411 -0.6539  0.6143  0.2685
  125OSM   C11S13307   4.368   5.118   7.338 -0.4354  0.2933 -0.3088
  125OSM   H11S13308   4.323   5.016   7.332 -1.4900  0.8102 -2.2342
  125OSM   H11T13309   4.322   5.179   7.256 -0.8770  0.0597 -0.2362
  125OSM   C12S13310   4.324   5.191   7.471 -0.3113 -0.4707  0.5271
  125OSM   H12S13311   4.242   5.258   7.438 -0.6817 -0.7955  0.7741
  125OSM   H12T13312   4.409   5.249   7.513 -0.4244 -1.4107  2.1566
  125OSM   C13S13313   4.266   5.098   7.578 -0.4711  0.2577  0.2858
  125OSM   H13S13314   4.330   5.008   7.585  0.5724  1.0402  1.1413
  125OSM   H13T13315   4.168   5.068   7.535 -0.5048  0.4188  0.2466
  125OSM   C14S13316   4.237   5.180   7.709  0.5080  0.6394  0.0046
  125OSM   H14S13317   4.165   5.257   7.673 -0.5894  0.2963  1.3947
  125OSM   H14T13318   4.336   5.219   7.739  1.8051 -0.4501 -2.4996
  125OSM   C15S13319   4.168   5.106   7.820  0.1941  0.5745 -0.4549
  125OSM   H15S13320   4.232   5.035   7.877 -0.2702  1.0794  0.7349
  125OSM   H15T13321   4.079   5.051   7.784 -0.0026  0.4508  0.2228
  125OSM   C16S13322   4.120   5.207   7.930  0.0767 -0.0543  0.4511
  125OSM   H16S13323   4.052   5.286   7.890  0.0742  0.3165  1.1673
  125OSM   H16T13324   4.210   5.265   7.958  1.5031 -2.0486  0.1986
  125OSM   C17S13325   4.086   5.133   8.065 -0.3340 -0.2280  0.5662
  125OSM   H17S13326   4.176   5.071   8.088  2.4429  2.3258 -2.4138
  125OSM   H17T13327   4.003   5.063   8.042  1.3012 -1.5283 -1.8692
  125OSM   C18S13328   4.048   5.227   8.174  0.4297 -0.6297 -0.2986
  125OSM   H18S13329   4.126   5.300   8.206 -0.0056 -0.5117  0.5161
  125OSM   H18T13330   4.014   5.172   8.265 -0.7315 -0.8408 -0.8416
  125OSM   H18U13331   3.957   5.288   8.151  0.9607  0.1750 -0.3271
  125OSM    C1F13332   4.088   5.096   6.941  0.0519  0.0262 -0.3188
  125OSM     OF13333   4.012   5.009   6.903  0.1584  0.5717 -0.5097
  125OSM    C2F13334   4.093   5.133   7.082 -0.2408 -0.4031  0.2285
  125OSM    H2F13335   4.165   5.216   7.099  0.3888 -1.4307  3.2855
  125OSM    H2G13336   4.117   5.038   7.134 -0.1280 -0.9543 -0.8012
  125OSM    C3F13337   3.954   5.181   7.141 -0.0003  0.5960 -0.8070
  125OSM    H3F13338   3.880   5.098   7.139  0.1662  0.4568 -1.3280
  125OSM    H3G13339   3.905   5.255   7.074 -1.1806  1.7590  1.2414
  125OSM    C4F13340   3.975   5.215   7.286 -0.1927 -0.4651  0.6253
  125OSM    H4F13341   4.028   5.312   7.301  0.3704 -0.9387  1.8133
  125OSM    H4G13342   4.050   5.143   7.325 -0.7552 -1.0137  0.7173
  125OSM    C5F13343   3.837   5.216   7.362 -0.0909 -0.4108 -0.5563
  125OSM    H5F13344   3.792   5.116   7.343  0.4234 -0.6542 -0.5156
  125OSM    H5G13345   3.782   5.285   7.294  1.1328  0.6619 -0.4943
  125OSM    C6F13346   3.846   5.270   7.508 -0.2111  0.4841 -0.3950
  125OSM    H6F13347   3.897   5.369   7.500 -0.4864  0.6663  0.0651
  125OSM    H6G13348   3.904   5.199   7.570  1.8454  1.9273 -0.5773
  125OSM    C7F13349   3.701   5.290   7.570 -0.4564 -0.3812  0.0441
  125OSM    H7F13350   3.650   5.191   7.560  0.5844 -0.9460  0.2514
  125OSM    H7G13351   3.641   5.365   7.513 -2.1832 -2.7906 -1.5045
  125OSM    C8F13352   3.710   5.326   7.718  0.0751 -0.3012  0.4809
  125OSM    H8F13353   3.783   5.258   7.767  0.9771  0.8454  0.7690
  125OSM    H8G13354   3.608   5.291   7.747 -0.8225 -0.6273 -2.7199
  125OSM    C9F13355   3.754   5.464   7.753  0.0772 -1.0502  0.2361
  125OSM    H9F13356   3.814   5.516   7.678 -0.8186 -1.6575 -0.9292
  125OSM   C10F13357   3.725   5.527   7.861 -0.0914  0.2436  0.0429
  125OSM   H10F13358   3.770   5.626   7.875  1.2027 -0.5077  1.5121
  125OSM   C11F13359   3.646   5.479   7.979  0.0070  0.4877 -0.4881
  125OSM   H11F13360   3.654   5.369   7.992 -1.7151  0.4001  0.0121
  125OSM   H11G13361   3.540   5.497   7.953 -0.4229 -0.7068  0.3867
  125OSM   C12F13362   3.674   5.561   8.111 -0.0180 -0.0598  0.8207
  125OSM   H12F13363   3.784   5.552   8.123  0.3716  1.1394 -1.3611
  125OSM   H12G13364   3.629   5.507   8.198 -1.3985  0.5736  0.5207
  125OSM   C13F13365   3.617   5.703   8.117  0.7932  0.8376 -0.1955
  125OSM   H13F13366   3.509   5.679   8.109  1.1093 -0.3296 -1.4731
  125OSM   H13G13367   3.638   5.761   8.025  1.8366  2.5575  1.0632
  125OSM   C14F13368   3.668   5.786   8.234 -0.4846 -0.0203  0.0184
  125OSM   H14F13369   3.774   5.812   8.214 -0.4719  0.5264  0.7413
  125OSM   H14G13370   3.670   5.726   8.328  1.6941  2.1381  1.4945
  125OSM   C15F13371   3.590   5.917   8.266  0.3677 -0.5826 -0.3414
  125OSM   H15F13372   3.642   5.968   8.350 -1.5977 -3.1723  2.6859
  125OSM   H15G13373   3.492   5.895   8.314 -0.6985  1.0676 -1.6781
  125OSM   C16F13374   3.565   6.016   8.153  0.5278  0.6537 -0.8508
  125OSM   H16F13375   3.512   5.981   8.061 -0.3378 -0.2108 -0.0503
  125OSM   H16G13376   3.662   6.037   8.103  1.3003 -0.2215  0.2367
  125OSM   C17F13377   3.491   6.141   8.193 -0.0600 -0.1167  0.3074
  125OSM   H17F13378   3.532   6.184   8.287  0.4266 -0.1888  0.1276
  125OSM   H17G13379   3.385   6.122   8.221 -0.0384 -0.4910  0.1371
  125OSM   C18F13380   3.503   6.246   8.079  0.4385  0.3902  0.0163
  125OSM   H18F13381   3.611   6.266   8.060  0.1821  2.2410  0.2958
  125OSM   H18G13382   3.471   6.343   8.123  1.9013  1.4733 -1.2342
  125OSM   H18H13383   3.444   6.225   7.988 -2.9959  4.3213  1.0152
  126OSM      N13384   3.389   2.416   6.418 -0.2010 -0.8709 -0.0435
  126OSM    C1513385   3.534   2.393   6.442 -0.4038  0.3248  0.1319
  126OSM   H15A13386   3.560   2.288   6.443 -0.9689  0.1470 -1.1175
  126OSM   H15B13387   3.564   2.443   6.532 -0.6969  0.6117  0.0752
  126OSM   H15C13388   3.583   2.433   6.354 -2.1728 -0.7208 -1.4050
  126OSM    C1413389   3.352   2.338   6.296 -0.5703 -0.8129 -0.5829
  126OSM   H14A13390   3.415   2.371   6.215  2.0380 -0.2319  1.5359
  126OSM   H14B13391   3.248   2.355   6.271 -0.9098  1.3861  1.8308
  126OSM   H14C13392   3.357   2.231   6.303  0.6635 -0.7000  0.5752
  126OSM    C1313393   3.323   2.353   6.536  0.0113  0.7586  0.3683
  126OSM   H13A13394   3.364   2.253   6.537  1.2045  1.1461 -2.1014
  126OSM   H13B13395   3.215   2.353   6.535 -0.0193 -0.6294  1.1831
  126OSM   H13C13396   3.353   2.398   6.629 -1.6519  1.5546  0.5504
  126OSM    C1213397   3.353   2.566   6.404 -0.6622  0.1310  0.0079
  126OSM   H12A13398   3.387   2.616   6.493  1.4788  1.6010 -1.5384
  126OSM   H12B13399   3.246   2.572   6.421 -0.4470  0.5402  1.3446
  126OSM    C1113400   3.415   2.635   6.279 -0.0562 -0.0789 -0.3890
  126OSM   H11A13401   3.377   2.739   6.267 -0.8054 -0.1752  0.8637
  126OSM   H11B13402   3.371   2.583   6.192  1.4421 -1.6724 -0.2499
  126OSM      P13403   3.659   2.743   6.321  0.1123 -0.4427  0.0740
  126OSM    O1313404   3.781   2.671   6.368 -0.4850  0.4090  0.1525
  126OSM    O1413405   3.671   2.837   6.204  0.7935  0.4262 -0.4719
  126OSM    O1113406   3.586   2.814   6.437  0.2799  0.0979 -0.1393
  126OSM    O1213407   3.556   2.630   6.276  0.0856  0.1694 -0.3170
  126OSM    C1S13408   3.648   2.898   6.539 -0.0020  0.1012  0.1007
  126OSM    H1S13409   3.684   2.991   6.491 -0.0794  0.7403  1.2300
  126OSM    H1T13410   3.726   2.846   6.599 -1.1382 -1.5479  0.2167
  126OSM     NF13411   3.606   3.058   6.724  0.4041  0.4132  0.2316
  126OSM    HNF13412   3.660   3.034   6.804 -0.0926 -0.3001  0.3682
  126OSM    C2S13413   3.550   2.944   6.650  0.0332  0.4576  0.2116
  126OSM    H2S13414   3.463   2.982   6.594 -0.6376 -1.3551 -0.0403
  126OSM    C3S13415   3.504   2.823   6.739  0.2651  0.0367 -0.0255
  126OSM    H3S13416   3.595   2.792   6.795  0.3038  1.0803  0.5093
  126OSM     O313417   3.461   2.707   6.672  0.3619 -0.0095  0.4114
  126OSM    HO313418   3.498   2.710   6.584  0.8607 -4.0393  0.3040
  126OSM    C4S13419   3.398   2.858   6.842 -0.4730  0.2538 -0.2313
  126OSM    H4S13420   3.314   2.920   6.808 -1.0735 -0.2160  0.3764
  126OSM    C5S13421   3.390   2.807   6.970 -0.6277 -0.9102  0.0599
  126OSM    H5S13422   3.464   2.732   7.003 -0.5842 -0.3781  1.2161
  126OSM    C6S13423   3.289   2.829   7.078 -0.4704  0.1404 -0.6295
  126OSM    H6S13424   3.345   2.876   7.162 -1.5472 -0.1720  0.2924
  126OSM    H6T13425   3.250   2.739   7.131  3.9338  0.2856  3.6248
  126OSM    C7S13426   3.194   2.944   7.043 -0.2086 -0.1344 -0.6001
  126OSM    H7S13427   3.129   2.901   6.964  0.1510 -1.6956 -0.0998
  126OSM    H7T13428   3.253   3.026   6.998  1.6616 -1.4110 -0.5993
  126OSM    C8S13429   3.097   2.998   7.153 -0.9423  0.2295  0.0047
  126OSM    H8S13430   3.007   2.933   7.150 -0.2379 -0.7320 -1.3609
  126OSM    H8T13431   3.067   3.103   7.130  2.3965  1.5736  1.0961
  126OSM    C9S13432   3.163   2.999   7.294 -0.0682 -0.0456 -0.0857
  126OSM    H9S13433   3.260   3.046   7.319 -0.3999  0.1719  0.8435
  126OSM    H9T13434   3.186   2.895   7.325 -1.0670 -0.0189  0.8151
  126OSM   C10S13435   3.061   3.040   7.399  0.5613  0.4974  0.2103
  126OSM   H10S13436   2.973   2.974   7.385  1.0804 -0.4720  1.3231
  126OSM   H10T13437   3.026   3.145   7.383  1.2927  0.6135 -0.7117
  126OSM   C11S13438   3.087   3.028   7.548  0.0312  0.3353  0.1848
  126OSM   H11S13439   3.176   3.092   7.567  0.4439 -0.7396  2.1651
  126OSM   H11T13440   3.122   2.925   7.570  0.4655  0.5829  0.6853
  126OSM   C12S13441   2.972   3.081   7.635 -1.1222  0.1122 -0.2512
  126OSM   H12S13442   2.882   3.015   7.633  0.9214 -2.8421 -1.2917
  126OSM   H12T13443   2.941   3.176   7.587 -2.1901 -1.0739 -1.9984
  126OSM   C13S13444   3.024   3.110   7.778 -0.3852  0.1282  0.7538
  126OSM   H13S13445   3.106   3.185   7.767  1.5509 -1.8565  1.0040
  126OSM   H13T13446   3.066   3.015   7.816 -0.2011 -0.5091 -0.9695
  126OSM   C14S13447   2.915   3.169   7.871 -0.1567 -0.7133 -0.9989
  126OSM   H14S13448   2.819   3.113   7.859 -1.3471 -0.3941  4.3919
  126OSM   H14T13449   2.897   3.276   7.848 -0.3002 -0.7058 -0.8516
  126OSM   C15S13450   2.932   3.166   8.023  0.2182  0.3989  0.1905
  126OSM   H15S13451   3.026   3.223   8.038 -0.2656  1.2891 -0.0764
  126OSM   H15T13452   2.940   3.059   8.053 -0.6924  0.5705  1.1193
  126OSM   C16S13453   2.818   3.234   8.106  0.5655  0.1011 -0.0620
  126OSM   H16S13454   2.720   3.182   8.096  0.1610  1.0526 -1.3415
  126OSM   H16T13455   2.799   3.336   8.066  2.4134  0.6316  0.3272
  126OSM   C17S13456   2.846   3.255   8.259 -1.0080  0.3228  0.4990
  126OSM   H17S13457   2.918   3.340   8.261  1.2892 -1.4916 -0.2896
  126OSM   H17T13458   2.897   3.164   8.296  0.7385  0.3152 -1.7466
  126OSM   C18S13459   2.719   3.300   8.334 -0.4470  0.6406 -0.4300
  126OSM   H18S13460   2.640   3.222   8.329  0.2912 -0.0687 -1.1574
  126OSM   H18T13461   2.674   3.391   8.288 -1.6287 -0.6773 -1.9797
  126OSM   H18U13462   2.741   3.318   8.442  0.3872 -0.0170 -0.4872
  126OSM    C1F13463   3.622   3.179   6.674 -0.9534 -0.3200  0.2038
  126OSM     OF13464   3.553   3.197   6.573 -1.4353  0.1481  0.5887
  126OSM    C2F13465   3.729   3.271   6.736  0.2676  0.2881  0.9950
  126OSM    H2F13466   3.826   3.264   6.682  1.0289  0.3104  2.3253
  126OSM    H2G13467   3.751   3.230   6.837  1.2827  0.0946  0.7134
  126OSM    C3F13468   3.678   3.421   6.739 -0.8163  0.4645  0.9608
  126OSM    H3F13469   3.681   3.460   6.635  0.3380 -4.0698 -0.9735
  126OSM    H3G13470   3.754   3.473   6.800 -1.4748  0.1402  2.0847
  126OSM    C4F13471   3.543   3.452   6.810 -0.8443  0.3228 -0.4902
  126OSM    H4F13472   3.456   3.419   6.749 -0.0127 -1.7819 -0.6402
  126OSM    H4G13473   3.533   3.562   6.810 -0.3032  0.4451 -3.0702
  126OSM    C5F13474   3.524   3.399   6.951 -0.6067  0.0898  0.5922
  126OSM    H5F13475   3.600   3.443   7.020 -0.1878 -1.8455  1.4199
  126OSM    H5G13476   3.540   3.290   6.949  2.3410  0.4217  1.2434
  126OSM    C6F13477   3.387   3.426   7.006  0.3111 -0.8958 -0.4482
  126OSM    H6F13478   3.307   3.402   6.932 -0.3822  1.3454 -0.4977
  126OSM    H6G13479   3.381   3.532   7.037  1.1259 -0.4558 -1.7504
  126OSM    C7F13480   3.350   3.354   7.139  0.2380 -1.2160  0.2107
  126OSM    H7F13481   3.423   3.377   7.219  0.9515  1.2996 -1.0676
  126OSM    H7G13482   3.368   3.246   7.120  3.4451 -0.8841  0.9005
  126OSM    C8F13483   3.202   3.364   7.178 -0.1817  0.2557  0.0386
  126OSM    H8F13484   3.171   3.276   7.238 -0.1542  0.7581  0.8105
  126OSM    H8G13485   3.146   3.350   7.083  0.1219 -2.3449  0.1828
  126OSM    C9F13486   3.179   3.502   7.238  0.8858  0.1043 -0.0282
  126OSM    H9F13487   3.155   3.583   7.167  0.2456 -0.9980 -1.0953
  126OSM   C10F13488   3.199   3.532   7.366 -0.2037 -0.3085 -0.0687
  126OSM   H10F13489   3.190   3.636   7.398  1.3023  0.5331 -2.1553
  126OSM   C11F13490   3.239   3.429   7.474 -0.5223  0.1804  0.6176
  126OSM   H11F13491   3.347   3.440   7.496  1.0003 -3.2877 -3.6542
  126OSM   H11G13492   3.245   3.323   7.440 -0.3837  0.1946  0.5988
  126OSM   C12F13493   3.143   3.422   7.597 -0.5814  0.0259  0.0891
  126OSM   H12F13494   3.191   3.349   7.666 -1.0393 -2.2596 -1.8778
  126OSM   H12G13495   3.045   3.376   7.573 -1.9720  0.9808  3.3137
  126OSM   C13F13496   3.116   3.552   7.671  0.1220  0.0861  0.4710
  126OSM   H13F13497   3.062   3.631   7.615  1.8084  1.0920  0.1823
  126OSM   H13G13498   3.224   3.577   7.681  0.6982 -2.8379  2.7265
  126OSM   C14F13499   3.051   3.527   7.807  0.1272  0.4200  0.2854
  126OSM   H14F13500   3.088   3.430   7.845 -1.6072 -0.1172  0.6877
  126OSM   H14G13501   2.941   3.511   7.807  0.0466  0.9475  0.3074
  126OSM   C15F13502   3.069   3.628   7.916  0.0939  0.2740 -0.3011
  126OSM   H15F13503   3.015   3.724   7.905  0.8127  0.5439 -1.8003
  126OSM   H15G13504   3.175   3.660   7.924  0.5641 -1.7586  4.0188
  126OSM   C16F13505   3.016   3.586   8.054  0.4761  0.4890 -0.2933
  126OSM   H16F13506   3.059   3.491   8.094 -0.6554  0.5881  1.2697
  126OSM   H16G13507   2.910   3.554   8.053  0.8376 -0.7821 -2.1218
  126OSM   C17F13508   3.048   3.683   8.171 -0.0292 -0.2782  0.3425
  126OSM   H17F13509   2.990   3.773   8.142  0.8096 -0.2460 -1.3555
  126OSM   H17G13510   3.153   3.719   8.172  0.1675 -0.8332  0.7083
  126OSM   C18F13511   3.020   3.624   8.305  0.4079  0.1057  0.2015
  126OSM   H18F13512   3.006   3.708   8.377 -1.8785 -0.4148  0.4376
  126OSM   H18G13513   3.090   3.546   8.340  1.4557  0.3098 -1.3409
  126OSM   H18H13514   2.920   3.575   8.305  2.3463 -4.6381 -3.5904
  127OSM      N13515   1.107   3.504   6.475  0.1975  0.2599  0.7473
  127OSM    C1513516   1.246   3.544   6.468 -0.5630 -0.0588  0.0516
  127OSM   H15A13517   1.281   3.537   6.366 -3.9682  0.5224 -1.2844
  127OSM   H15B13518   1.309   3.485   6.533 -0.5348  0.4744  0.5185
  127OSM   H15C13519   1.256   3.648   6.496  1.4326  0.0946 -1.0295
  127OSM    C1413520   1.099   3.353   6.473 -0.4338  0.1298 -0.3380
  127OSM   H14A13521   1.147   3.301   6.391  0.9770  2.1520 -0.8571
  127OSM   H14B13522   1.002   3.306   6.464 -0.7569  1.0862 -2.2043
  127OSM   H14C13523   1.138   3.309   6.564  0.2066 -3.4993 -2.2004
  127OSM    C1313524   1.043   3.559   6.602 -0.2844  0.6723  0.6294
  127OSM   H13A13525   0.939   3.532   6.613  0.6458 -3.0982  1.6925
  127OSM   H13B13526   1.047   3.667   6.597  1.1547  0.5908 -2.5437
  127OSM   H13C13527   1.091   3.531   6.695  0.9176 -0.5599 -0.3231
  127OSM    C1213528   1.035   3.568   6.354  0.3427  0.1754  0.5660
  127OSM   H12A13529   0.928   3.553   6.362  0.2538 -0.3749 -1.3043
  127OSM   H12B13530   1.063   3.520   6.262 -0.2570  0.7473  0.0722
  127OSM    C1113531   1.034   3.720   6.331 -0.3702 -0.7322 -0.8216
  127OSM   H11A13532   0.996   3.758   6.234  1.1439  2.0051 -0.4213
  127OSM   H11B13533   1.138   3.752   6.349 -1.1137  0.8898  0.9575
  127OSM      P13534   0.793   3.767   6.434  0.0150  0.1743  0.1691
  127OSM    O1313535   0.730   3.895   6.405 -0.3422 -0.4214  0.4663
  127OSM    O1413536   0.757   3.654   6.347  0.2183  0.3408  0.5475
  127OSM    O1113537   0.768   3.737   6.590 -0.4333  0.9725 -0.0654
  127OSM    O1213538   0.955   3.779   6.436  0.0503 -0.9737 -0.4306
  127OSM    C1S13539   0.810   3.824   6.695 -0.2648 -0.4323 -0.4384
  127OSM    H1S13540   0.761   3.921   6.671 -0.5311 -1.1399 -3.0885
  127OSM    H1T13541   0.919   3.846   6.689 -0.3918  0.0658 -1.1210
  127OSM     NF13542   0.815   3.859   6.944 -0.7344  0.0171  0.0571
  127OSM    HNF13543   0.874   3.819   7.014 -0.0480 -0.9382 -1.0250
  127OSM    C2S13544   0.763   3.777   6.834 -0.4733  0.7819 -0.1932
  127OSM    H2S13545   0.652   3.778   6.834 -0.4802  1.0560  0.8883
  127OSM    C3S13546   0.795   3.627   6.864 -0.4534 -0.3972  0.5764
  127OSM    H3S13547   0.906   3.623   6.860 -0.4395  0.1865  0.2680
  127OSM     O313548   0.750   3.535   6.762  0.6262  0.0322 -0.1282
  127OSM    HO313549   0.717   3.596   6.695  0.3430 -1.2118 -1.1593
  127OSM    C4S13550   0.737   3.580   6.995  0.1769  0.6275  0.2832
  127OSM    H4S13551   0.789   3.621   7.082  2.9984 -0.6686 -0.6674
  127OSM    C5S13552   0.620   3.512   7.017  0.0148 -0.0492  0.5840
  127OSM    H5S13553   0.560   3.498   6.925  2.2873 -2.0411 -0.7220
  127OSM    C6S13554   0.546   3.466   7.135 -0.1994  0.3777 -0.7361
  127OSM    H6S13555   0.496   3.368   7.124 -1.9605  1.2947 -1.2689
  127OSM    H6T13556   0.461   3.535   7.157 -0.0678 -0.2829  2.2323
  127OSM    C7S13557   0.633   3.452   7.264  0.6345  0.1782  0.0273
  127OSM    H7S13558   0.672   3.542   7.315  2.8675 -2.5718  3.7473
  127OSM    H7T13559   0.717   3.381   7.245 -0.6127 -0.6760 -2.8733
  127OSM    C8S13560   0.555   3.372   7.372 -0.0869 -0.3508 -0.1065
  127OSM    H8S13561   0.554   3.266   7.339  1.3228 -0.6759  0.8097
  127OSM    H8T13562   0.452   3.412   7.371 -0.3484 -0.8330 -3.2371
  127OSM    C9S13563   0.611   3.393   7.512 -0.2875  0.0494  0.3025
  127OSM    H9S13564   0.616   3.500   7.540  1.6984 -0.2257  1.2277
  127OSM    H9T13565   0.712   3.348   7.528 -0.8063 -0.6787  1.8284
  127OSM   C10S13566   0.519   3.324   7.619 -0.1502 -0.1700 -0.1579
  127OSM   H10S13567   0.518   3.214   7.603 -4.3847 -0.1069 -1.5623
  127OSM   H10T13568   0.416   3.364   7.624  0.5518  1.6952  0.3708
  127OSM   C11S13569   0.585   3.336   7.759  0.0697 -0.0916 -1.0328
  127OSM   H11S13570   0.630   3.436   7.774 -2.6466  0.8300  2.2704
  127OSM   H11T13571   0.672   3.267   7.767 -0.0552 -0.0159  2.8001
  127OSM   C12S13572   0.486   3.312   7.871  1.5394  0.6240  0.3390
  127OSM   H12S13573   0.450   3.206   7.869  0.3357  0.9796  1.6022
  127OSM   H12T13574   0.387   3.360   7.857 -0.0259 -2.2355  0.7424
  127OSM   C13S13575   0.528   3.328   8.024  0.3094  0.1382  0.6011
  127OSM   H13S13576   0.540   3.436   8.045  1.7511 -0.1773  1.5840
  127OSM   H13T13577   0.632   3.289   8.028 -0.2766 -1.5862 -0.1266
  127OSM   C14S13578   0.441   3.263   8.132 -0.3462 -0.8634 -0.2811
  127OSM   H14S13579   0.444   3.153   8.116  0.6301 -0.8012 -0.5925
  127OSM   H14T13580   0.339   3.304   8.113  1.1303  3.1714 -0.3734
  127OSM   C15S13581   0.480   3.294   8.280  0.5793 -0.3946 -0.4868
  127OSM   H15S13582   0.444   3.397   8.303  0.0781 -0.1407 -2.2501
  127OSM   H15T13583   0.591   3.293   8.287  0.6185 -1.5739 -1.0679
  127OSM   C16S13584   0.429   3.178   8.375  0.0936  0.2537 -0.4185
  127OSM   H16S13585   0.481   3.084   8.347  2.1741  0.7064  1.5643
  127OSM   H16T13586   0.320   3.169   8.360  0.3085 -1.2319 -1.2935
  127OSM   C17S13587   0.467   3.194   8.523 -0.9278 -0.5544  0.1383
  127OSM   H17S13588   0.419   3.285   8.566  0.3454 -0.3066  1.0732
  127OSM   H17T13589   0.578   3.198   8.523 -0.8968  0.3536  2.2157
  127OSM   C18S13590   0.423   3.078   8.623 -0.0938 -0.4083 -0.4597
  127OSM   H18S13591   0.450   3.099   8.729 -2.2848  0.0134  0.0527
  127OSM   H18T13592   0.460   2.975   8.601 -1.7248 -1.0814 -0.2264
  127OSM   H18U13593   0.313   3.070   8.613 -0.5517  0.4515  2.6859
  127OSM    C1F13594   0.802   3.994   6.948  0.5707 -1.0096  0.7045
  127OSM     OF13595   0.723   4.048   6.874 -0.3802 -0.9111 -0.0725
  127OSM    C2F13596   0.886   4.074   7.043 -0.0379 -0.0575 -0.4560
  127OSM    H2F13597   0.938   4.140   6.971 -0.0853  2.0087  1.2912
  127OSM    H2G13598   0.955   4.003   7.094 -0.8450  0.7303  1.8410
  127OSM    C3F13599   0.816   4.152   7.147  0.5790 -0.5264 -0.0753
  127OSM    H3F13600   0.733   4.093   7.191  0.0812  0.2248  0.0028
  127OSM    H3G13601   0.769   4.242   7.103  0.3168 -1.0784 -0.9508
  127OSM    C4F13602   0.908   4.199   7.259  0.1304 -0.3736  0.1241
  127OSM    H4F13603   0.993   4.259   7.220  0.7285 -1.7482 -0.7661
  127OSM    H4G13604   0.960   4.116   7.311  1.0273  2.3110  3.9335
  127OSM    C5F13605   0.836   4.281   7.365  0.0148  0.4836 -0.0125
  127OSM    H5F13606   0.734   4.240   7.373 -0.1074  0.3790 -1.7232
  127OSM    H5G13607   0.815   4.385   7.332 -0.9008  0.2459 -0.1904
  127OSM    C6F13608   0.899   4.288   7.505 -0.7182 -0.2978 -0.4444
  127OSM    H6F13609   0.998   4.339   7.500 -0.7143 -0.2464  0.1322
  127OSM    H6G13610   0.918   4.183   7.537  2.5613 -0.3798 -2.2284
  127OSM    C7F13611   0.808   4.352   7.607 -0.1158  0.0485 -0.6786
  127OSM    H7F13612   0.706   4.309   7.601 -0.5409  0.8303  0.5040
  127OSM    H7G13613   0.806   4.461   7.586  2.2186  0.3073  0.0666
  127OSM    C8F13614   0.854   4.342   7.749 -0.2264 -0.3719 -0.4190
  127OSM    H8F13615   0.957   4.384   7.759 -0.6588  0.4001  1.0688
  127OSM    H8G13616   0.868   4.236   7.780  1.5914  0.4216  1.8133
  127OSM    C9F13617   0.758   4.414   7.839  0.4068 -0.2031  0.0626
  127OSM    H9F13618   0.677   4.469   7.788  0.7147 -0.4615 -0.7244
  127OSM   C10F13619   0.745   4.399   7.973  0.8549  0.6513 -0.4312
  127OSM   H10F13620   0.669   4.462   8.021 -1.1168 -1.4711 -0.6216
  127OSM   C11F13621   0.832   4.308   8.065 -0.7488  0.2548 -0.0219
  127OSM   H11F13622   0.936   4.296   8.027 -0.2304  1.6927  0.8743
  127OSM   H11G13623   0.794   4.205   8.080 -0.1900  0.0150 -0.2487
  127OSM   C12F13624   0.826   4.376   8.199  0.3890  0.3902 -0.4396
  127OSM   H12F13625   0.735   4.352   8.257  1.0328  2.2454  1.4561
  127OSM   H12G13626   0.825   4.487   8.205 -2.3655  0.3507  1.9572
  127OSM   C13F13627   0.950   4.326   8.282 -0.0185 -0.2049 -0.0229
  127OSM   H13F13628   1.037   4.335   8.213  0.1631  1.1620  0.3616
  127OSM   H13G13629   0.951   4.221   8.318  1.3736  0.0432  0.7094
  127OSM   C14F13630   0.972   4.414   8.402 -0.3014  0.1858 -0.8839
  127OSM   H14F13631   0.893   4.382   8.474  0.8398 -2.0085 -0.5304
  127OSM   H14G13632   0.946   4.520   8.377 -0.8771 -0.1960 -1.9745
  127OSM   C15F13633   1.109   4.414   8.469  0.5474  0.1904 -0.1689
  127OSM   H15F13634   1.176   4.449   8.387 -0.7157 -1.1884 -1.8809
  127OSM   H15G13635   1.139   4.311   8.496 -0.9449  0.1811  1.6322
  127OSM   C16F13636   1.123   4.506   8.590  0.1237 -0.4080 -0.0693
  127OSM   H16F13637   1.086   4.457   8.683 -1.7189  0.4183 -0.3258
  127OSM   H16G13638   1.072   4.604   8.576 -2.1285 -1.5507 -0.4016
  127OSM   C17F13639   1.264   4.566   8.616  0.9342  0.0465 -0.1996
  127OSM   H17F13640   1.308   4.619   8.528  3.1838 -0.6261  0.4514
  127OSM   H17G13641   1.327   4.480   8.646  0.7987  0.3700  1.0517
  127OSM   C18F13642   1.260   4.681   8.726 -0.2127  0.4929  1.0419
  127OSM   H18F13643   1.166   4.740   8.715 -0.8960 -0.6121  0.7029
  127OSM   H18G13644   1.352   4.741   8.713 -1.8578  2.7158 -1.3800
  127OSM   H18H13645   1.243   4.633   8.825  0.4058  0.3531  1.0806
  128OSM      N13646   6.333   6.728   6.270  0.1483 -0.2470  0.6808
  128OSM    C1513647   6.253   6.664   6.156  0.4810 -0.6418 -0.4959
  128OSM   H15A13648   6.166   6.611   6.191  0.3090 -0.2199 -0.2790
  128OSM   H15B13649   6.313   6.592   6.101  0.5181 -0.2585 -0.9621
  128OSM   H15C13650   6.206   6.737   6.092 -3.4639 -1.6242  0.9805
  128OSM    C1413651   6.239   6.815   6.352 -0.4223 -0.2197 -0.1792
  128OSM   H14A13652   6.196   6.892   6.290 -3.8707  0.4780  2.7047
  128OSM   H14B13653   6.306   6.853   6.428 -0.2654 -2.1386  0.6920
  128OSM   H14C13654   6.159   6.759   6.398 -0.8294  1.0265  0.7050
  128OSM    C1313655   6.385   6.615   6.347 -0.2139 -0.3899 -0.4323
  128OSM   H13A13656   6.306   6.550   6.379 -0.7846  0.2024 -0.6106
  128OSM   H13B13657   6.432   6.650   6.438  0.3601 -1.1528 -0.4222
  128OSM   H13C13658   6.457   6.553   6.295 -2.8877 -0.2043 -4.9061
  128OSM    C1213659   6.452   6.815   6.216  0.3179 -0.4421  0.0407
  128OSM   H12A13660   6.516   6.750   6.158  2.1311 -0.1012  1.5672
  128OSM   H12B13661   6.514   6.856   6.295  0.1330  2.2963 -1.1429
  128OSM    C1113662   6.430   6.940   6.120  0.4633 -0.2960 -0.0847
  128OSM   H11A13663   6.375   6.905   6.030 -0.6099  1.0014  0.0383
  128OSM   H11B13664   6.517   6.985   6.068  0.1993  0.6688  0.2862
  128OSM      P13665   6.444   7.170   6.255  0.0443 -0.3088 -0.0238
  128OSM    O1313666   6.570   7.132   6.313 -0.6121  0.4509 -0.4781
  128OSM    O1413667   6.457   7.277   6.159 -0.2848 -0.0694  0.6860
  128OSM    O1113668   6.349   7.217   6.365  0.0166 -0.1091  0.6880
  128OSM    O1213669   6.362   7.045   6.197 -0.6063  0.2274  0.3285
  128OSM    C1S13670   6.263   7.136   6.440 -0.2064 -0.3434  0.4125
  128OSM    H1S13671   6.309   7.042   6.478 -0.7325 -0.9128 -0.3249
  128OSM    H1T13672   6.171   7.105   6.386  0.5271 -2.3881  0.2596
  128OSM     NF13673   6.202   7.125   6.687 -0.5859  0.5281 -0.1174
  128OSM    HNF13674   6.110   7.139   6.721 -0.3359  1.9981 -0.0064
  128OSM    C2S13675   6.235   7.210   6.570 -0.5557 -0.0646 -0.0983
  128OSM    H2S13676   6.324   7.267   6.603 -1.7805  1.4911  0.6902
  128OSM    C3S13677   6.129   7.328   6.539 -0.4276 -0.1532 -0.2062
  128OSM    H3S13678   6.033   7.284   6.505  0.0741 -1.7201  0.2924
  128OSM     O313679   6.181   7.419   6.443 -0.0622 -0.0691  0.0324
  128OSM    HO313680   6.255   7.367   6.409  0.0953  0.5082 -0.5239
  128OSM    C4S13681   6.099   7.402   6.663 -1.2188 -0.0155  0.4744
  128OSM    H4S13682   6.177   7.472   6.697 -0.4624  0.3476 -1.8540
  128OSM    C5S13683   5.983   7.395   6.725  0.0811 -0.7674  0.2731
  128OSM    H5S13684   5.895   7.340   6.691 -1.1173 -0.1244  2.1814
  128OSM    C6S13685   5.957   7.480   6.845  0.2995 -0.3128 -0.3182
  128OSM    H6S13686   5.848   7.477   6.870  0.4271 -0.4750  0.2288
  128OSM    H6T13687   5.961   7.584   6.807 -3.2973  0.6851  1.4811
  128OSM    C7S13688   6.050   7.449   6.962 -0.4112  0.3007 -0.0174
  128OSM    H7S13689   5.992   7.490   7.047 -2.0851  1.8410 -1.7949
  128OSM    H7T13690   6.145   7.501   6.937  0.5699 -1.3332  0.2137
  128OSM    C8S13691   6.072   7.292   6.980 -0.5589  0.4163  0.7798
  128OSM    H8S13692   6.155   7.272   6.909 -1.5239  4.4093 -1.7716
  128OSM    H8T13693   5.985   7.234   6.942 -2.1062  0.4196  3.9788
  128OSM    C9S13694   6.083   7.242   7.124  0.7531  0.0937 -0.2238
  128OSM    H9S13695   6.152   7.306   7.183 -0.4494 -0.6401  2.1101
  128OSM    H9T13696   6.112   7.135   7.115 -0.7075 -0.3524  0.1097
  128OSM   C10S13697   5.954   7.238   7.203  1.0278  0.0510  0.8061
  128OSM   H10S13698   5.871   7.192   7.146  1.4143 -0.8486  0.9571
  128OSM   H10T13699   5.930   7.337   7.248  4.3229  0.3589  2.1801
  128OSM   C11S13700   5.958   7.155   7.331  0.3435 -0.0362  0.8920
  128OSM   H11S13701   6.007   7.060   7.302  0.6170  0.6792 -1.1254
  128OSM   H11T13702   5.849   7.153   7.354 -0.2187  1.5739 -1.3611
  128OSM   C12S13703   6.037   7.211   7.450  0.2376 -0.3147  0.3266
  128OSM   H12S13704   6.011   7.319   7.452  1.6707  0.1579 -2.1807
  128OSM   H12T13705   6.146   7.217   7.434  0.8579 -1.0344  3.5381
  128OSM   C13S13706   6.019   7.137   7.584  0.1284 -0.8667 -1.0162
  128OSM   H13S13707   6.057   7.033   7.567  0.1952 -0.7607 -1.5450
  128OSM   H13T13708   5.912   7.124   7.610  0.2309  1.0906  0.5739
  128OSM   C14S13709   6.082   7.214   7.692 -0.5425 -0.0659 -0.1111
  128OSM   H14S13710   6.050   7.321   7.686  0.6331  0.4079  1.2335
  128OSM   H14T13711   6.192   7.197   7.692 -0.6061 -0.5239  0.4898
  128OSM   C15S13712   6.031   7.170   7.833 -0.2072 -0.9165 -0.7789
  128OSM   H15S13713   6.044   7.061   7.850 -1.7131 -0.6906  2.7101
  128OSM   H15T13714   5.921   7.186   7.844  0.0146 -0.0654  0.4997
  128OSM   C16S13715   6.110   7.244   7.942 -0.2418  0.1904  0.0581
  128OSM   H16S13716   6.090   7.352   7.927  1.0164  0.4225 -0.1202
  128OSM   H16T13717   6.220   7.239   7.927 -0.4524 -0.2066 -1.4876
  128OSM   C17S13718   6.081   7.188   8.080  0.4799  0.1867  0.5811
  128OSM   H17S13719   5.973   7.203   8.102  0.4507  0.7198  0.0675
  128OSM   H17T13720   6.143   7.246   8.152  0.2081  0.0395  0.9355
  128OSM   C18S13721   6.133   7.046   8.111 -0.2506 -0.3320  0.8092
  128OSM   H18S13722   6.242   7.042   8.086 -0.6109  0.2372 -1.0111
  128OSM   H18T13723   6.083   6.963   8.057 -1.2870  1.9976 -2.0515
  128OSM   H18U13724   6.119   7.029   8.220 -0.3571 -0.1103  0.8298
  128OSM    C1F13725   6.281   7.023   6.744 -0.2615 -0.6503  0.2656
  128OSM     OF13726   6.394   7.003   6.700 -0.2537 -0.1359 -0.3775
  128OSM    C2F13727   6.230   6.954   6.858  0.8376 -0.3703  0.0875
  128OSM    H2F13728   6.120   6.960   6.845  0.7559 -1.1374  0.3972
  128OSM    H2G13729   6.254   6.995   6.958 -0.7562  3.2028 -0.8393
  128OSM    C3F13730   6.266   6.807   6.859  0.5063 -0.6535  0.0704
  128OSM    H3F13731   6.377   6.801   6.854  0.6792  2.0492 -0.8115
  128OSM    H3G13732   6.216   6.751   6.777 -0.9851 -1.1240  1.2704
  128OSM    C4F13733   6.218   6.724   6.978  0.5920 -0.3241 -0.7098
  128OSM    H4F13734   6.221   6.617   6.946 -0.4711 -1.2742  2.0585
  128OSM    H4G13735   6.111   6.746   6.998  0.3925  0.1943 -2.1901
  128OSM    C5F13736   6.303   6.749   7.103 -0.0733 -0.1051  0.3706
  128OSM    H5F13737   6.335   6.855   7.115  1.4610 -0.6343  1.1996
  128OSM    H5G13738   6.392   6.683   7.106 -0.7070 -0.9736  0.2804
  128OSM    C6F13739   6.226   6.715   7.236 -0.3228 -0.0713  0.6713
  128OSM    H6F13740   6.199   6.607   7.234  0.4517 -0.2618 -0.9643
  128OSM    H6G13741   6.127   6.765   7.229 -0.4524 -0.1773  1.6734
  128OSM    C7F13742   6.312   6.734   7.360 -0.4438 -0.2299 -0.9248
  128OSM    H7F13743   6.355   6.837   7.357 -0.3073 -0.2721 -0.4414
  128OSM    H7G13744   6.401   6.668   7.356  1.1100  1.7706 -1.0959
  128OSM    C8F13745   6.231   6.714   7.496  0.0571 -0.1243  0.0102
  128OSM    H8F13746   6.183   6.614   7.495  0.6964 -0.5097  2.0662
  128OSM    H8G13747   6.145   6.785   7.495 -1.7529 -2.2069 -1.9112
  128OSM    C9F13748   6.317   6.740   7.610 -0.2778 -0.0432  0.3070
  128OSM    H9F13749   6.423   6.752   7.584 -0.7823 -0.7531 -2.4349
  128OSM   C10F13750   6.277   6.760   7.737 -0.3158 -0.5008  0.0243
  128OSM   H10F13751   6.356   6.783   7.810 -0.9326 -0.8683  0.8160
  128OSM   C11F13752   6.138   6.768   7.785 -0.1845  0.4488  0.6949
  128OSM   H11F13753   6.072   6.723   7.708  3.1757 -1.4327 -1.3277
  128OSM   H11G13754   6.109   6.875   7.794  0.7270  0.8934 -1.1934
  128OSM   C12F13755   6.113   6.691   7.916  0.3209  0.3208 -0.0435
  128OSM   H12F13756   6.172   6.742   7.995  2.6898 -1.3916 -0.5818
  128OSM   H12G13757   6.146   6.587   7.892 -1.8009 -0.3249 -0.3340
  128OSM   C13F13758   5.969   6.682   7.976  0.4130 -0.7718 -0.7835
  128OSM   H13F13759   5.888   6.634   7.916 -1.3535 -0.6560  1.3612
  128OSM   H13G13760   5.947   6.788   8.001 -0.0531 -0.4125 -2.6020
  128OSM   C14F13761   5.964   6.601   8.104 -0.2031  0.0200 -0.0672
  128OSM   H14F13762   6.037   6.637   8.179 -0.2120 -2.9333  1.5058
  128OSM   H14G13763   5.996   6.496   8.091 -0.5797 -0.1594  0.4166
  128OSM   C15F13764   5.823   6.596   8.171 -0.1353 -0.0112  0.4103
  128OSM   H15F13765   5.752   6.550   8.099  2.4318 -1.0177 -1.6211
  128OSM   H15G13766   5.794   6.701   8.190  3.2920  0.7494  2.2721
  128OSM   C16F13767   5.828   6.519   8.302 -0.6214  0.3280  0.1273
  128OSM   H16F13768   5.892   6.573   8.375 -1.3327  0.5862  0.5699
  128OSM   H16G13769   5.887   6.428   8.281  2.5563  2.7838 -2.7321
  128OSM   C17F13770   5.688   6.492   8.360 -0.1222  0.4072 -0.6080
  128OSM   H17F13771   5.623   6.445   8.283  0.4012 -2.6322  0.6737
  128OSM   H17G13772   5.652   6.596   8.374  0.8424  0.9102 -1.6068
  128OSM   C18F13773   5.667   6.432   8.497  0.3049 -0.3582 -0.2225
  128OSM   H18F13774   5.558   6.424   8.517  0.6332  0.9103  2.7686
  128OSM   H18G13775   5.705   6.498   8.579 -2.0968  1.8821 -0.7719
  128OSM   H18H13776   5.711   6.331   8.505  2.0946  0.5161  2.3850
  129OSM      N13777   6.087   2.012   5.938  0.3352  0.4968  0.5203
  129OSM    C1513778   6.174   2.112   5.864  0.1397  0.4012 -0.1281
  129OSM   H15A13779   6.216   2.191   5.925 -3.5487  1.6000  1.1140
  129OSM   H15B13780   6.115   2.167   5.792  0.9588 -0.5962 -1.6235
  129OSM   H15C13781   6.245   2.056   5.805 -0.0860 -0.8354  0.7344
  129OSM    C1413782   6.022   1.929   5.831  0.2759 -0.1636 -0.2864
  129OSM   H14A13783   5.944   1.981   5.777  1.1952  1.9359  0.3130
  129OSM   H14B13784   5.961   1.856   5.882 -1.2168 -0.3276 -2.1867
  129OSM   H14C13785   6.087   1.864   5.774  0.0365 -1.2930  0.6834
  129OSM    C1313786   6.182   1.923   6.015 -0.9980 -0.4631 -0.1520
  129OSM   H13A13787   6.267   1.899   5.954  1.7315 -0.6960  3.4167
  129OSM   H13B13788   6.129   1.830   6.033  0.0438 -1.3844 -1.6727
  129OSM   H13C13789   6.207   1.970   6.109 -0.9232 -3.6822  1.6018
  129OSM    C1213790   5.988   2.078   6.031  0.1495 -0.0329 -1.0661
  129OSM   H12A13791   5.921   2.154   5.994  0.7085  1.0190  0.0173
  129OSM   H12B13792   6.046   2.141   6.097 -1.9845 -1.7087  2.7263
  129OSM    C1113793   5.892   1.990   6.115 -0.0584  0.2187  0.4065
  129OSM   H11A13794   5.848   2.049   6.198  1.6531 -0.5593  1.9111
  129OSM   H11B13795   5.955   1.913   6.164  0.0861  0.2304  0.2410
  129OSM      P13796   5.710   1.813   6.072  0.3023  0.0861 -0.1498
  129OSM    O1313797   5.567   1.840   6.038 -0.2291  0.0244 -0.5522
  129OSM    O1413798   5.769   1.692   6.017 -0.2471  0.5783 -0.0840
  129OSM    O1113799   5.731   1.805   6.228 -0.0259  0.4019 -0.2012
  129OSM    O1213800   5.786   1.945   6.026 -1.5237 -0.5914 -0.1940
  129OSM    C1S13801   5.630   1.854   6.314  0.3557  0.5047 -0.7509
  129OSM    H1S13802   5.526   1.827   6.286  0.3342 -3.3584  2.2393
  129OSM    H1T13803   5.623   1.965   6.318 -3.1687  0.4006 -1.0828
  129OSM     NF13804   5.560   1.850   6.551  0.5381 -0.1601 -0.1669
  129OSM    HNF13805   5.591   1.910   6.625 -1.4259 -1.0149  1.4374
  129OSM    C2S13806   5.654   1.792   6.456  0.0538 -0.2764  0.6830
  129OSM    H2S13807   5.642   1.682   6.465 -1.4350 -0.1465  0.6358
  129OSM    C3S13808   5.805   1.818   6.499  0.0231  0.6273  0.0872
  129OSM    H3S13809   5.824   1.926   6.482  0.5005  0.6794  0.8922
  129OSM     O313810   5.901   1.757   6.414 -0.0959 -0.0657  0.4319
  129OSM    HO313811   5.855   1.753   6.330  0.1113  1.5287  0.1970
  129OSM    C4S13812   5.826   1.787   6.658 -0.2870  0.2449  0.2162
  129OSM    H4S13813   5.827   1.880   6.716  1.7766  0.5484 -0.2423
  129OSM    C5S13814   5.873   1.671   6.715  0.0450 -0.8396  0.7095
  129OSM    H5S13815   5.906   1.600   6.639  3.1242 -0.8017  1.8582
  129OSM    C6S13816   5.899   1.634   6.857 -0.3051 -0.2063  0.6224
  129OSM    H6S13817   6.008   1.629   6.881 -0.7856  1.8665  3.7470
  129OSM    H6T13818   5.847   1.536   6.862 -2.5613  0.8242 -1.0656
  129OSM    C7S13819   5.839   1.733   6.963  0.5474 -0.0212 -0.2403
  129OSM    H7S13820   5.739   1.773   6.934  0.7602  0.4524 -0.3374
  129OSM    H7T13821   5.901   1.825   6.958  2.9106 -1.5987 -2.3191
  129OSM    C8S13822   5.846   1.681   7.108 -0.1510  0.2591  0.8221
  129OSM    H8S13823   5.765   1.605   7.111 -0.7075  0.6164 -1.8478
  129OSM    H8T13824   5.828   1.761   7.182 -1.5623 -0.5039  1.3318
  129OSM    C9S13825   5.994   1.629   7.144  0.4636 -0.9646  0.3238
  129OSM    H9S13826   6.060   1.692   7.080 -0.2507  0.5927  1.0689
  129OSM    H9T13827   6.011   1.523   7.113  1.1856 -0.3417 -1.5439
  129OSM   C10S13828   6.036   1.640   7.295 -0.4996 -0.1004 -0.5287
  129OSM   H10S13829   6.010   1.744   7.327 -1.0475 -0.3958  0.0059
  129OSM   H10T13830   6.144   1.624   7.317 -1.2075 -2.8514  1.4181
  129OSM   C11S13831   5.963   1.552   7.391  0.1117 -0.1160 -0.3921
  129OSM   H11S13832   5.964   1.443   7.372 -1.9735  0.0448 -1.6793
  129OSM   H11T13833   5.857   1.583   7.385  0.0502 -0.0111  0.8634
  129OSM   C12S13834   6.011   1.580   7.537  0.6196 -0.1490  0.5826
  129OSM   H12S13835   6.014   1.691   7.542 -0.4721  0.0031 -1.0125
  129OSM   H12T13836   6.107   1.525   7.550  0.8262  0.0664  0.0273
  129OSM   C13S13837   5.897   1.519   7.626 -0.3591  0.0421  0.7136
  129OSM   H13S13838   5.900   1.412   7.597 -0.0540  0.0112  0.8589
  129OSM   H13T13839   5.793   1.554   7.607 -0.0907  1.0369  1.0115
  129OSM   C14S13840   5.938   1.548   7.768 -0.4164  0.2530 -0.7492
  129OSM   H14S13841   5.958   1.657   7.770 -2.3986  0.6625  1.4391
  129OSM   H14T13842   6.036   1.499   7.789 -1.2336 -0.5761  1.4901
  129OSM   C15S13843   5.846   1.518   7.883 -0.1002 -0.6638 -0.7762
  129OSM   H15S13844   5.819   1.410   7.881 -1.1977 -0.3985 -2.9953
  129OSM   H15T13845   5.745   1.562   7.872  0.0339 -0.1926 -0.1666
  129OSM   C16S13846   5.899   1.571   8.012 -0.5840 -0.2721 -0.4703
  129OSM   H16S13847   5.828   1.548   8.095  0.0660 -0.0113  0.1751
  129OSM   H16T13848   5.902   1.681   7.995 -0.3213 -0.6319 -3.1079
  129OSM   C17S13849   6.038   1.514   8.051  0.5735 -0.3520 -0.4093
  129OSM   H17S13850   6.106   1.539   7.967  2.6598 -0.6989  1.1036
  129OSM   H17T13851   6.020   1.406   8.070  2.2079 -0.5050  0.3864
  129OSM   C18S13852   6.090   1.576   8.179 -0.1453  0.3241  0.2747
  129OSM   H18S13853   6.194   1.538   8.186  0.5308  1.8174 -0.9229
  129OSM   H18T13854   6.029   1.541   8.265  0.9346 -1.4175  0.3774
  129OSM   H18U13855   6.091   1.687   8.178 -1.3325  0.3882  1.9779
  129OSM    C1F13856   5.425   1.842   6.533  0.6513  0.1700  0.3308
  129OSM     OF13857   5.391   1.746   6.464  0.1805  0.3624 -0.1555
  129OSM    C2F13858   5.342   1.954   6.588  0.3840  0.3642 -0.2021
  129OSM    H2F13859   5.306   2.021   6.507 -2.3024  1.3080  1.5942
  129OSM    H2G13860   5.406   2.011   6.659 -0.1755 -0.4589  1.0020
  129OSM    C3F13861   5.211   1.899   6.655 -0.6196 -0.6802 -0.2448
  129OSM    H3F13862   5.242   1.831   6.737  1.2653  0.1051 -0.2452
  129OSM    H3G13863   5.150   1.855   6.573 -3.3304 -0.9974  1.7902
  129OSM    C4F13864   5.123   2.011   6.710 -0.4023 -0.2732 -0.3643
  129OSM    H4F13865   5.093   2.078   6.627  2.0403  0.6041 -0.6427
  129OSM    H4G13866   5.179   2.075   6.781 -0.0544  0.0862 -0.9490
  129OSM    C5F13867   4.995   1.959   6.787 -1.5963 -0.1265  1.0772
  129OSM    H5F13868   4.948   1.883   6.720 -1.9086  0.3951  0.6974
  129OSM    H5G13869   4.920   2.040   6.797 -0.3837  1.7336 -2.7252
  129OSM    C6F13870   5.036   1.889   6.916  0.1701  0.8030 -0.4199
  129OSM    H6F13871   5.134   1.928   6.949 -0.1680  3.7014 -2.4418
  129OSM    H6G13872   5.043   1.784   6.883 -0.5569  0.4165  0.6105
  129OSM    C7F13873   4.937   1.901   7.037 -0.5324  0.8493  0.0410
  129OSM    H7F13874   4.842   1.867   6.990 -0.2291 -1.3710  0.8892
  129OSM    H7G13875   4.942   2.010   7.057  1.4780  0.6865  0.6200
  129OSM    C8F13876   4.966   1.819   7.165  0.2005  0.0348  0.8968
  129OSM    H8F13877   5.062   1.841   7.217  0.2750 -1.0786  1.2533
  129OSM    H8G13878   4.970   1.711   7.142  0.3255  0.5075 -1.5306
  129OSM    C9F13879   4.862   1.855   7.267  0.3246  0.7001  0.5286
  129OSM    H9F13880   4.762   1.853   7.221  0.9943  1.4559 -1.0136
  129OSM   C10F13881   4.887   1.900   7.391  1.0912  0.2311 -0.2760
  129OSM   H10F13882   4.805   1.928   7.459  0.4812 -1.2768 -0.3530
  129OSM   C11F13883   5.018   1.916   7.460  0.4975 -0.2176 -0.5648
  129OSM   H11F13884   5.036   2.022   7.487 -1.1289  0.1716 -0.9062
  129OSM   H11G13885   5.108   1.903   7.397  0.7979  0.2246 -0.2310
  129OSM   C12F13886   5.052   1.818   7.574 -0.2208  0.4905  0.3141
  129OSM   H12F13887   5.157   1.835   7.603  0.4517 -0.8420 -1.1830
  129OSM   H12G13888   5.036   1.719   7.526  2.0879 -0.4109  1.2586
  129OSM   C13F13889   4.962   1.833   7.692  0.1458 -0.8949  0.6069
  129OSM   H13F13890   4.986   1.759   7.772 -1.8282 -1.4407  0.7583
  129OSM   H13G13891   4.865   1.792   7.656  0.5908  0.2798 -2.1750
  129OSM   C14F13892   4.949   1.969   7.749 -0.3840  0.3837 -0.2771
  129OSM   H14F13893   4.893   2.040   7.685  1.1397  3.4378  1.5771
  129OSM   H14G13894   5.047   2.018   7.767 -0.4747 -0.6971  4.3764
  129OSM   C15F13895   4.880   1.976   7.891  0.1993 -0.4315  0.0267
  129OSM   H15F13896   4.793   1.907   7.892  0.8206 -1.4229 -3.3121
  129OSM   H15G13897   4.843   2.080   7.909  0.0542 -0.6615  1.1262
  129OSM   C16F13898   4.971   1.932   8.006  0.1186 -0.1748 -0.6340
  129OSM   H16F13899   5.061   1.997   8.016  0.0246 -0.0358 -0.6798
  129OSM   H16G13900   5.018   1.834   7.987 -0.6963 -1.1228  1.8325
  129OSM   C17F13901   4.906   1.915   8.144 -0.5919 -0.8665  0.0233
  129OSM   H17F13902   4.990   1.883   8.208 -1.5688  0.2721  1.9640
  129OSM   H17G13903   4.832   1.832   8.138 -0.1894 -1.1717 -1.1522
  129OSM   C18F13904   4.842   2.036   8.208  0.4017  0.1101  0.3396
  129OSM   H18F13905   4.804   2.004   8.308  0.7915 -1.1501  0.0964
  129OSM   H18G13906   4.762   2.079   8.143  2.5297  1.0892 -1.7651
  129OSM   H18H13907   4.912   2.120   8.224  0.1656  0.2842  0.4693
  130OSM      N13908   5.334   5.778   6.021  0.5280 -0.1361 -0.2388
  130OSM    C1513909   5.344   5.926   6.002 -0.5504  0.4866 -0.1076
  130OSM   H15A13910   5.267   5.977   6.059  0.6112 -0.2721  2.2696
  130OSM   H15B13911   5.327   5.962   5.902 -0.4975  2.5199  0.5597
  130OSM   H15C13912   5.434   5.976   6.033  0.9733 -1.2511 -1.5265
  130OSM    C1413913   5.284   5.744   6.159  0.1559 -0.8752 -0.0139
  130OSM   H14A13914   5.352   5.787   6.231  0.3442 -1.7535  0.3488
  130OSM   H14B13915   5.279   5.636   6.163 -1.4215 -0.8480 -0.7304
  130OSM   H14C13916   5.187   5.787   6.173  0.8232 -0.0540  2.5780
  130OSM    C1313917   5.228   5.740   5.920  0.7933  0.2118  0.0127
  130OSM   H13A13918   5.269   5.752   5.821  1.8722  0.7202  0.5042
  130OSM   H13B13919   5.139   5.799   5.937  2.0682  2.0884  0.5136
  130OSM   H13C13920   5.206   5.635   5.933  0.7913  0.0363 -1.3043
  130OSM    C1213921   5.467   5.706   5.988  0.0369 -0.7331 -0.3048
  130OSM   H12A13922   5.546   5.737   6.054 -1.5101 -0.3113  1.4303
  130OSM   H12B13923   5.495   5.743   5.890  0.8161  2.2098  0.9007
  130OSM    C1113924   5.457   5.550   5.983  0.0151  0.0859 -0.7557
  130OSM   H11A13925   5.389   5.525   5.899 -0.4021  0.5859 -0.5728
  130OSM   H11B13926   5.412   5.502   6.073 -1.9116 -0.4259 -1.9429
  130OSM      P13927   5.703   5.455   6.048 -0.2207 -0.0626  0.2836
  130OSM    O1313928   5.684   5.324   6.119 -0.1981 -0.0312  0.1653
  130OSM    O1413929   5.824   5.463   5.964 -0.4019  0.0191 -0.0079
  130OSM    O1113930   5.711   5.566   6.154 -0.1097 -0.8951 -0.0647
  130OSM    O1213931   5.582   5.492   5.953  0.1090 -0.0675 -0.2500
  130OSM    C1S13932   5.662   5.553   6.289  0.7565 -1.0192 -0.6446
  130OSM    H1S13933   5.597   5.464   6.306 -0.7222  0.0459 -0.4980
  130OSM    H1T13934   5.587   5.630   6.317  2.3679  1.1412 -2.0037
  130OSM     NF13935   5.729   5.536   6.532 -0.7052  0.2639 -0.5225
  130OSM    HNF13936   5.717   5.620   6.583  2.8692  1.6890 -1.7455
  130OSM    C2S13937   5.775   5.566   6.395  0.1006 -0.3707  0.2351
  130OSM    H2S13938   5.842   5.482   6.371  0.1710 -1.2779  3.1398
  130OSM    C3S13939   5.863   5.696   6.377  0.2571 -0.1159 -0.7880
  130OSM    H3S13940   5.794   5.783   6.389 -1.5773 -1.2267 -2.5149
  130OSM     O313941   5.919   5.725   6.255  0.1197  0.3568  0.0010
  130OSM    HO313942   5.872   5.661   6.201 -2.4866  1.9894  0.1395
  130OSM    C4S13943   5.966   5.703   6.486  0.1782  0.1857  0.2376
  130OSM    H4S13944   5.949   5.793   6.548  1.0399 -0.3828  1.3495
  130OSM    C5S13945   6.088   5.646   6.481  0.0931 -0.2263  0.4518
  130OSM    H5S13946   6.097   5.582   6.392  0.7249 -1.4107  1.3452
  130OSM    C6S13947   6.210   5.647   6.565  0.5305  0.6295 -0.4938
  130OSM    H6S13948   6.302   5.652   6.503  1.1729 -2.7405  0.0223
  130OSM    H6T13949   6.218   5.553   6.623  2.8347  1.5285  0.7787
  130OSM    C7S13950   6.223   5.768   6.665  0.1195 -0.0495  0.8897
  130OSM    H7S13951   6.146   5.743   6.741 -0.1423 -3.4115 -0.2740
  130OSM    H7T13952   6.208   5.860   6.605  0.6724 -0.4729  0.0777
  130OSM    C8S13953   6.363   5.771   6.721  0.2388  0.2261  0.1617
  130OSM    H8S13954   6.443   5.762   6.645  0.4644  1.1502  0.2785
  130OSM    H8T13955   6.383   5.689   6.794 -0.4372  1.5571  1.9183
  130OSM    C9S13956   6.396   5.905   6.788  0.1929  0.0931  0.3803
  130OSM    H9S13957   6.399   5.978   6.704  0.8659 -1.3280 -0.8682
  130OSM    H9T13958   6.501   5.897   6.823 -0.5317 -1.5141  2.3952
  130OSM   C10S13959   6.297   5.941   6.896 -0.4401  1.0179  0.0659
  130OSM   H10S13960   6.193   5.956   6.860 -0.2112  0.7646 -0.7162
  130OSM   H10T13961   6.334   6.043   6.919  0.4449  1.0578 -1.4005
  130OSM   C11S13962   6.293   5.861   7.021  0.1426 -1.2490 -0.4116
  130OSM   H11S13963   6.389   5.811   7.044  0.3001 -0.3351  1.0822
  130OSM   H11T13964   6.213   5.784   7.024 -0.1233 -0.9541  0.3990
  130OSM   C12S13965   6.253   5.954   7.145 -0.1543 -0.1526  0.3171
  130OSM   H12S13966   6.159   6.006   7.115  1.4085  0.8651 -3.3669
  130OSM   H12T13967   6.329   6.032   7.168 -1.3200  1.0474  0.2295
  130OSM   C13S13968   6.229   5.875   7.276  0.4007  0.0444 -0.5547
  130OSM   H13S13969   6.308   5.797   7.268  0.1186 -0.1314 -1.8623
  130OSM   H13T13970   6.138   5.811   7.267  1.1906 -1.2218  0.1523
  130OSM   C14S13971   6.223   5.960   7.404 -0.2423 -0.2176  0.3327
  130OSM   H14S13972   6.130   6.020   7.393 -0.2871 -0.1583  0.9772
  130OSM   H14T13973   6.302   6.037   7.411 -0.9028  0.5118 -0.0558
  130OSM   C15S13974   6.219   5.877   7.537  0.4367 -0.2491 -0.5117
  130OSM   H15S13975   6.316   5.825   7.548  0.6875  0.2658 -0.2254
  130OSM   H15T13976   6.142   5.797   7.529 -1.1343  1.1634 -0.3026
  130OSM   C16S13977   6.187   5.962   7.666 -0.1883 -0.8900  0.1059
  130OSM   H16S13978   6.084   5.999   7.646  0.0364  0.4020  1.1248
  130OSM   H16T13979   6.249   6.054   7.674 -0.3154 -0.7977  0.0449
  130OSM   C17S13980   6.206   5.878   7.802  0.4910  0.0484  0.1409
  130OSM   H17S13981   6.235   5.955   7.876 -0.8975 -0.5614  1.3885
  130OSM   H17T13982   6.291   5.808   7.789  0.6624  0.2360  0.2569
  130OSM   C18S13983   6.092   5.799   7.861  0.2280  0.2795 -0.1920
  130OSM   H18S13984   6.055   5.718   7.794 -1.2254 -0.0966  0.9988
  130OSM   H18T13985   6.006   5.867   7.879  0.1818 -0.1351  1.2702
  130OSM   H18U13986   6.114   5.754   7.960  0.8040 -0.7593 -0.7751
  130OSM    C1F13987   5.682   5.422   6.575 -0.2730 -0.7907  0.1881
  130OSM     OF13988   5.701   5.321   6.513  0.3707  0.0743  0.7893
  130OSM    C2F13989   5.611   5.430   6.705 -0.2221 -0.1433 -0.0088
  130OSM    H2F13990   5.516   5.486   6.694  0.5854  0.9410 -2.0490
  130OSM    H2G13991   5.676   5.493   6.771  1.3118 -2.2701  0.6222
  130OSM    C3F13992   5.597   5.283   6.764  0.7199  0.0827 -0.2937
  130OSM    H3F13993   5.687   5.226   6.794  0.2666 -0.9790 -0.8887
  130OSM    H3G13994   5.533   5.211   6.709 -0.6309  0.5911  0.5522
  130OSM    C4F13995   5.509   5.289   6.896 -0.6340  0.2674  0.9857
  130OSM    H4F13996   5.524   5.198   6.958 -2.0679  0.3957  1.5510
  130OSM    H4G13997   5.401   5.283   6.874  0.0166 -2.0319 -2.4883
  130OSM    C5F13998   5.555   5.403   6.986  1.1383 -0.1817 -0.3921
  130OSM    H5F13999   5.567   5.501   6.935  0.6297 -0.3341 -0.8114
  130OSM    H5G14000   5.647   5.380   7.044 -0.7896 -2.2138  2.0961
  130OSM    C6F14001   5.444   5.429   7.099  0.3929 -0.6380  0.1734
  130OSM    H6F14002   5.395   5.333   7.126 -1.6438 -0.1950 -1.6385
  130OSM    H6G14003   5.366   5.484   7.043 -0.7101 -1.7353  0.5864
  130OSM    C7F14004   5.463   5.502   7.229 -0.4574 -0.6086 -0.4657
  130OSM    H7F14005   5.363   5.550   7.242 -0.8932 -1.7675  0.6063
  130OSM    H7G14006   5.533   5.588   7.217  2.6326 -2.9786 -0.6182
  130OSM    C8F14007   5.494   5.421   7.353  0.3994 -0.5495  0.3306
  130OSM    H8F14008   5.593   5.372   7.341 -0.3161 -1.8802 -0.3926
  130OSM    H8G14009   5.421   5.339   7.346  0.0345 -0.1981 -0.0619
  130OSM    C9F14010   5.474   5.496   7.479 -0.3312 -0.2744 -0.3084
  130OSM    H9F14011   5.557   5.564   7.502  0.0087 -1.4366  2.2659
  130OSM   C10F14012   5.384   5.481   7.583  0.0489  0.1732 -0.6033
  130OSM   H10F14013   5.381   5.548   7.670 -2.0611  0.4847 -0.8548
  130OSM   C11F14014   5.285   5.372   7.591  0.4070  0.6350  0.4752
  130OSM   H11F14015   5.303   5.303   7.506 -0.2526  1.2916 -0.2212
  130OSM   H11G14016   5.183   5.414   7.573  0.6700  0.9186 -0.3893
  130OSM   C12F14017   5.276   5.284   7.719  0.1191 -0.4899  0.3619
  130OSM   H12F14018   5.208   5.200   7.692 -0.3830 -0.4388  1.4104
  130OSM   H12G14019   5.229   5.338   7.804  0.3394  0.2394  0.0333
  130OSM   C13F14020   5.411   5.217   7.759  0.0514 -0.0073 -0.3443
  130OSM   H13F14021   5.458   5.182   7.665  0.1855  0.2220 -0.3639
  130OSM   H13G14022   5.374   5.124   7.808 -0.6599  0.0424 -0.7688
  130OSM   C14F14023   5.504   5.288   7.860 -0.6770 -0.4304  0.6769
  130OSM   H14F14024   5.451   5.327   7.949 -0.1510  2.8841 -0.3374
  130OSM   H14G14025   5.538   5.381   7.810 -1.1770 -0.9466 -0.6835
  130OSM   C15F14026   5.627   5.202   7.907 -0.6308 -0.1282  0.0346
  130OSM   H15F14027   5.678   5.256   7.990 -0.5905 -0.8615  0.5006
  130OSM   H15G14028   5.711   5.194   7.835 -0.9427  1.0663 -0.4755
  130OSM   C16F14029   5.593   5.066   7.962 -0.0424 -0.0404 -0.1263
  130OSM   H16F14030   5.546   4.997   7.889 -1.3205 -0.6446  1.2026
  130OSM   H16G14031   5.510   5.084   8.034 -0.0012 -2.2806  0.5626
  130OSM   C17F14032   5.717   4.995   8.022  0.2958 -0.6708 -0.2281
  130OSM   H17F14033   5.681   4.970   8.124 -0.1952  0.2756 -0.1593
  130OSM   H17G14034   5.790   5.074   8.051 -0.4621  0.5938 -1.6399
  130OSM   C18F14035   5.781   4.880   7.953  0.2864  1.0663  0.4839
  130OSM   H18F14036   5.806   4.800   8.026 -0.6787  2.9320  3.0081
  130OSM   H18G14037   5.870   4.904   7.890  1.0493  0.8263  1.4571
  130OSM   H18H14038   5.709   4.821   7.891  0.3467  1.7252 -0.2362
  131OSM      N14039   4.189   5.001   6.089  0.0073  0.0533  0.3766
  131OSM    C1514040   4.065   5.003   6.020  0.1985  0.4103  0.4786
  131OSM   H15A14041   3.990   4.984   6.096  0.1001 -1.6519 -0.0589
  131OSM   H15B14042   4.055   4.917   5.954  0.6602  0.6305  0.1166
  131OSM   H15C14043   4.042   5.098   5.975 -0.1625 -0.6312 -1.7103
  131OSM    C1414044   4.300   5.003   5.985 -0.0711 -0.2571 -0.2219
  131OSM   H14A14045   4.292   5.093   5.927 -0.3890 -1.0760 -1.4949
  131OSM   H14B14046   4.304   4.914   5.924  0.2019  0.2181 -0.8995
  131OSM   H14C14047   4.399   5.003   6.026  0.5342 -0.6284 -1.6239
  131OSM    C1314048   4.193   5.132   6.163 -0.7489  0.7648 -0.6083
  131OSM   H13A14049   4.112   5.136   6.235  1.2835 -0.0395  1.8723
  131OSM   H13B14050   4.177   5.211   6.091  0.3781  0.4534 -1.2067
  131OSM   H13C14051   4.282   5.138   6.224 -0.9763  4.3437 -0.4239
  131OSM    C1214052   4.202   4.876   6.173 -0.0449 -0.4477 -0.2253
  131OSM   H12A14053   4.301   4.875   6.216 -0.0744 -1.4538 -0.1670
  131OSM   H12B14054   4.186   4.789   6.110  0.6541 -0.3489 -0.5423
  131OSM    C1114055   4.109   4.871   6.296 -0.4423 -0.6068  0.5072
  131OSM   H11A14056   4.103   4.973   6.339 -3.7250 -0.7182  0.5740
  131OSM   H11B14057   4.151   4.808   6.377 -0.2100  0.6860  1.4355
  131OSM      P14058   3.900   4.714   6.270  0.1030 -0.3043 -0.2863
  131OSM    O1314059   3.753   4.740   6.269  0.2849  0.5173 -0.0945
  131OSM    O1414060   3.944   4.616   6.168  0.2024 -0.1259 -0.2142
  131OSM    O1114061   3.930   4.655   6.416  0.4399 -0.4724  0.0072
  131OSM    O1214062   3.978   4.852   6.256  0.3315  0.1723  1.1621
  131OSM    C1S14063   3.906   4.739   6.532 -0.0043 -0.2496  0.2262
  131OSM    H1S14064   3.799   4.751   6.560 -0.9682 -1.4346 -2.5939
  131OSM    H1T14065   3.935   4.846   6.522 -1.9103  0.3326  0.5633
  131OSM     NF14066   3.924   4.754   6.781  0.0234  0.2135 -0.9454
  131OSM    HNF14067   3.974   4.828   6.826  0.3770 -0.7318  0.2975
  131OSM    C2S14068   3.980   4.685   6.661 -0.0200  0.2808  0.1489
  131OSM    H2S14069   3.963   4.575   6.665 -1.6002  0.3496 -2.3650
  131OSM    C3S14070   4.135   4.693   6.659 -0.0286 -0.6547 -0.1965
  131OSM    H3S14071   4.159   4.801   6.671 -3.7892  0.3045  0.1359
  131OSM     O314072   4.197   4.640   6.543  0.4843  0.6944 -0.3463
  131OSM    HO314073   4.123   4.611   6.490  0.4510 -0.0775  0.1189
  131OSM    C4S14074   4.198   4.626   6.776  1.1346 -0.1224  0.3785
  131OSM    H4S14075   4.225   4.520   6.758 -0.3736 -0.3172 -1.0033
  131OSM    C5S14076   4.244   4.686   6.890  0.0373 -0.4063 -0.4328
  131OSM    H5S14077   4.226   4.793   6.902  1.0893 -0.3696  1.0331
  131OSM    C6S14078   4.307   4.611   7.001 -0.4452  0.0405 -0.0310
  131OSM    H6S14079   4.400   4.659   7.039 -0.2953  0.9834 -1.5291
  131OSM    H6T14080   4.336   4.509   6.967  1.5775  0.6224 -0.1791
  131OSM    C7S14081   4.208   4.605   7.114 -0.4373 -0.1626  0.4811
  131OSM    H7S14082   4.114   4.548   7.095 -1.2775  0.9413  1.1839
  131OSM    H7T14083   4.192   4.707   7.156  0.1027 -0.1926  0.7696
  131OSM    C8S14084   4.272   4.537   7.237  0.6296 -0.7223 -0.2559
  131OSM    H8S14085   4.370   4.576   7.271  0.9082 -0.4014 -1.3838
  131OSM    H8T14086   4.299   4.433   7.206  0.6960 -0.4431 -1.1497
  131OSM    C9S14087   4.180   4.531   7.359 -0.2047  0.1058  0.7315
  131OSM    H9S14088   4.208   4.445   7.423 -0.5281 -0.4693  0.1137
  131OSM    H9T14089   4.073   4.524   7.330  0.2508 -0.3725 -0.9681
  131OSM   C10S14090   4.193   4.654   7.443  0.3302 -0.2124 -1.0014
  131OSM   H10S14091   4.166   4.746   7.386  0.1489  0.4044  0.0591
  131OSM   H10T14092   4.298   4.676   7.469  0.2294  0.0168 -0.7776
  131OSM   C11S14093   4.101   4.629   7.565  0.5332  0.1271  1.2870
  131OSM   H11S14094   4.134   4.535   7.613 -2.0134 -1.3059  0.4180
  131OSM   H11T14095   3.999   4.607   7.529  0.1541 -1.2192  3.0680
  131OSM   C12S14096   4.108   4.740   7.663 -0.2292  0.3929 -0.2903
  131OSM   H12S14097   4.098   4.836   7.609 -1.1545  0.9828  0.8667
  131OSM   H12T14098   4.210   4.743   7.707  0.2259  0.7592 -1.3332
  131OSM   C13S14099   3.998   4.740   7.770  0.7728  0.5066  0.3356
  131OSM   H13S14100   3.903   4.744   7.712  0.2248 -1.8213  0.9775
  131OSM   H13T14101   4.010   4.837   7.824 -0.9462  0.9396  0.0128
  131OSM   C14S14102   4.005   4.624   7.868  0.0547 -0.3600 -0.5093
  131OSM   H14S14103   4.103   4.623   7.920 -0.6032 -0.9578  0.7854
  131OSM   H14T14104   3.989   4.541   7.796 -1.7426  1.0001 -1.7625
  131OSM   C15S14105   3.905   4.630   7.983  0.5405 -0.1999  0.6554
  131OSM   H15S14106   3.885   4.541   8.046  1.0662 -0.2765  0.7191
  131OSM   H15T14107   3.810   4.654   7.931  0.2514 -2.2966  0.0929
  131OSM   C16S14108   3.926   4.751   8.082  0.8753 -0.7979  0.6113
  131OSM   H16S14109   3.928   4.843   8.019  0.3017 -2.6293 -2.2354
  131OSM   H16T14110   4.029   4.747   8.121  1.1214  1.1297  0.2849
  131OSM   C17S14111   3.821   4.760   8.197 -0.1530 -0.1671  0.2839
  131OSM   H17S14112   3.843   4.673   8.262 -0.7490 -1.2594 -0.9149
  131OSM   H17T14113   3.720   4.752   8.152 -0.0734 -0.3012  0.1278
  131OSM   C18S14114   3.831   4.884   8.288 -0.5979 -0.2262 -0.3238
  131OSM   H18S14115   3.925   4.888   8.347 -1.9173 -1.6634  1.9922
  131OSM   H18T14116   3.743   4.893   8.355  1.1939  2.0706  1.8615
  131OSM   H18U14117   3.820   4.978   8.230 -0.5850  0.9419  1.5209
  131OSM    C1F14118   3.801   4.730   6.840 -0.4370  0.5234  0.0596
  131OSM     OF14119   3.711   4.673   6.779 -0.0535 -0.2684 -0.3663
  131OSM    C2F14120   3.777   4.779   6.981 -0.2650  0.5450  0.8173
  131OSM    H2F14121   3.776   4.889   6.971  2.2198  0.6025  0.7045
  131OSM    H2G14122   3.867   4.751   7.040  0.4756  0.8307 -0.1592
  131OSM    C3F14123   3.637   4.743   7.043 -0.2872  0.0112 -0.1166
  131OSM    H3F14124   3.637   4.640   7.083 -2.4388  0.0803  0.1338
  131OSM    H3G14125   3.561   4.736   6.963 -0.2743  1.7174 -0.3296
  131OSM    C4F14126   3.595   4.853   7.148  0.2850 -0.2446  1.2307
  131OSM    H4F14127   3.484   4.851   7.159  0.2238 -0.4525  0.6117
  131OSM    H4G14128   3.627   4.953   7.113 -0.2512  0.5810  2.9334
  131OSM    C5F14129   3.665   4.850   7.281 -0.2425  0.9829 -0.4194
  131OSM    H5F14130   3.753   4.918   7.287  1.6318 -1.3965  1.3869
  131OSM    H5G14131   3.705   4.750   7.310  0.0106  1.3131  0.4231
  131OSM    C6F14132   3.580   4.910   7.396 -0.2213 -0.6524 -0.8397
  131OSM    H6F14133   3.490   4.844   7.400 -0.2074 -0.6092  0.9244
  131OSM    H6G14134   3.555   5.018   7.388  0.7715 -0.0023  2.9948
  131OSM    C7F14135   3.662   4.898   7.528 -0.6173 -0.0048 -0.2121
  131OSM    H7F14136   3.747   4.969   7.527 -0.1435 -0.5275  0.9515
  131OSM    H7G14137   3.693   4.792   7.535  1.2805  0.5786  0.8456
  131OSM    C8F14138   3.573   4.929   7.650 -0.5211 -0.0711 -0.7340
  131OSM    H8F14139   3.488   4.862   7.624  1.1798 -1.1133 -4.1929
  131OSM    H8G14140   3.534   5.033   7.645  1.5784  0.7737 -0.5172
  131OSM    C9F14141   3.635   4.893   7.785 -0.2073  0.0647  0.3737
  131OSM    H9F14142   3.734   4.850   7.767 -0.6600 -0.3042 -1.4077
  131OSM   C10F14143   3.566   4.904   7.903 -0.1229  0.5657 -0.3050
  131OSM   H10F14144   3.608   4.870   7.999 -1.0913  0.0352 -0.0621
  131OSM   C11F14145   3.430   4.960   7.910 -0.0407 -0.4122 -0.9365
  131OSM   H11F14146   3.348   4.892   7.878 -1.3840  0.6365  0.1756
  131OSM   H11G14147   3.414   5.042   7.837  0.2342  0.0356 -0.4999
  131OSM   C12F14148   3.405   4.999   8.061  0.0604  0.4072  0.4650
  131OSM   H12F14149   3.402   4.911   8.129  0.1151  1.0399  1.2991
  131OSM   H12G14150   3.300   5.032   8.052  0.1650  0.8982  1.0330
  131OSM   C13F14151   3.473   5.121   8.106  0.1943  0.1516 -0.0002
  131OSM   H13F14152   3.491   5.196   8.026  3.9156  0.7860  1.2177
  131OSM   H13G14153   3.574   5.085   8.135  0.0083  1.3364  2.3641
  131OSM   C14F14154   3.410   5.170   8.237 -0.1952 -0.0117  0.2224
  131OSM   H14F14155   3.486   5.232   8.289 -0.8054  1.5176 -0.6348
  131OSM   H14G14156   3.380   5.093   8.312 -1.2286 -1.5692 -1.7114
  131OSM   C15F14157   3.285   5.264   8.211  0.7624  0.3214  0.4622
  131OSM   H15F14158   3.196   5.211   8.171 -0.5228  2.9313 -0.3800
  131OSM   H15G14159   3.312   5.339   8.134 -1.1830  1.1294  0.4931
  131OSM   C16F14160   3.239   5.315   8.340  0.8842 -0.5001 -0.1504
  131OSM   H16F14161   3.315   5.361   8.407  0.6639  1.0646 -0.9150
  131OSM   H16G14162   3.197   5.227   8.392  1.6294 -0.7907 -0.0273
  131OSM   C17F14163   3.138   5.432   8.331  0.5808 -0.3060 -0.4245
  131OSM   H17F14164   3.046   5.394   8.281 -1.0459  0.8278  1.5566
  131OSM   H17G14165   3.169   5.519   8.270 -0.5087 -0.2424 -0.9147
  131OSM   C18F14166   3.100   5.479   8.472  0.0981 -0.2471 -0.0093
  131OSM   H18F14167   2.996   5.519   8.480  0.2268  0.4114 -1.3983
  131OSM   H18G14168   3.175   5.554   8.505 -0.4746  0.3955 -0.1534
  131OSM   H18H14169   3.095   5.390   8.538 -1.3095 -0.6742 -0.6550
  132OSM      N14170   1.205   2.182   6.145 -0.6168 -0.2760  0.4028
  132OSM    C1514171   1.188   2.072   6.235 -0.0395 -0.1464 -0.5255
  132OSM   H15A14172   1.283   2.056   6.284 -0.6856 -0.6104  0.5932
  132OSM   H15B14173   1.152   1.983   6.187 -2.2308  0.6762 -0.5370
  132OSM   H15C14174   1.117   2.093   6.314  1.9278 -0.1763  1.3319
  132OSM    C1414175   1.297   2.128   6.040 -0.3858  0.7660  0.7797
  132OSM   H14A14176   1.390   2.101   6.087  0.0436  2.6226  1.0923
  132OSM   H14B14177   1.315   2.205   5.966 -2.5272 -0.2994 -0.9422
  132OSM   H14C14178   1.257   2.040   5.993  1.2010  1.2551 -1.7047
  132OSM    C1314179   1.071   2.219   6.078  0.3686 -0.0286  0.3949
  132OSM   H13A14180   1.029   2.142   6.016  1.6482 -0.4143 -0.0116
  132OSM   H13B14181   1.080   2.314   6.027 -1.2534  0.9570  1.8314
  132OSM   H13C14182   0.995   2.235   6.153  0.1799 -0.7877  0.3740
  132OSM    C1214183   1.264   2.303   6.221 -0.1161 -0.6098  0.6363
  132OSM   H12A14184   1.365   2.279   6.250  0.2903 -0.4877 -0.6405
  132OSM   H12B14185   1.214   2.321   6.315  2.1886  0.3577  1.7653
  132OSM    C1114186   1.267   2.442   6.155  0.4397  0.0545 -0.5186
  132OSM   H11A14187   1.315   2.419   6.058 -1.0602 -3.0931 -0.6397
  132OSM   H11B14188   1.337   2.510   6.208  0.7410 -1.0944  0.6092
  132OSM      P14189   1.047   2.540   6.259 -0.2776 -0.4345  0.1653
  132OSM    O1314190   1.019   2.686   6.250  0.3747 -0.4931  0.4816
  132OSM    O1414191   0.941   2.439   6.265  0.4477  0.1124 -0.3551
  132OSM    O1114192   1.145   2.522   6.382  0.1345  0.1546 -0.1906
  132OSM    O1214193   1.135   2.498   6.133 -0.2224  0.2200 -0.8098
  132OSM    C1S14194   1.095   2.515   6.521  0.3652  0.1134  0.9743
  132OSM    H1S14195   1.048   2.415   6.531 -2.9023  1.3576 -0.3938
  132OSM    H1T14196   1.006   2.583   6.520  0.2673  0.1127 -2.7626
  132OSM     NF14197   1.165   2.503   6.756 -0.0340  0.2890  0.6303
  132OSM    HNF14198   1.141   2.555   6.837 -2.5028 -1.2713  1.0123
  132OSM    C2S14199   1.197   2.565   6.628  0.0458  0.0796  0.4742
  132OSM    H2S14200   1.289   2.522   6.584  0.0501  0.6529 -0.0947
  132OSM    C3S14201   1.214   2.715   6.627 -0.0713  0.0024  0.1346
  132OSM    H3S14202   1.121   2.761   6.669 -0.0116  0.3427 -0.1027
  132OSM     O314203   1.231   2.779   6.502  0.5761 -0.3435  0.3191
  132OSM    HO314204   1.224   2.712   6.434 -0.3696  0.6095 -0.5383
  132OSM    C4S14205   1.330   2.766   6.722 -0.3776  0.5311  0.5575
  132OSM    H4S14206   1.425   2.724   6.686 -1.1734  1.0751 -2.4771
  132OSM    C5S14207   1.326   2.857   6.823 -0.2522 -0.1169 -0.1904
  132OSM    H5S14208   1.227   2.896   6.850 -1.9511 -2.2542 -2.7723
  132OSM    C6S14209   1.454   2.897   6.902 -0.1517 -0.0052 -0.0514
  132OSM    H6S14210   1.477   3.001   6.872  0.5209 -0.9637 -3.1230
  132OSM    H6T14211   1.541   2.838   6.865  1.9610  1.5728  2.0559
  132OSM    C7S14212   1.436   2.878   7.058  0.6952  0.2174  0.2705
  132OSM    H7S14213   1.453   2.770   7.075  1.3507  0.4569  1.1906
  132OSM    H7T14214   1.335   2.911   7.090  1.3521  1.4169  1.1828
  132OSM    C8S14215   1.540   2.953   7.146 -0.0305  0.3217 -0.1118
  132OSM    H8S14216   1.549   3.063   7.133  0.9668  0.2600 -0.0060
  132OSM    H8T14217   1.637   2.916   7.109 -0.0807  0.5784 -0.5009
  132OSM    C9S14218   1.511   2.913   7.294 -0.8106 -0.4026 -0.3593
  132OSM    H9S14219   1.480   2.807   7.301  1.8771 -1.1964  0.6652
  132OSM    H9T14220   1.419   2.965   7.329 -2.7070 -3.1664 -0.8483
  132OSM   C10S14221   1.614   2.953   7.395 -0.3834 -0.0481  0.2595
  132OSM   H10S14222   1.615   3.063   7.408  1.7276  0.2014 -1.5141
  132OSM   H10T14223   1.717   2.927   7.361 -0.6862 -1.9647  0.6671
  132OSM   C11S14224   1.598   2.903   7.543 -0.0603  0.1482 -0.0738
  132OSM   H11S14225   1.580   2.795   7.557 -1.2851  0.1409 -1.4709
  132OSM   H11T14226   1.507   2.952   7.586 -0.9799 -2.0255  0.6233
  132OSM   C12S14227   1.723   2.936   7.629 -0.4267 -0.0106 -0.1605
  132OSM   H12S14228   1.755   3.043   7.626  1.6979 -0.6044 -0.9813
  132OSM   H12T14229   1.816   2.888   7.592  0.2499 -0.2530  1.7523
  132OSM   C13S14230   1.714   2.887   7.776 -0.1877 -0.2659  0.7132
  132OSM   H13S14231   1.626   2.943   7.815  0.2018  0.0038  1.2155
  132OSM   H13T14232   1.795   2.932   7.836 -1.0276  1.4417  0.6263
  132OSM   C14S14233   1.700   2.739   7.794  0.4714  0.5660 -0.0049
  132OSM   H14S14234   1.790   2.690   7.751 -0.7616 -0.8285 -1.1107
  132OSM   H14T14235   1.613   2.693   7.743 -0.0315 -0.2717  1.5558
  132OSM   C15S14236   1.701   2.708   7.947  0.0770  0.3555  0.5828
  132OSM   H15S14237   1.792   2.747   7.998  0.9139 -1.4821  0.5786
  132OSM   H15T14238   1.707   2.598   7.955 -0.4109  0.3967  1.7429
  132OSM   C16S14239   1.572   2.754   8.017  0.5187  0.1585 -1.0266
  132OSM   H16S14240   1.490   2.708   7.958  0.1315 -1.9441  1.0163
  132OSM   H16T14241   1.557   2.863   8.009 -1.2780  0.0585  0.3483
  132OSM   C17S14242   1.558   2.740   8.175  0.4850 -0.1846  0.2188
  132OSM   H17S14243   1.458   2.781   8.203  0.0544  0.3454 -1.9148
  132OSM   H17T14244   1.643   2.795   8.220 -0.4740  0.6646  1.0793
  132OSM   C18S14245   1.571   2.593   8.213  0.1864  0.8402  0.6468
  132OSM   H18S14246   1.551   2.583   8.322 -1.2210  0.1542  0.3551
  132OSM   H18T14247   1.669   2.551   8.183  0.2822  0.4689  1.4683
  132OSM   H18U14248   1.496   2.537   8.152 -1.6402  0.8134  2.7831
  132OSM    C1F14249   1.192   2.377   6.783 -0.0924  0.1034  0.3279
  132OSM     OF14250   1.251   2.301   6.700  0.3288  0.2077  0.4279
  132OSM    C2F14251   1.136   2.325   6.909  0.3237 -0.0769  0.5398
  132OSM    H2F14252   1.058   2.255   6.873 -0.3579 -0.9627  3.5038
  132OSM    H2G14253   1.084   2.403   6.968  0.1415  0.4441 -0.2821
  132OSM    C3F14254   1.242   2.241   6.980 -0.0689 -0.3322 -0.4946
  132OSM    H3F14255   1.345   2.281   6.974 -0.5154  1.1417  0.6642
  132OSM    H3G14256   1.235   2.137   6.942 -0.5710 -1.4170  2.2999
  132OSM    C4F14257   1.218   2.219   7.135  0.5141  0.6796 -0.1243
  132OSM    H4F14258   1.145   2.135   7.140  0.7001  0.5404  0.3453
  132OSM    H4G14259   1.175   2.316   7.166 -1.6133  0.5041 -2.2755
  132OSM    C5F14260   1.339   2.182   7.227 -0.8261  0.7755 -0.2894
  132OSM    H5F14261   1.421   2.257   7.235  1.1311 -1.3376  0.1864
  132OSM    H5G14262   1.384   2.089   7.187 -1.4959  0.9332 -1.4704
  132OSM    C6F14263   1.305   2.149   7.377 -0.0679  0.7345 -0.8512
  132OSM    H6F14264   1.275   2.042   7.382 -0.0318  0.6458 -2.2278
  132OSM    H6G14265   1.220   2.208   7.419 -0.1638 -0.3162  0.5163
  132OSM    C7F14266   1.413   2.178   7.484  0.3076  0.3886 -0.0576
  132OSM    H7F14267   1.427   2.286   7.504 -1.6170  0.6693 -0.0230
  132OSM    H7G14268   1.512   2.144   7.447  0.4306  0.8010 -0.1051
  132OSM    C8F14269   1.378   2.110   7.616 -0.2915  0.3467 -1.0366
  132OSM    H8F14270   1.364   2.001   7.604  0.2110  0.3170 -1.3729
  132OSM    H8G14271   1.285   2.162   7.649  0.0784  0.4850 -0.1864
  132OSM    C9F14272   1.480   2.141   7.726 -0.0004 -0.3500 -0.2618
  132OSM    H9F14273   1.578   2.151   7.676  0.0887  1.3804  0.2037
  132OSM   C10F14274   1.469   2.172   7.865 -0.3613 -0.1217 -0.2175
  132OSM   H10F14275   1.561   2.202   7.917 -1.6623 -1.0253  2.7744
  132OSM   C11F14276   1.337   2.172   7.944  0.3674  0.3682 -1.0568
  132OSM   H11F14277   1.257   2.164   7.867  0.3921 -1.1244 -0.9622
  132OSM   H11G14278   1.324   2.274   7.986 -0.4512  1.0587 -2.8701
  132OSM   C12F14279   1.315   2.051   8.040 -0.2683 -0.6118 -0.1005
  132OSM   H12F14280   1.327   1.961   7.975 -0.9453 -1.0202  0.3246
  132OSM   H12G14281   1.211   2.054   8.080 -1.3707  2.7723 -2.7311
  132OSM   C13F14282   1.414   2.046   8.150 -1.3734  0.9577 -0.1409
  132OSM   H13F14283   1.396   2.133   8.217  2.2744  1.2978  0.6322
  132OSM   H13G14284   1.514   2.062   8.104 -1.9390 -2.0983 -2.8220
  132OSM   C14F14285   1.409   1.912   8.233  0.0488 -0.3470 -0.4682
  132OSM   H14F14286   1.355   1.932   8.328  0.0704 -1.0805 -0.2953
  132OSM   H14G14287   1.513   1.892   8.268  0.0329 -1.5498 -1.0500
  132OSM   C15F14288   1.365   1.777   8.171  0.1538 -0.3874 -0.8578
  132OSM   H15F14289   1.434   1.765   8.085 -1.0885  0.9588 -2.1002
  132OSM   H15G14290   1.262   1.793   8.131 -0.8340 -1.2863  1.1847
  132OSM   C16F14291   1.374   1.650   8.263 -1.2606  0.4043  0.3730
  132OSM   H16F14292   1.289   1.655   8.334 -0.6784  0.3485  1.0890
  132OSM   H16G14293   1.475   1.646   8.309 -0.6592 -2.0432 -0.9233
  132OSM   C17F14294   1.365   1.520   8.170 -0.6482  0.1378 -0.5725
  132OSM   H17F14295   1.424   1.525   8.076 -0.2313 -0.2173 -0.3379
  132OSM   H17G14296   1.258   1.512   8.143 -1.4097  0.0692  2.2099
  132OSM   C18F14297   1.396   1.397   8.263 -0.4899  0.8273  0.7848
  132OSM   H18F14298   1.418   1.300   8.213  1.6893  1.4695  0.3638
  132OSM   H18G14299   1.318   1.385   8.340 -0.0638  0.0873  1.1073
  132OSM   H18H14300   1.476   1.413   8.339 -0.6646 -0.5934  1.2992
  133SAPE     N14301   2.489   1.684  10.753 -0.1127 -0.1085  0.2807
  133SAPE   HN114302   2.391   1.718  10.763  0.1724  0.5610  0.8369
  133SAPE   HN214303   2.519   1.760  10.689 -2.1331 -0.4183 -1.1269
  133SAPE   HN314304   2.491   1.591  10.706  0.4865 -0.7878  1.6015
  133SAPE   C1214305   2.579   1.673  10.871 -0.0483 -0.2561  0.6914
  133SAPE  H12A14306   2.540   1.591  10.934  3.3962 -1.8793  0.9619
  133SAPE  H12B14307   2.586   1.769  10.926 -0.0237  0.6327 -0.8069
  133SAPE   C1114308   2.723   1.630  10.825  0.3959  0.2172 -0.4698
  133SAPE  H11A14309   2.717   1.530  10.776 -0.8804  0.9321 -1.8608
  133SAPE  H11B14310   2.774   1.608  10.922 -2.8144 -0.3619  1.2343
  133SAPE     P14311   2.939   1.720  10.708 -0.0307 -0.4478 -0.1440
  133SAPE   O1314312   3.006   1.844  10.756 -0.4564 -0.4544 -0.1386
  133SAPE   O1414313   2.998   1.593  10.762 -0.1608  0.4406  0.5228
  133SAPE   O1214314   2.789   1.724  10.741 -0.3350  0.0069 -0.2269
  133SAPE   O1114315   2.937   1.719  10.554  0.1106 -0.0409  0.0442
  133SAPE    C114316   2.956   1.596  10.486  0.1930 -0.2728  0.1414
  133SAPE    HA14317   3.064   1.571  10.483  0.4185  0.6598 -2.5887
  133SAPE    HB14318   2.895   1.513  10.528  1.4472 -2.1130 -1.5181
  133SAPE    C214319   2.905   1.604  10.337 -0.3488  0.2655  0.2929
  133SAPE    HS14320   2.945   1.518  10.279  0.6535  1.2270 -0.4959
  133SAPE   O2114321   2.950   1.727  10.281  0.0097  0.2199 -0.3996
  133SAPE   C2114322   3.083   1.740  10.261  0.5279 -0.4844  0.7037
  133SAPE   O2214323   3.168   1.660  10.282 -0.4535  0.9028 -0.0122
  133SAPE   C2214324   3.110   1.879  10.208  0.2868 -0.0648 -0.1319
  133SAPE   H2R14325   3.042   1.960  10.242  0.4665  0.2698 -0.5558
  133SAPE   H2S14326   3.206   1.910  10.254  0.0132 -1.1163  1.2011
  133SAPE    C314327   2.750   1.609  10.331 -0.8578 -0.2292 -0.0995
  133SAPE    HX14328   2.717   1.698  10.389  2.5729  0.2378  1.4150
  133SAPE    HY14329   2.702   1.521  10.381 -3.6621  1.1815 -0.1224
  133SAPE   O3114330   2.703   1.618  10.196  0.2003  0.2475  0.2687
  133SAPE   C3114331   2.688   1.498  10.133 -0.0753 -0.6834  0.1029
  133SAPE   O3214332   2.725   1.388  10.174 -0.2548  0.2276 -1.0493
  133SAPE   C3214333   2.623   1.518   9.996  0.1550 -0.5402  0.1850
  133SAPE   H2X14334   2.634   1.619   9.949  0.6311 -1.4796 -1.8566
  133SAPE   H2Y14335   2.514   1.511  10.014 -0.1468 -0.7157 -1.5592
  133SAPE   C2314336   3.111   1.885  10.058  0.4803 -1.1586  0.6155
  133SAPE   H3R14337   3.202   1.835  10.018  1.7976  2.7243 -1.7868
  133SAPE   H3S14338   3.137   1.989  10.028 -0.3730 -1.4466 -1.2064
  133SAPE   C2414339   2.981   1.839   9.991  1.1736 -0.7048  0.2296
  133SAPE   H4R14340   2.889   1.851  10.052 -0.3092 -0.4194 -1.9425
  133SAPE   H4S14341   2.976   1.728   9.982 -0.1458 -0.6002 -0.6193
  133SAPE   C2514342   2.978   1.906   9.852 -0.8004 -0.3474 -0.1487
  133SAPE   H5R14343   2.949   2.012   9.854  1.1948  0.3502 -2.7596
  133SAPE   C2614344   3.022   1.853   9.735 -0.2711  0.0629  0.2075
  133SAPE   H6R14345   3.013   1.920   9.648 -0.8165 -0.9406 -0.5304
  133SAPE   C2714346   3.072   1.710   9.711 -0.4170 -0.0995 -0.0086
  133SAPE   H7R14347   3.013   1.642   9.777 -0.7883  1.7272  1.6267
  133SAPE   H7S14348   3.176   1.698   9.748 -0.7158 -0.8282  0.6430
  133SAPE   C2814349   3.058   1.651   9.578  0.1645 -0.1607 -0.4879
  133SAPE   H8R14350   2.953   1.635   9.547  0.2657 -1.7984 -0.0280
  133SAPE   C2914351   3.154   1.606   9.493 -0.1984 -0.0548 -0.0500
  133SAPE   H9R14352   3.120   1.571   9.394  2.5693 -2.1237 -0.3889
  133SAPE  C21014353   3.301   1.609   9.504  0.2233  0.6598  0.5796
  133SAPE  H10R14354   3.328   1.597   9.612 -4.1139  0.7686  1.8598
  133SAPE  H10S14355   3.343   1.701   9.458  0.8752  1.7243  3.1244
  133SAPE  C21114356   3.359   1.493   9.435 -0.9962  0.5161  0.0330
  133SAPE  H11R14357   3.321   1.395   9.470 -2.6067  0.3995 -1.8644
  133SAPE  C21214358   3.477   1.502   9.361 -0.3081  0.5352  0.9705
  133SAPE  H12R14359   3.504   1.403   9.322 -1.2139  0.4837  0.4524
  133SAPE  C21314360   3.563   1.611   9.306  0.3671  0.3916 -0.4717
  133SAPE  H13R14361   3.671   1.587   9.316  0.8204  1.3344 -2.5337
  133SAPE  H13S14362   3.550   1.703   9.367 -3.3044 -0.1643 -0.1731
  133SAPE  C21414363   3.555   1.663   9.169  0.1972  0.0723  0.1710
  133SAPE  H14R14364   3.561   1.772   9.157  1.0667 -0.1172 -1.4793
  133SAPE  C21514365   3.533   1.588   9.055  0.3755 -0.0400 -0.5940
  133SAPE  H15R14366   3.523   1.652   8.966  2.6851  2.2908  0.6574
  133SAPE  C21614367   3.521   1.440   9.034 -0.2823 -0.3636 -0.1453
  133SAPE  H16R14368   3.414   1.410   9.040  0.3559 -2.9071 -0.2334
  133SAPE  H16S14369   3.591   1.404   9.113  0.6969  3.0584  0.7177
  133SAPE  C21714370   3.579   1.394   8.898  0.6513 -0.2103 -0.1180
  133SAPE  H17R14371   3.570   1.285   8.883 -2.0739 -0.0993  0.0360
  133SAPE  H17S14372   3.686   1.422   8.886  0.8071 -1.8240 -3.8106
  133SAPE  C21814373   3.498   1.464   8.786  0.5171  0.5673  1.1982
  133SAPE  H18R14374   3.549   1.561   8.765  2.5494 -0.2714  2.0203
  133SAPE  H18S14375   3.395   1.478   8.825  0.7187 -0.6749  2.2356
  133SAPE  C21914376   3.490   1.371   8.665  0.2200 -0.4635  0.2224
  133SAPE  H19R14377   3.418   1.287   8.679 -0.5957  0.4068  1.4554
  133SAPE  H19S14378   3.585   1.316   8.651 -0.1654 -0.8392 -1.1696
  133SAPE  C22014379   3.453   1.449   8.537 -0.2667  0.4837  0.1739
  133SAPE  H20R14380   3.352   1.492   8.553 -1.1584 -1.7587  0.8301
  133SAPE  H20S14381   3.455   1.367   8.463  0.2760  0.3885  0.2917
  133SAPE  H20T14382   3.523   1.531   8.507 -2.6678  1.8324 -2.1404
  133SAPE   C3314383   2.656   1.405   9.887 -0.3223  0.1281  0.5618
  133SAPE   H3X14384   2.625   1.305   9.924  2.0258 -0.9022 -0.0614
  133SAPE   H3Y14385   2.766   1.416   9.884 -0.1671 -1.4106 -1.3358
  133SAPE   C3414386   2.599   1.433   9.748  0.5046  0.5679 -0.0352
  133SAPE   H4X14387   2.491   1.449   9.768  0.4618  0.3466 -0.0884
  133SAPE   H4Y14388   2.619   1.343   9.686  0.2367  0.9847 -0.7437
  133SAPE   C3514389   2.668   1.553   9.676 -0.1089  0.2840 -0.4535
  133SAPE   H5X14390   2.777   1.539   9.658  0.2794 -0.8151  2.2703
  133SAPE   H5Y14391   2.656   1.649   9.730  1.1535  0.4710 -0.4718
  133SAPE   C3614392   2.604   1.585   9.541 -0.2603  0.0629 -0.1563
  133SAPE   H6X14393   2.493   1.594   9.543 -0.1356  2.6379 -0.6997
  133SAPE   H6Y14394   2.638   1.504   9.474  1.6951  1.7439 -1.3340
  133SAPE   C3714395   2.635   1.725   9.491 -0.0099  0.2346 -0.2944
  133SAPE   H7X14396   2.740   1.726   9.528 -0.4079 -4.0345  1.4601
  133SAPE   H7Y14397   2.576   1.802   9.546  1.4084  0.7873  0.5085
  133SAPE   C3814398   2.622   1.738   9.335 -0.0654  0.1278 -0.6013
  133SAPE   H8X14399   2.515   1.763   9.320 -0.3272 -0.5807  0.0170
  133SAPE   H8Y14400   2.656   1.639   9.296  0.7610  0.6583 -1.2539
  133SAPE   C3914401   2.694   1.859   9.282 -0.2047 -0.4477 -0.5514
  133SAPE   H9X14402   2.801   1.848   9.311 -0.7040  0.9392  2.1380
  133SAPE   H9Y14403   2.666   1.954   9.332  1.3650 -0.7353  0.9626
  133SAPE  C31014404   2.683   1.883   9.131 -0.0896 -0.3891  0.6877
  133SAPE  H10X14405   2.733   1.795   9.083 -0.0833 -0.6864  1.2292
  133SAPE  H10Y14406   2.747   1.968   9.099 -0.3546 -0.2269  0.5892
  133SAPE  C31114407   2.536   1.896   9.082 -0.2931  0.2554  0.2613
  133SAPE  H11X14408   2.494   1.992   9.120  1.0449  1.6240 -1.5520
  133SAPE  H11Y14409   2.476   1.816   9.132  2.1371 -0.7539  1.7398
  133SAPE  C31214410   2.526   1.909   8.927 -0.0901 -1.0284 -0.5904
  133SAPE  H12X14411   2.432   1.863   8.891  0.4011 -3.0750  0.5950
  133SAPE  H12Y14412   2.603   1.850   8.874  1.5733 -0.7534  1.4188
  133SAPE  C31314413   2.529   2.062   8.878 -0.8417 -0.2782 -0.4750
  133SAPE  H13X14414   2.531   2.066   8.767  1.0370  1.6772 -0.4468
  133SAPE  H13Y14415   2.611   2.113   8.934 -1.8087 -0.3806  1.0920
  133SAPE  C31414416   2.407   2.152   8.913 -0.3736  0.7312 -0.0047
  133SAPE  H14X14417   2.389   2.163   9.022 -0.2430 -0.0633  0.1064
  133SAPE  H14Y14418   2.316   2.104   8.872 -1.2221  0.7149  1.8144
  133SAPE  C31514419   2.404   2.289   8.846  0.6807  0.5833 -0.3536
  133SAPE  H15X14420   2.496   2.330   8.892  0.5427 -0.5179  0.9937
  133SAPE  H15Y14421   2.317   2.351   8.878 -0.7647 -1.3079 -0.4173
  133SAPE  C31614422   2.409   2.275   8.696 -0.5961  0.3168 -0.3771
  133SAPE  H16X14423   2.349   2.187   8.663 -1.8827  1.9616 -2.6890
  133SAPE  H16Y14424   2.513   2.253   8.666 -0.3419  1.3017 -0.2551
  133SAPE  C31714425   2.361   2.399   8.621  0.2299 -0.6506 -0.3446
  133SAPE  H17X14426   2.376   2.404   8.511  1.8030 -0.9069 -0.1535
  133SAPE  H17Y14427   2.412   2.489   8.662 -0.4356 -0.5220  0.2205
  133SAPE  C31814428   2.205   2.428   8.634  0.7262  0.0539 -0.4529
  133SAPE  H18X14429   2.162   2.330   8.602 -1.5829  0.9583 -0.2922
  133SAPE  H18Y14430   2.181   2.523   8.581  0.6874  0.9402  1.0994
  133SAPE  H18Z14431   2.180   2.441   8.741  4.2554  3.8380  0.1396
  134SAPE     N14432   4.902   0.380  10.899 -0.4408  0.0659  0.0251
  134SAPE   HN114433   4.969   0.447  10.941 -0.8483  0.0468  0.7287
  134SAPE   HN214434   4.813   0.430  10.921 -1.0633 -0.7172 -0.6333
  134SAPE   HN314435   4.904   0.293  10.956  0.1649  0.9626  1.4158
  134SAPE   C1214436   4.922   0.374  10.753 -0.1964 -0.4114  0.0332
  134SAPE  H12A14437   4.857   0.448  10.702 -0.5342 -0.0248  1.0121
  134SAPE  H12B14438   4.885   0.276  10.715  0.3485 -1.0337  1.0731
  134SAPE   C1114439   5.063   0.406  10.715 -0.5973  0.0277  0.5848
  134SAPE  H11A14440   5.093   0.393  10.609  0.7512 -1.8356  1.1441
  134SAPE  H11B14441   5.118   0.326  10.769  0.2549  0.2559  0.0716
  134SAPE     P14442   5.091   0.667  10.703  0.7002 -0.3191  0.1632
  134SAPE   O1314443   4.951   0.711  10.712 -0.7090  0.2609 -0.1469
  134SAPE   O1414444   5.201   0.756  10.752 -0.7568 -0.5169  0.2268
  134SAPE   O1214445   5.100   0.530  10.774 -0.2921  0.7157 -0.3506
  134SAPE   O1114446   5.114   0.629  10.549  0.7225  0.3525 -0.8647
  134SAPE    C114447   5.243   0.599  10.496  0.0996 -0.2919 -0.3118
  134SAPE    HA14448   5.281   0.693  10.449  2.3852 -1.0354 -0.0720
  134SAPE    HB14449   5.314   0.570  10.576 -0.5374 -0.9949  0.0201
  134SAPE    C214450   5.244   0.486  10.388  0.2842 -0.7578  0.0293
  134SAPE    HS14451   5.254   0.383  10.428  0.0244 -0.7911  0.0083
  134SAPE   O2114452   5.344   0.528  10.292  0.0883 -0.3136  0.0561
  134SAPE   C2114453   5.408   0.435  10.228 -0.1115  0.4421  0.2406
  134SAPE   O2214454   5.384   0.314  10.249 -0.6063  0.8902  0.0076
  134SAPE   C2214455   5.503   0.493  10.123 -0.6146 -0.7772  0.8306
  134SAPE   H2R14456   5.454   0.577  10.069  2.0489  1.7343  2.0276
  134SAPE   H2S14457   5.595   0.534  10.168 -0.5342 -2.3757  2.2114
  134SAPE    C314458   5.112   0.501  10.306 -0.0000  0.2670  0.1644
  134SAPE    HX14459   5.123   0.602  10.259  2.2281  0.5594  1.1904
  134SAPE    HY14460   5.031   0.495  10.381 -2.4223 -1.4655 -2.3832
  134SAPE   O3114461   5.108   0.404  10.207  0.4567 -0.5572  0.0735
  134SAPE   C3114462   5.052   0.287  10.228  0.2131  0.0014 -0.5301
  134SAPE   O3214463   4.990   0.259  10.331 -0.6851  0.3442 -0.1119
  134SAPE   C3214464   5.081   0.193  10.107 -0.3853  0.7086 -0.8946
  134SAPE   H2X14465   5.189   0.167  10.115 -0.2951  1.0430 -1.0013
  134SAPE   H2Y14466   5.067   0.267  10.025 -0.8296  1.0849 -0.4857
  134SAPE   C2314467   5.548   0.396  10.008  0.6374 -0.0680 -0.7587
  134SAPE   H3R14468   5.613   0.317  10.048  0.6881 -0.7111 -2.0521
  134SAPE   H3S14469   5.597   0.442   9.919 -0.2830  2.3977 -0.0828
  134SAPE   C2414470   5.424   0.327   9.944 -0.5593 -0.2066  0.3131
  134SAPE   H4R14471   5.388   0.248  10.014  0.5749  0.5061  1.7575
  134SAPE   H4S14472   5.467   0.257   9.868  1.2351 -0.1008  1.1672
  134SAPE   C2514473   5.323   0.411   9.876 -0.0271 -0.0330 -0.3080
  134SAPE   H5R14474   5.274   0.487   9.938 -2.2956 -0.5667 -1.3553
  134SAPE   C2614475   5.291   0.413   9.747  0.7170  0.4373  0.1762
  134SAPE   H6R14476   5.233   0.496   9.704 -0.2410 -0.0472  0.5247
  134SAPE   C2714477   5.353   0.329   9.629  0.2344 -0.2879 -0.3307
  134SAPE   H7R14478   5.278   0.296   9.554  0.3990  0.6503 -0.9271
  134SAPE   H7S14479   5.404   0.238   9.667 -0.8756 -0.4212  0.9171
  134SAPE   C2814480   5.461   0.414   9.574  0.1223  0.4018  0.6558
  134SAPE   H8R14481   5.531   0.449   9.651 -1.2000  0.2474  1.9651
  134SAPE   C2914482   5.485   0.442   9.443 -0.0730  0.1955 -0.2796
  134SAPE   H9R14483   5.577   0.498   9.420 -1.1420  1.5730 -1.4009
  134SAPE  C21014484   5.408   0.398   9.318 -0.4777  0.1549 -0.4414
  134SAPE  H10R14485   5.377   0.492   9.266  3.0072  0.8174 -1.5600
  134SAPE  H10S14486   5.322   0.331   9.338  0.2902 -1.5851 -2.5712
  134SAPE  C21114487   5.500   0.317   9.230 -0.1998 -0.2819 -0.3071
  134SAPE  H11R14488   5.569   0.246   9.278 -1.0189 -1.3385 -0.6585
  134SAPE  C21214489   5.494   0.324   9.093  0.1001 -0.2911 -0.0509
  134SAPE  H12R14490   5.562   0.264   9.031 -0.3618  0.0620 -0.9007
  134SAPE  C21314491   5.406   0.407   8.999  0.3011 -0.4946 -0.5129
  134SAPE  H13R14492   5.342   0.470   9.065  0.9694 -1.2214  0.8702
  134SAPE  H13S14493   5.338   0.341   8.941 -1.1042  1.0478 -0.6892
  134SAPE  C21414494   5.470   0.494   8.896 -0.0263 -0.2371 -0.0244
  134SAPE  H14R14495   5.445   0.467   8.792  0.5323  2.3219 -0.8887
  134SAPE  C21514496   5.552   0.598   8.917 -0.1241 -0.0068  0.3303
  134SAPE  H15R14497   5.590   0.660   8.835  3.8870 -0.4517  1.6189
  134SAPE  C21614498   5.596   0.632   9.054  0.2333 -0.3406  0.2991
  134SAPE  H16R14499   5.703   0.620   9.084  1.0756  0.3847 -2.2102
  134SAPE  H16S14500   5.521   0.603   9.131 -3.0297  2.3572 -1.5739
  134SAPE  C21714501   5.595   0.787   9.061 -0.1967 -0.0371  0.2758
  134SAPE  H17R14502   5.519   0.830   8.993 -0.3358 -2.2607 -1.0634
  134SAPE  H17S14503   5.692   0.816   9.014 -0.7476 -0.0190 -0.8801
  134SAPE  C21814504   5.582   0.840   9.208 -0.5642 -0.2884 -0.2662
  134SAPE  H18R14505   5.482   0.825   9.254  0.1610  0.8625  1.7921
  134SAPE  H18S14506   5.605   0.949   9.210 -3.1798  0.3314 -0.7036
  134SAPE  C21914507   5.687   0.777   9.303  0.7717 -0.2194 -0.2874
  134SAPE  H19R14508   5.786   0.778   9.252  0.7024  0.4293 -0.4146
  134SAPE  H19S14509   5.667   0.670   9.326 -2.9950  0.1890 -1.0050
  134SAPE  C22014510   5.691   0.853   9.432 -0.2399  0.2389 -1.1857
  134SAPE  H20R14511   5.733   0.954   9.416 -1.5777  0.9886 -0.1808
  134SAPE  H20S14512   5.764   0.806   9.500  1.5947  0.5855 -2.8375
  134SAPE  H20T14513   5.585   0.858   9.466 -0.4820 -0.2019 -1.8624
  134SAPE   C3314514   4.985   0.078  10.091 -0.2404  0.0132  0.3056
  134SAPE   H3X14515   4.878   0.107  10.090 -1.1622 -3.0525 -1.0777
  134SAPE   H3Y14516   4.993   0.007  10.176  2.6090  0.0126  0.1582
  134SAPE   C3414517   5.010  -0.002   9.961  0.1607 -0.5881  0.9694
  134SAPE   H4X14518   4.946  -0.093   9.966 -1.6393  0.4756 -0.9269
  134SAPE   H4Y14519   5.117  -0.027   9.950  0.4506  0.8444  0.3719
  134SAPE   C3514520   4.994   0.077   9.827 -0.0473 -0.7859  0.2472
  134SAPE   H5X14521   5.045   0.174   9.847 -1.3829 -0.0199  0.0690
  134SAPE   H5Y14522   4.885   0.095   9.819 -0.3985 -2.7504  0.2585
  134SAPE   C3614523   5.053   0.022   9.692 -0.4227 -0.7920  0.1611
  134SAPE   H6X14524   5.011  -0.080   9.677  0.7525 -1.0388 -1.7966
  134SAPE   H6Y14525   5.164   0.020   9.695 -0.1770  2.0370 -2.7442
  134SAPE   C3714526   4.997   0.097   9.565 -0.0523 -0.7466 -1.0831
  134SAPE   H7X14527   5.009   0.206   9.578  0.7319 -1.0137  0.7870
  134SAPE   H7Y14528   4.887   0.082   9.573 -0.4540  2.6338  2.0161
  134SAPE   C3814529   5.057   0.059   9.433 -0.1875 -0.1639  0.7319
  134SAPE   H8X14530   5.050  -0.052   9.426 -0.1614 -0.1426  0.3492
  134SAPE   H8Y14531   5.166   0.082   9.428 -0.5507  1.4837 -0.3942
  134SAPE   C3914532   4.982   0.138   9.323  0.4849  0.2737 -0.3145
  134SAPE   H9X14533   4.991   0.249   9.330 -1.6323  0.4434  0.5796
  134SAPE   H9Y14534   4.879   0.109   9.352  0.9939 -0.2531  1.0186
  134SAPE  C31014535   5.004   0.084   9.187  0.4808 -0.1711  0.0230
  134SAPE  H10X14536   4.937   0.134   9.114 -2.9090 -0.6951  2.5601
  134SAPE  H10Y14537   4.981  -0.025   9.190  1.5785 -0.6114 -3.1564
  134SAPE  C31114538   5.147   0.095   9.140 -0.8705  0.3043 -0.1056
  134SAPE  H11X14539   5.209   0.034   9.209 -0.8931 -2.1238 -2.0747
  134SAPE  H11Y14540   5.186   0.197   9.157 -0.0294  0.0784 -0.6469
  134SAPE  C31214541   5.168   0.062   8.994  0.5988  0.5590  0.8064
  134SAPE  H12X14542   5.147  -0.046   8.973  1.6098  0.6332 -0.7428
  134SAPE  H12Y14543   5.277   0.071   8.976  0.4507  3.9239  0.9876
  134SAPE  C31314544   5.113   0.151   8.883 -0.2977 -0.4888 -0.2173
  134SAPE  H13X14545   5.129   0.256   8.918 -2.0161 -1.2238  3.2698
  134SAPE  H13Y14546   5.004   0.143   8.864 -0.3606 -0.6334  0.1861
  134SAPE  C31414547   5.195   0.142   8.747  0.4834  1.1611  0.2750
  134SAPE  H14X14548   5.184   0.035   8.719  1.2381  0.6272  1.8762
  134SAPE  H14Y14549   5.306   0.145   8.757  0.5763 -2.1246  1.6280
  134SAPE  C31514550   5.138   0.241   8.648 -0.4369 -0.7899  0.5103
  134SAPE  H15X14551   5.202   0.332   8.644 -3.3669  1.3517 -1.1335
  134SAPE  H15Y14552   5.040   0.281   8.682 -0.6729 -3.0322  2.7638
  134SAPE  C31614553   5.126   0.194   8.500  0.3073  0.1877 -0.3776
  134SAPE  H16X14554   5.037   0.128   8.491 -0.1511  1.0561 -3.2213
  134SAPE  H16Y14555   5.217   0.134   8.480  0.7038  1.1913 -1.7185
  134SAPE  C31714556   5.133   0.308   8.402  0.1403  0.5315 -0.3652
  134SAPE  H17X14557   5.208   0.385   8.432 -1.8914  2.0423  1.1215
  134SAPE  H17Y14558   5.037   0.363   8.397  1.0809  2.2843  0.0554
  134SAPE  C31814559   5.177   0.273   8.257 -0.3324 -0.6551 -0.1747
  134SAPE  H18X14560   5.103   0.214   8.200  0.1635  0.4391 -2.0679
  134SAPE  H18Y14561   5.275   0.220   8.261 -0.8489 -1.5346  1.5037
  134SAPE  H18Z14562   5.195   0.366   8.198  0.4523  0.5905  1.8996
  135SAPE     N14563   3.637   0.329  10.567 -1.0808  0.1646 -0.6436
  135SAPE   HN114564   3.581   0.404  10.612 -0.4658  1.2607 -1.6447
  135SAPE   HN214565   3.596   0.322  10.472  0.9667  2.2006 -1.7661
  135SAPE   HN314566   3.631   0.237  10.616 -0.4090  0.8686  0.8173
  135SAPE   C1214567   3.786   0.370  10.552  0.1499 -0.4207  0.9900
  135SAPE  H12A14568   3.834   0.393  10.649  1.5250  2.6211 -0.2865
  135SAPE  H12B14569   3.784   0.454  10.478  1.2490 -1.2040  0.0254
  135SAPE   C1114570   3.866   0.254  10.490 -0.3144  0.1045 -0.6662
  135SAPE  H11A14571   3.972   0.286  10.492  0.2487 -1.6813 -0.2142
  135SAPE  H11B14572   3.830   0.236  10.386  1.0522 -1.2442 -0.9409
  135SAPE     P14573   3.903  -0.003  10.525 -0.2504 -0.2456  0.4454
  135SAPE   O1314574   4.047  -0.004  10.559  0.3373  0.5032  0.5013
  135SAPE   O1414575   3.812  -0.106  10.586 -0.0465  0.4754  0.1734
  135SAPE   O1214576   3.845   0.136  10.568 -0.2265  0.1273 -0.1255
  135SAPE   O1114577   3.890  -0.014  10.363  0.4350  0.2169 -0.3193
  135SAPE    C114578   3.766  -0.029  10.298  0.0373 -0.5774 -0.0519
  135SAPE    HA14579   3.699   0.051  10.336  1.4661  1.0497 -0.8207
  135SAPE    HB14580   3.775  -0.005  10.190  2.0077 -2.9258 -0.5090
  135SAPE    C214581   3.713  -0.177  10.302  0.0700 -0.5503  0.2136
  135SAPE    HS14582   3.694  -0.201  10.409  0.2737 -0.1464  0.3408
  135SAPE   O2114583   3.817  -0.258  10.253  0.2124  0.2010  0.5352
  135SAPE   C2114584   3.803  -0.381  10.280 -0.2389  0.7067  0.0362
  135SAPE   O2214585   3.720  -0.433  10.356  0.1993  0.3513  0.1899
  135SAPE   C2214586   3.904  -0.465  10.203 -0.2699 -0.3252 -0.5102
  135SAPE   H2R14587   4.008  -0.431  10.226 -0.4840 -0.7478  1.2000
  135SAPE   H2S14588   3.892  -0.568  10.242  1.8279 -0.0505  1.0848
  135SAPE    C314589   3.580  -0.189  10.229  0.0997 -0.3582 -1.1878
  135SAPE    HX14590   3.512  -0.116  10.277  2.1212  1.2538 -0.6107
  135SAPE    HY14591   3.536  -0.291  10.233 -0.5742 -0.0447 -0.1187
  135SAPE   O3114592   3.602  -0.140  10.092  0.2137  0.6444 -0.3942
  135SAPE   C3114593   3.580  -0.230  10.001 -0.5347  0.7627 -0.5467
  135SAPE   O3214594   3.557  -0.345  10.022  0.4312  0.2083 -0.2177
  135SAPE   C3214595   3.602  -0.164   9.863 -0.2452 -0.0011  0.3902
  135SAPE   H2X14596   3.651  -0.066   9.880 -0.3733  0.4212 -1.4420
  135SAPE   H2Y14597   3.502  -0.141   9.820  0.8874  0.1602 -2.4182
  135SAPE   C2314598   3.881  -0.455  10.050  0.0346 -0.4335  0.1456
  135SAPE   H3R14599   3.916  -0.356  10.012  0.1535 -0.2839  0.6334
  135SAPE   H3S14600   3.775  -0.457  10.017  0.6558  0.9055 -2.1994
  135SAPE   C2414601   3.946  -0.573   9.972  0.1072 -0.2429  0.2096
  135SAPE   H4R14602   3.891  -0.602   9.880  2.7747 -2.3017 -0.9018
  135SAPE   H4S14603   3.936  -0.661  10.039  1.2104 -0.8191 -0.3483
  135SAPE   C2514604   4.091  -0.543   9.933 -0.2790  0.2800 -0.4201
  135SAPE   H5R14605   4.154  -0.550  10.023  0.3113 -0.3476 -0.8705
  135SAPE   C2614606   4.158  -0.528   9.822 -0.7170 -0.1659  0.2267
  135SAPE   H6R14607   4.262  -0.493   9.826 -1.0425  0.7287  1.0311
  135SAPE   C2714608   4.100  -0.515   9.684 -0.1058 -0.6598  0.3063
  135SAPE   H7R14609   3.989  -0.518   9.683 -0.2444  2.0015 -1.4490
  135SAPE   H7S14610   4.137  -0.600   9.622  0.5700 -0.8041  0.8887
  135SAPE   C2814611   4.150  -0.379   9.621  0.5813  0.1942 -0.7263
  135SAPE   H8R14612   4.160  -0.294   9.689 -2.1347 -0.6852  0.9235
  135SAPE   C2914613   4.173  -0.360   9.491 -0.0221 -0.3416 -0.0095
  135SAPE   H9R14614   4.210  -0.258   9.471  0.3334 -0.0067  2.1123
  135SAPE  C21014615   4.153  -0.462   9.375  0.5328 -0.2562 -0.1856
  135SAPE  H10R14616   4.228  -0.538   9.407  0.1085 -0.0513  1.3907
  135SAPE  H10S14617   4.187  -0.416   9.280  1.0276  0.2298  0.2233
  135SAPE  C21114618   4.010  -0.514   9.355 -0.6578  0.4550  0.5982
  135SAPE  H11R14619   3.975  -0.566   9.445  0.6229  0.9515  1.3989
  135SAPE  C21214620   3.933  -0.498   9.247 -0.1965  0.3324  0.0425
  135SAPE  H12R14621   3.846  -0.565   9.244  0.9869 -1.2908  0.8255
  135SAPE  C21314622   3.962  -0.423   9.118 -0.7546  0.8352  0.7421
  135SAPE  H13R14623   4.033  -0.339   9.138  1.0483 -0.0381 -1.5989
  135SAPE  H13S14624   3.869  -0.368   9.088  0.9608  3.3790 -0.2949
  135SAPE  C21414625   3.999  -0.514   9.000  0.5937  0.1128  0.2744
  135SAPE  H14R14626   4.078  -0.583   9.032 -0.2214 -0.7843  0.3861
  135SAPE  C21514627   3.932  -0.515   8.879 -0.8488  0.3616 -0.2005
  135SAPE  H15R14628   3.973  -0.594   8.815  2.7050 -0.9397  3.3278
  135SAPE  C21614629   3.823  -0.427   8.819  0.5757  0.7008  0.0498
  135SAPE  H16R14630   3.855  -0.396   8.717 -0.4846  0.5249 -0.3494
  135SAPE  H16S14631   3.803  -0.334   8.876 -1.2900  1.7199 -2.1038
  135SAPE  C21714632   3.693  -0.504   8.798  0.2920  0.2434  0.0112
  135SAPE  H17R14633   3.604  -0.438   8.808  0.3678  0.6276 -1.6153
  135SAPE  H17S14634   3.681  -0.581   8.878 -0.0579 -1.4181 -1.5821
  135SAPE  C21814635   3.692  -0.577   8.662  0.8403 -0.0598  0.5523
  135SAPE  H18R14636   3.756  -0.666   8.674  0.9926 -0.0524 -0.1995
  135SAPE  H18S14637   3.734  -0.514   8.581  3.8780 -2.2562  0.2509
  135SAPE  C21914638   3.546  -0.619   8.622 -0.6155 -0.2002  0.6933
  135SAPE  H19R14639   3.492  -0.666   8.706 -1.7964 -1.1638 -0.5593
  135SAPE  H19S14640   3.554  -0.695   8.541 -1.0138  0.0848  0.3795
  135SAPE  C22014641   3.454  -0.512   8.562 -0.4431  0.8804  0.4563
  135SAPE  H20R14642   3.414  -0.443   8.639 -0.6250 -1.0664  2.1626
  135SAPE  H20S14643   3.372  -0.554   8.501  0.9311 -0.7503 -0.3530
  135SAPE  H20T14644   3.510  -0.441   8.497  0.5280 -1.2015 -1.1049
  135SAPE   C3314645   3.693  -0.245   9.766 -0.5422 -0.1944  0.0051
  135SAPE   H3X14646   3.651  -0.348   9.756  0.6657 -1.0371  2.6974
  135SAPE   H3Y14647   3.801  -0.250   9.793 -0.4629 -2.4892 -0.4930
  135SAPE   C3414648   3.675  -0.177   9.629 -0.6451  0.4331 -0.1676
  135SAPE   H4X14649   3.690  -0.069   9.651 -3.0498  1.0738 -1.3206
  135SAPE   H4Y14650   3.568  -0.180   9.598 -0.5608  0.2772 -0.4471
  135SAPE   C3514651   3.770  -0.222   9.517 -0.9433  0.3226  0.2613
  135SAPE   H5X14652   3.746  -0.327   9.491  0.0575  0.4476 -1.3289
  135SAPE   H5Y14653   3.874  -0.214   9.554 -0.6668  1.8351 -0.7825
  135SAPE   C3614654   3.764  -0.130   9.392  0.0529 -0.3651 -0.0552
  135SAPE   H6X14655   3.848  -0.139   9.320 -0.4054 -2.5003 -0.3690
  135SAPE   H6Y14656   3.773  -0.024   9.425  0.2960 -0.1952 -0.6626
  135SAPE   C3714657   3.638  -0.148   9.309 -0.0673 -0.0630  0.2604
  135SAPE   H7X14658   3.556  -0.109   9.373  0.5721  0.6295  0.6764
  135SAPE   H7Y14659   3.635  -0.257   9.289  1.1859 -0.0418 -0.1163
  135SAPE   C3814660   3.634  -0.056   9.185 -0.4403 -0.4407 -0.1867
  135SAPE   H8X14661   3.676   0.043   9.212 -0.5800 -0.4555  0.0867
  135SAPE   H8Y14662   3.527  -0.040   9.159 -0.7601 -1.2769  0.5477
  135SAPE   C3914663   3.719  -0.107   9.064  0.3997 -0.1790 -0.5693
  135SAPE   H9X14664   3.665  -0.198   9.029  0.6236 -0.7903  0.6121
  135SAPE   H9Y14665   3.822  -0.141   9.090  0.2769 -1.0837 -1.2031
  135SAPE  C31014666   3.721   0.004   8.952  0.5759  0.1637  0.1901
  135SAPE  H10X14667   3.788   0.080   8.996  0.1377  0.0816  1.0092
  135SAPE  H10Y14668   3.624   0.057   8.937  0.4462  0.3383  1.5415
  135SAPE  C31114669   3.788  -0.058   8.828  0.3843 -0.6090 -0.2952
  135SAPE  H11X14670   3.731  -0.145   8.791  2.5775 -2.4315  0.4013
  135SAPE  H11Y14671   3.883  -0.092   8.875  0.7506  1.5800  0.6758
  135SAPE  C31214672   3.826   0.039   8.724 -0.4446 -0.0599  0.1954
  135SAPE  H12X14673   3.905   0.097   8.776  0.9972 -1.9404  0.2046
  135SAPE  H12Y14674   3.739   0.099   8.692  1.1608  1.6326 -1.2762
  135SAPE  C31314675   3.876  -0.032   8.599  0.0242  0.6135  0.4439
  135SAPE  H13X14676   3.878   0.024   8.503 -0.7104  1.2058  0.7655
  135SAPE  H13Y14677   3.811  -0.118   8.573  0.2549  1.0829 -1.9949
  135SAPE  C31414678   4.013  -0.103   8.629 -0.7258 -0.7012  0.1455
  135SAPE  H14X14679   4.042  -0.155   8.535 -0.9558  0.6251 -0.6830
  135SAPE  H14Y14680   4.006  -0.184   8.705  0.5634 -0.4564  0.5546
  135SAPE  C31514681   4.130  -0.003   8.660 -0.7140  0.5360  0.6354
  135SAPE  H15X14682   4.229  -0.051   8.640 -1.7082 -1.1752 -0.5368
  135SAPE  H15Y14683   4.124   0.019   8.768  2.8334 -0.8790  1.2758
  135SAPE  C31614684   4.132   0.126   8.579  0.1846 -0.3447 -0.3904
  135SAPE  H16X14685   4.037   0.183   8.584 -0.0835 -0.8205 -0.0352
  135SAPE  H16Y14686   4.165   0.115   8.473  0.1438 -0.8220 -0.3553
  135SAPE  C31714687   4.238   0.230   8.642  0.3193  0.1120 -0.2561
  135SAPE  H17X14688   4.338   0.183   8.649  0.8970  1.5485  2.3240
  135SAPE  H17Y14689   4.208   0.237   8.748 -4.1753 -1.8320 -1.1639
  135SAPE  C31814690   4.231   0.369   8.588  0.3172 -0.1528  0.3225
  135SAPE  H18X14691   4.268   0.377   8.484  0.4067 -2.4868  0.1130
  135SAPE  H18Y14692   4.309   0.431   8.638 -0.0314  0.0333  0.6395
  135SAPE  H18Z14693   4.135   0.424   8.590  1.0460  1.2677 -1.3590
  136SAPE     N14694   6.448   5.418  10.776 -0.3355  0.8474  0.1320
  136SAPE   HN114695   6.362   5.363  10.757 -0.8883  2.3533 -2.0082
  136SAPE   HN214696   6.512   5.386  10.701  0.7680  0.1580  1.3152
  136SAPE   HN314697   6.491   5.376  10.861 -3.3424  1.1876  1.9629
  136SAPE   C1214698   6.404   5.558  10.776  0.1356 -0.5747 -0.5698
  136SAPE  H12A14699   6.308   5.570  10.831  0.2342  2.1575 -0.8706
  136SAPE  H12B14700   6.394   5.598  10.673  2.6897  0.4444 -0.4725
  136SAPE   C1114701   6.515   5.636  10.840 -0.4754  1.0658  0.8352
  136SAPE  H11A14702   6.522   5.600  10.944  1.8803 -0.9149  0.0915
  136SAPE  H11B14703   6.488   5.744  10.841 -0.1765  1.1456  2.6267
  136SAPE     P14704   6.778   5.657  10.855  0.1569 -0.0468  0.3027
  136SAPE   O1314705   6.738   5.704  10.989 -0.1319 -0.9491  0.3308
  136SAPE   O1414706   6.872   5.543  10.853 -0.3249 -0.4197  0.5674
  136SAPE   O1214707   6.650   5.617  10.775  0.1997 -0.1054 -0.4098
  136SAPE   O1114708   6.835   5.780  10.772  0.8648  0.0800  0.0142
  136SAPE    C114709   6.793   5.797  10.635 -0.6831 -0.2928  0.8222
  136SAPE    HA14710   6.683   5.811  10.627 -0.4135  2.1137  0.5436
  136SAPE    HB14711   6.822   5.900  10.603  3.1937 -1.0024  1.6011
  136SAPE    C214712   6.876   5.713  10.535 -0.1955 -0.0995 -0.7600
  136SAPE    HS14713   6.867   5.608  10.570  0.1940  0.5038  1.3133
  136SAPE   O2114714   7.010   5.755  10.557 -0.2510  0.5610  0.3370
  136SAPE   C2114715   7.105   5.677  10.502 -0.2185  0.1457  0.7417
  136SAPE   O2214716   7.090   5.559  10.476 -0.1651  0.2160 -0.2561
  136SAPE   C2214717   7.231   5.766  10.468  0.1007  0.6780  0.3730
  136SAPE   H2R14718   7.196   5.851  10.405  0.7319 -0.9791 -2.3795
  136SAPE   H2S14719   7.269   5.801  10.566  1.4935  0.7532 -0.1768
  136SAPE    C314720   6.814   5.719  10.392 -0.5032  0.1944  0.7701
  136SAPE    HX14721   6.821   5.825  10.359  0.3834  0.2421  1.0983
  136SAPE    HY14722   6.708   5.684  10.398 -0.7216  0.5133 -0.9170
  136SAPE   O3114723   6.883   5.641  10.289 -0.2216  0.2340 -0.2040
  136SAPE   C3114724   6.853   5.512  10.297  0.0318  0.2490 -0.5319
  136SAPE   O3214725   6.775   5.463  10.375 -0.1737 -0.0867  0.4199
  136SAPE   C3214726   6.951   5.422  10.221  0.1010 -0.0600 -0.4915
  136SAPE   H2X14727   6.916   5.326  10.262  1.8486 -0.8381 -0.7132
  136SAPE   H2Y14728   7.055   5.441  10.256 -0.8293  2.0708  1.3796
  136SAPE   C2314729   7.335   5.685  10.387 -0.7086 -0.8181  0.4210
  136SAPE   H3R14730   7.297   5.639  10.294 -2.2744 -0.1408  0.6961
  136SAPE   H3S14731   7.383   5.610  10.454 -1.5504 -0.2876  1.6759
  136SAPE   C2414732   7.444   5.785  10.333  0.2253  0.1440  0.5518
  136SAPE   H4R14733   7.524   5.723  10.287 -0.9280 -1.2304  0.3671
  136SAPE   H4S14734   7.480   5.843  10.421 -0.4124  1.8372 -0.2480
  136SAPE   C2514735   7.380   5.880  10.233 -0.3816  0.5991 -0.3013
  136SAPE   H5R14736   7.317   5.951  10.290 -0.1607  1.0553 -0.6174
  136SAPE   C2614737   7.398   5.892  10.099 -0.5888  0.2562  0.7189
  136SAPE   H6R14738   7.334   5.965  10.048  0.1696  1.0279  0.8505
  136SAPE   C2714739   7.482   5.800  10.015 -0.1881 -0.3172  0.1143
  136SAPE   H7R14740   7.512   5.710  10.073  0.4614 -0.9773 -1.1777
  136SAPE   H7S14741   7.577   5.854   9.992 -1.9120  1.8922 -2.4761
  136SAPE   C2814742   7.424   5.744   9.882  0.1143 -0.6505  0.2319
  136SAPE   H8R14743   7.319   5.714   9.886 -0.5257  0.9209 -2.2330
  136SAPE   C2914744   7.482   5.739   9.758  0.3101 -0.2960 -0.5310
  136SAPE   H9R14745   7.407   5.708   9.684 -2.3945  1.6393  1.2021
  136SAPE  C21014746   7.626   5.780   9.733  0.0994 -0.0167 -0.1077
  136SAPE  H10R14747   7.684   5.685   9.732  0.8711  0.4423 -0.5233
  136SAPE  H10S14748   7.664   5.846   9.814 -0.3028  0.4739 -0.3119
  136SAPE  C21114749   7.653   5.849   9.605 -0.1348 -0.1089 -0.1902
  136SAPE  H11R14750   7.634   5.957   9.610 -1.7903 -0.2226 -2.4606
  136SAPE  C21214751   7.684   5.807   9.483  0.1642  0.3603 -0.1768
  136SAPE  H12R14752   7.695   5.882   9.404  2.6327 -0.7970 -1.0241
  136SAPE  C21314753   7.687   5.664   9.431 -0.1467  0.2014 -0.4820
  136SAPE  H13R14754   7.647   5.597   9.509  1.2277  0.2193  0.2734
  136SAPE  H13S14755   7.791   5.633   9.405 -0.7569 -1.4840 -1.0543
  136SAPE  C21414756   7.604   5.636   9.310 -0.0984 -0.0724  0.4584
  136SAPE  H14R14757   7.509   5.582   9.324 -0.8318 -0.0311 -3.3426
  136SAPE  C21514758   7.615   5.683   9.183  0.0244 -0.4942 -0.2675
  136SAPE  H15R14759   7.541   5.648   9.110  1.0794 -1.6422 -0.8340
  136SAPE  C21614760   7.733   5.765   9.137 -0.9292 -0.0367  0.6058
  136SAPE  H16R14761   7.818   5.784   9.206  1.7616  1.7216 -2.8158
  136SAPE  H16S14762   7.687   5.863   9.112 -1.0496 -0.4560 -0.9685
  136SAPE  C21714763   7.804   5.699   9.018 -0.3363 -0.0463 -0.6059
  136SAPE  H17R14764   7.732   5.661   8.943 -1.0320  2.5739 -1.3759
  136SAPE  H17S14765   7.867   5.616   9.057 -1.1055  0.1254  1.0610
  136SAPE  C21814766   7.897   5.793   8.945 -0.3681 -0.2590  0.0310
  136SAPE  H18R14767   7.952   5.852   9.022 -1.2694  2.3303 -1.1926
  136SAPE  H18S14768   7.833   5.863   8.888 -0.6409 -0.2774  0.3120
  136SAPE  C21914769   7.980   5.717   8.839  0.0638  0.3772 -0.2536
  136SAPE  H19R14770   8.048   5.639   8.880 -1.5065 -0.4961  0.7958
  136SAPE  H19S14771   8.039   5.797   8.791  2.6486 -2.1621 -1.5743
  136SAPE  C22014772   7.895   5.645   8.728  0.2210 -1.0193  0.1145
  136SAPE  H20R14773   7.833   5.564   8.772 -1.7649 -0.7836 -2.0318
  136SAPE  H20S14774   7.968   5.605   8.655  1.3220  0.7854  0.1530
  136SAPE  H20T14775   7.840   5.725   8.673  0.5288 -0.8816  0.0017
  136SAPE   C3314776   6.933   5.430  10.064 -0.2256  0.0561 -0.6907
  136SAPE   H3X14777   6.827   5.408  10.036  0.4016 -0.2032 -3.0699
  136SAPE   H3Y14778   6.983   5.342  10.019  1.2335  0.0097  0.8973
  136SAPE   C3414779   6.988   5.558  10.001  0.4261 -0.1088  0.4250
  136SAPE   H4X14780   7.099   5.558  10.006  0.4782  2.4428  0.3028
  136SAPE   H4Y14781   6.948   5.651  10.045  3.5267  2.6118 -1.9467
  136SAPE   C3514782   6.964   5.552   9.848  0.7753  0.6096 -0.7233
  136SAPE   H5X14783   6.859   5.520   9.829  1.1589 -0.6153 -0.8420
  136SAPE   H5Y14784   7.032   5.475   9.805  2.3545  2.1464 -1.1119
  136SAPE   C3614785   6.995   5.675   9.760 -0.4177 -0.1806 -0.2227
  136SAPE   H6X14786   7.099   5.711   9.778 -0.4270  1.0698 -2.4087
  136SAPE   H6Y14787   6.920   5.754   9.782  0.5984  0.8299 -0.2460
  136SAPE   C3714788   6.989   5.647   9.607 -0.1015 -0.3074  0.0804
  136SAPE   H7X14789   6.881   5.656   9.582  0.5306 -0.7687 -3.3594
  136SAPE   H7Y14790   7.023   5.544   9.581 -0.9646 -0.6667  0.3410
  136SAPE   C3814791   7.056   5.756   9.536 -0.1977  0.1765  0.0582
  136SAPE   H8X14792   7.164   5.762   9.561  0.3465  1.2433 -2.2991
  136SAPE   H8Y14793   7.005   5.849   9.569 -0.7021 -0.9335  2.6374
  136SAPE   C3914794   7.039   5.736   9.390  0.0015  0.1039  0.7230
  136SAPE   H9X14795   7.083   5.643   9.351  3.2120  1.0052  1.8848
  136SAPE   H9Y14796   7.099   5.806   9.328 -1.2316  0.7232  0.1769
  136SAPE  C31014797   6.893   5.746   9.342 -0.7122  1.0172 -0.6628
  136SAPE  H10X14798   6.837   5.809   9.415 -0.8859 -0.0646  0.1634
  136SAPE  H10Y14799   6.841   5.648   9.342  2.1296 -0.6206  0.7490
  136SAPE  C31114800   6.874   5.804   9.201 -0.1538 -0.4096 -0.3558
  136SAPE  H11X14801   6.940   5.742   9.137 -1.4969 -3.1093  0.7400
  136SAPE  H11Y14802   6.922   5.904   9.209 -0.3295 -0.3868  0.5378
  136SAPE  C31214803   6.725   5.816   9.160 -0.0014  0.2032  0.9760
  136SAPE  H12X14804   6.656   5.890   9.205  2.7251  1.9416  2.5709
  136SAPE  H12Y14805   6.686   5.712   9.153  1.5078 -0.3649  0.5204
  136SAPE  C31314806   6.724   5.848   9.012 -0.2830 -0.4009  0.6195
  136SAPE  H13X14807   6.798   5.927   8.986  0.3125 -2.1144 -3.7164
  136SAPE  H13Y14808   6.624   5.890   8.987 -1.0682 -2.0790  0.8663
  136SAPE  C31414809   6.756   5.734   8.909  0.4047 -0.1533  0.4312
  136SAPE  H14X14810   6.665   5.671   8.905  0.4961 -0.2378 -0.5292
  136SAPE  H14Y14811   6.843   5.679   8.951  1.8198 -0.5352 -2.7055
  136SAPE  C31514812   6.798   5.789   8.776 -0.4099  0.1734 -0.6645
  136SAPE  H15X14813   6.905   5.815   8.792 -0.6822  0.0328  1.7890
  136SAPE  H15Y14814   6.732   5.875   8.752 -1.0707 -0.2692 -0.4686
  136SAPE  C31614815   6.791   5.694   8.656  0.3489  1.0158  0.7942
  136SAPE  H16X14816   6.693   5.643   8.648  2.4118 -3.2232 -0.8895
  136SAPE  H16Y14817   6.871   5.618   8.669 -0.8572 -0.1484  1.7144
  136SAPE  C31714818   6.813   5.768   8.519  0.6675  1.0259  0.6339
  136SAPE  H17X14819   6.911   5.819   8.527  0.7231  0.7334  2.2066
  136SAPE  H17Y14820   6.727   5.837   8.507  0.5522  0.7492 -0.1878
  136SAPE  C31814821   6.812   5.658   8.408 -0.0375 -0.0948  0.3988
  136SAPE  H18X14822   6.835   5.704   8.309  0.5035 -0.9628  0.1061
  136SAPE  H18Y14823   6.712   5.608   8.403 -2.2068  3.6502  1.8600
  136SAPE  H18Z14824   6.891   5.583   8.428 -0.5115 -1.4174 -2.2516
  137SAPE     N14825   6.315   2.273  11.123 -0.0746  0.1243 -0.6307
  137SAPE   HN114826   6.387   2.216  11.172 -0.8496  1.1285  1.8465
  137SAPE   HN214827   6.345   2.326  11.038 -0.0391 -0.1674 -0.7999
  137SAPE   HN314828   6.265   2.340  11.185  1.5279 -0.5072  1.4890
  137SAPE   C1214829   6.209   2.169  11.083 -0.0098 -0.1315 -0.0069
  137SAPE  H12A14830   6.148   2.143  11.171 -0.1544  2.8238  0.8591
  137SAPE  H12B14831   6.271   2.083  11.048  2.2482  1.9024 -1.3813
  137SAPE   C1114832   6.133   2.220  10.959  0.7284  0.3869 -0.0866
  137SAPE  H11A14833   6.075   2.141  10.905  3.1109 -2.1671  0.8516
  137SAPE  H11B14834   6.204   2.251  10.879 -0.6054 -0.4992 -1.6907
  137SAPE     P14835   5.908   2.354  10.923  0.1188  0.0450 -0.0167
  137SAPE   O1314836   5.832   2.228  10.914  0.7162 -0.4597 -0.1751
  137SAPE   O1414837   5.830   2.471  10.976  0.6491  0.3376 -0.4555
  137SAPE   O1214838   6.047   2.327  10.999 -0.0867 -0.0793 -0.2552
  137SAPE   O1114839   5.954   2.387  10.766  0.2136 -0.7048  0.2549
  137SAPE    C114840   6.007   2.513  10.732  0.1763 -0.2017  0.6079
  137SAPE    HA14841   5.981   2.596  10.801 -1.3091  0.2459 -0.4305
  137SAPE    HB14842   6.117   2.505  10.727  0.2080  0.2257  0.5865
  137SAPE    C214843   5.961   2.553  10.587 -0.1078  0.0174 -0.3043
  137SAPE    HS14844   5.851   2.563  10.592 -0.2114 -0.6829 -0.9520
  137SAPE   O2114845   5.998   2.443  10.498  0.1322  0.3124 -0.4063
  137SAPE   C2114846   5.897   2.349  10.475  0.2499  0.5087 -0.2413
  137SAPE   O2214847   5.776   2.365  10.489 -0.1428 -0.0406 -0.6602
  137SAPE   C2214848   5.957   2.217  10.421  0.0609 -0.2986  0.1280
  137SAPE   H2R14849   6.014   2.177  10.508 -0.0860 -0.5811  0.0953
  137SAPE   H2S14850   5.875   2.144  10.403  1.6758 -2.2011  0.1004
  137SAPE    C314851   6.027   2.682  10.523  0.3642  0.0550  0.2729
  137SAPE    HX14852   6.137   2.679  10.540  0.5185  2.7068  0.1386
  137SAPE    HY14853   5.993   2.772  10.579  0.3896 -0.0210  0.4101
  137SAPE   O3114854   5.997   2.705  10.381 -0.6549 -0.3522 -0.0356
  137SAPE   C3114855   6.104   2.709  10.304  1.1399 -0.1015  0.4196
  137SAPE   O3214856   6.213   2.749  10.330 -0.0490 -0.2096  0.4532
  137SAPE   C3214857   6.063   2.641  10.172 -0.1573  0.4003  0.6871
  137SAPE   H2X14858   5.975   2.684  10.120 -1.0081 -0.7892  1.1232
  137SAPE   H2Y14859   6.025   2.541  10.199 -0.8880  0.4412 -0.1799
  137SAPE   C2314860   6.043   2.222  10.297  0.0336 -0.3781  0.2368
  137SAPE   H3R14861   6.146   2.248  10.330  0.1596 -1.4125  0.7142
  137SAPE   H3S14862   5.996   2.300  10.234 -1.6815 -2.8780 -1.8100
  137SAPE   C2414863   6.052   2.089  10.223  0.5173  0.2774  0.7875
  137SAPE   H4R14864   5.947   2.054  10.216  0.2160  0.9703  1.6218
  137SAPE   H4S14865   6.111   2.020  10.286  1.5984 -0.9380 -1.4352
  137SAPE   C2514866   6.119   2.113  10.086 -0.0792  0.4649 -0.4927
  137SAPE   H5R14867   6.226   2.088  10.092  0.0648  0.7720 -1.5664
  137SAPE   C2614868   6.061   2.149   9.971 -0.6173 -0.1709 -0.0245
  137SAPE   H6R14869   6.118   2.164   9.878 -0.6554  1.6037  0.2038
  137SAPE   C2714870   5.913   2.172   9.948 -0.5389 -0.3876 -0.0052
  137SAPE   H7R14871   5.861   2.096  10.011  1.3802  0.2031  2.4522
  137SAPE   H7S14872   5.905   2.152   9.839  1.2862  0.4964 -0.3457
  137SAPE   C2814873   5.861   2.315   9.986 -0.0225 -0.3443 -0.6962
  137SAPE   H8R14874   5.793   2.319  10.073 -1.6800  0.6634 -2.0004
  137SAPE   C2914875   5.863   2.425   9.912 -0.1838 -0.2492 -0.8504
  137SAPE   H9R14876   5.822   2.516   9.959 -0.6420 -1.0180  0.2643
  137SAPE  C21014877   5.936   2.444   9.782 -0.1374  0.4618 -0.2648
  137SAPE  H10R14878   5.937   2.345   9.731  0.4518 -0.3709  1.2574
  137SAPE  H10S14879   6.043   2.473   9.791 -0.8955  3.3042  0.4235
  137SAPE  C21114880   5.867   2.548   9.698  0.2438 -0.2449  0.2859
  137SAPE  H11R14881   5.844   2.643   9.748  0.2370  0.9107 -1.7820
  137SAPE  C21214882   5.812   2.532   9.576  0.4891 -0.6323  0.1286
  137SAPE  H12R14883   5.772   2.623   9.529  2.5644  0.5509  0.5082
  137SAPE  C21314884   5.811   2.413   9.487 -0.3599  0.0894  0.2353
  137SAPE  H13R14885   5.738   2.430   9.406 -0.1934 -2.4408 -0.5403
  137SAPE  H13S14886   5.763   2.334   9.550  1.6774  0.6631  2.6678
  137SAPE  C21414887   5.940   2.355   9.446 -0.3179 -0.0272 -0.1388
  137SAPE  H14R14888   6.023   2.385   9.511 -1.0043  1.0219  0.3010
  137SAPE  C21514889   5.966   2.282   9.337 -0.8637  0.1593 -0.5306
  137SAPE  H15R14890   6.069   2.252   9.313  0.3499  2.0024  1.9282
  137SAPE  C21614891   5.861   2.252   9.236  0.0082 -0.0813  0.2290
  137SAPE  H16R14892   5.844   2.332   9.161 -2.8735 -0.6591  0.1504
  137SAPE  H16S14893   5.763   2.235   9.286  0.2203 -0.4946  0.5114
  137SAPE  C21714894   5.912   2.134   9.160  0.5056 -0.3122  0.3134
  137SAPE  H17R14895   5.922   2.047   9.228  1.2510 -2.8259 -2.7706
  137SAPE  H17S14896   6.009   2.154   9.109 -0.9128  0.1848 -2.4089
  137SAPE  C21814897   5.811   2.100   9.046  0.0010  0.0270 -0.4251
  137SAPE  H18R14898   5.711   2.123   9.089 -0.2450 -2.5639  0.5579
  137SAPE  H18S14899   5.812   1.990   9.033  1.0762 -0.2564  1.6489
  137SAPE  C21914900   5.845   2.166   8.917 -0.1449 -0.1158 -0.1535
  137SAPE  H19R14901   5.951   2.145   8.894 -0.0439 -1.9834  1.6844
  137SAPE  H19S14902   5.829   2.274   8.939  0.7011 -0.0538  0.1644
  137SAPE  C22014903   5.757   2.119   8.796 -0.0901  0.1165 -1.1652
  137SAPE  H20R14904   5.742   2.008   8.797 -0.9913  0.1980 -2.7890
  137SAPE  H20S14905   5.798   2.137   8.695  1.8878 -0.3968 -0.4996
  137SAPE  H20T14906   5.650   2.148   8.810 -0.1988 -1.0614  0.9382
  137SAPE   C3314907   6.180   2.629  10.076 -0.8428  0.1177  0.0875
  137SAPE   H3X14908   6.162   2.548  10.002  2.6194 -0.4425 -0.3518
  137SAPE   H3Y14909   6.267   2.589  10.133 -0.2811 -0.2360 -0.9717
  137SAPE   C3414910   6.202   2.766   9.994 -0.2725  0.5572  0.7842
  137SAPE   H4X14911   6.294   2.748   9.934 -0.3068  0.5798  0.7254
  137SAPE   H4Y14912   6.222   2.849  10.066 -0.6978  0.3663  1.1261
  137SAPE   C3514913   6.090   2.786   9.891  0.8356 -0.0925 -0.1533
  137SAPE   H5X14914   5.989   2.797   9.935  0.4448  1.1337 -1.2944
  137SAPE   H5Y14915   6.078   2.699   9.823  1.0550 -1.3578  1.3787
  137SAPE   C3614916   6.113   2.913   9.811 -0.1090 -0.0131  0.1874
  137SAPE   H6X14917   6.203   2.899   9.748  1.2543  0.8370  1.8491
  137SAPE   H6Y14918   6.126   2.996   9.885  1.9746  1.4952 -1.7322
  137SAPE   C3714919   5.989   2.928   9.711 -0.2559  0.6660  0.1960
  137SAPE   H7X14920   5.895   2.923   9.770  1.0291 -1.6083  2.2396
  137SAPE   H7Y14921   5.988   2.845   9.637 -1.2805  1.6350 -0.9119
  137SAPE   C3814922   6.012   3.058   9.628  0.2187 -0.5224  0.4101
  137SAPE   H8X14923   6.118   3.082   9.650  1.0083 -1.5884 -1.8458
  137SAPE   H8Y14924   5.948   3.139   9.668  1.4029  0.6285  0.0607
  137SAPE   C3914925   5.988   3.039   9.478  0.1170  0.1232  0.1674
  137SAPE   H9X14926   5.885   2.997   9.466 -0.7674  1.7684  1.5811
  137SAPE   H9Y14927   6.054   2.957   9.443 -1.6593 -0.9816 -0.7896
  137SAPE  C31014928   6.008   3.158   9.385  0.9433  0.0569  0.2199
  137SAPE  H10X14929   6.110   3.200   9.393  0.5599  0.9435  0.6103
  137SAPE  H10Y14930   5.945   3.242   9.422 -0.4686 -0.2898 -1.2577
  137SAPE  C31114931   5.971   3.115   9.245 -0.0985 -0.7829  0.2142
  137SAPE  H11X14932   5.868   3.075   9.238 -0.7620  1.0233 -1.0824
  137SAPE  H11Y14933   6.039   3.035   9.208  1.8237  0.7978  0.1888
  137SAPE  C31214934   5.967   3.228   9.138  0.1072 -0.2370 -0.0903
  137SAPE  H12X14935   6.075   3.249   9.119 -0.5237  1.3381 -2.2502
  137SAPE  H12Y14936   5.936   3.327   9.178 -0.1537 -0.6827  0.8215
  137SAPE  C31314937   5.902   3.195   9.005  0.1366  0.3040  0.7534
  137SAPE  H13X14938   5.797   3.165   9.027  0.1250 -1.2643 -1.2064
  137SAPE  H13Y14939   5.954   3.110   8.955 -1.5873 -0.2633 -0.1579
  137SAPE  C31414940   5.884   3.321   8.923 -0.5993  0.1117  0.0321
  137SAPE  H14X14941   5.981   3.368   8.896 -0.6269  0.8290  1.0869
  137SAPE  H14Y14942   5.819   3.395   8.975  0.0391 -0.0614  1.0934
  137SAPE  C31514943   5.832   3.276   8.782 -0.1570 -0.6473 -0.3398
  137SAPE  H15X14944   5.800   3.367   8.728 -0.8894  0.4248  1.7968
  137SAPE  H15Y14945   5.747   3.210   8.809 -0.0242 -1.0150 -0.8019
  137SAPE  C31614946   5.930   3.192   8.704 -0.4675  0.1951 -0.6172
  137SAPE  H16X14947   5.946   3.097   8.760  1.5134  0.3210 -0.8721
  137SAPE  H16Y14948   6.034   3.232   8.707 -0.8663  1.2609 -0.6924
  137SAPE  C31714949   5.894   3.171   8.560 -0.4827  0.1333 -0.4488
  137SAPE  H17X14950   5.805   3.104   8.552 -1.0769  0.8871 -0.2590
  137SAPE  H17Y14951   5.975   3.112   8.512 -1.9440 -1.4861 -1.0471
  137SAPE  C31814952   5.876   3.298   8.473  0.2293 -0.0279 -0.5991
  137SAPE  H18X14953   5.848   3.269   8.370 -1.6834  1.2170 -0.4625
  137SAPE  H18Y14954   5.972   3.353   8.483  0.8471 -0.6474 -2.6016
  137SAPE  H18Z14955   5.786   3.351   8.510  0.6450  1.7197 -1.9579
  138SAPE     N14956   4.468   3.938  10.610 -0.5834 -0.4240  0.3011
  138SAPE   HN114957   4.367   3.914  10.613 -0.8304  0.1412 -2.0571
  138SAPE   HN214958   4.480   3.993  10.523  0.7017 -0.6170  0.3413
  138SAPE   HN314959   4.529   3.855  10.602 -0.0325  0.1993 -3.5647
  138SAPE   C1214960   4.501   4.013  10.733 -0.2674  0.8906  0.1605
  138SAPE  H12A14961   4.605   4.053  10.726 -0.0343  0.0585 -1.5358
  138SAPE  H12B14962   4.499   3.931  10.808  0.1587 -0.0601 -0.8566
  138SAPE   C1114963   4.402   4.126  10.768  0.4201  0.4842  0.6111
  138SAPE  H11A14964   4.407   4.200  10.685  1.5779  0.5029  0.6777
  138SAPE  H11B14965   4.433   4.187  10.856 -1.6814  1.9116  0.4303
  138SAPE     P14966   4.129   4.163  10.780  0.3406  0.4905 -0.3306
  138SAPE   O1314967   4.016   4.076  10.811  0.0451 -0.1782  0.1434
  138SAPE   O1414968   4.141   4.284  10.868  0.5039 -0.4678 -0.3187
  138SAPE   O1214969   4.267   4.077  10.776 -0.4544 -0.3931 -0.6589
  138SAPE   O1114970   4.119   4.222  10.629  0.4892  0.2015 -0.4696
  138SAPE    C114971   4.165   4.149  10.515  0.2683 -0.7588 -0.3726
  138SAPE    HA14972   4.218   4.224  10.453  0.0705  0.3484  0.7574
  138SAPE    HB14973   4.230   4.063  10.544  2.9376  1.0205 -0.7242
  138SAPE    C214974   4.053   4.100  10.426  0.0630  0.0706 -0.5780
  138SAPE    HS14975   4.101   4.089  10.326  0.1822 -1.1203 -0.4095
  138SAPE   O2114976   3.947   4.194  10.417  0.3029 -0.1133 -0.3730
  138SAPE   C2114977   3.979   4.302  10.347 -0.4205  0.1732  0.2498
  138SAPE   O2214978   4.091   4.330  10.304 -0.3938 -0.2924  1.2076
  138SAPE   C2214979   3.868   4.403  10.338  0.0288 -0.4976  0.6889
  138SAPE   H2R14980   3.819   4.411  10.438  0.1707  3.1307  0.5866
  138SAPE   H2S14981   3.915   4.500  10.314  1.5311 -1.6833 -1.5570
  138SAPE    C314982   3.988   3.960  10.468 -0.0916 -0.0554  0.4235
  138SAPE    HX14983   3.960   3.955  10.576 -1.1607 -1.4135  0.1121
  138SAPE    HY14984   4.070   3.887  10.448  0.2052  0.8919 -2.1579
  138SAPE   O3114985   3.876   3.914  10.391  0.1037  0.2140  0.3281
  138SAPE   C3114986   3.900   3.897  10.258  0.1395 -0.1770  0.5962
  138SAPE   O3214987   4.008   3.924  10.207 -0.0994  0.4775 -0.7336
  138SAPE   C3214988   3.769   3.843  10.185  0.1770 -0.1818 -0.1927
  138SAPE   H2X14989   3.700   3.808  10.265  0.6886 -0.3112  0.1983
  138SAPE   H2Y14990   3.802   3.747  10.140  1.3577 -1.0080  2.2509
  138SAPE   C2314991   3.773   4.365  10.228  0.5215 -1.0830 -0.6898
  138SAPE   H3R14992   3.709   4.454  10.205 -0.3147 -1.5514 -0.2196
  138SAPE   H3S14993   3.714   4.277  10.262 -3.3863  2.3367  2.5311
  138SAPE   C2414994   3.844   4.323  10.095  0.4116  0.5080  0.1991
  138SAPE   H4R14995   3.761   4.304  10.024  0.2673  0.8631  0.2700
  138SAPE   H4S14996   3.902   4.229  10.105  0.7776  0.9109  2.2751
  138SAPE   C2514997   3.935   4.423  10.040  0.0127  0.1685  0.3504
  138SAPE   H5R14998   4.028   4.453  10.092  1.2995  2.1292 -2.7555
  138SAPE   C2614999   3.906   4.499   9.931 -0.1547 -1.1055 -0.0983
  138SAPE   H6R15000   3.988   4.563   9.895 -1.6802  0.4494 -0.9442
  138SAPE   C2715001   3.785   4.496   9.838  1.2092 -0.3386  0.1371
  138SAPE   H7R15002   3.768   4.596   9.792 -0.6996 -0.5391  0.3253
  138SAPE   H7S15003   3.704   4.468   9.908  1.4706 -2.2656 -0.2572
  138SAPE   C2815004   3.804   4.384   9.740 -0.1218 -0.1506  0.1089
  138SAPE   H8R15005   3.857   4.296   9.780  0.9224  0.9864  1.3106
  138SAPE   C2915006   3.763   4.393   9.609 -0.0741  0.2878  0.0867
  138SAPE   H9R15007   3.785   4.302   9.551 -4.1390 -0.3552 -0.7328
  138SAPE  C21015008   3.699   4.512   9.538  1.0001  0.0912  0.0651
  138SAPE  H10R15009   3.709   4.605   9.598 -0.1708  0.1447  0.2085
  138SAPE  H10S15010   3.589   4.503   9.550  1.3498 -2.9540  2.5431
  138SAPE  C21115011   3.744   4.536   9.399  0.2409 -0.3981  0.2387
  138SAPE  H11R15012   3.854   4.539   9.393  0.3426 -0.1174  1.7751
  138SAPE  C21215013   3.676   4.571   9.289 -0.3846  0.2444 -0.2222
  138SAPE  H12R15014   3.727   4.598   9.196 -1.5242 -3.8316 -2.2902
  138SAPE  C21315015   3.523   4.582   9.284 -0.3594 -0.1845  0.0594
  138SAPE  H13R15016   3.511   4.691   9.267  2.3956  0.3466  0.9802
  138SAPE  H13S15017   3.484   4.552   9.383  0.3119 -1.2756  0.0074
  138SAPE  C21415018   3.450   4.494   9.184 -0.3985 -0.2201 -0.4491
  138SAPE  H14R15019   3.399   4.403   9.220 -0.8656 -0.4340 -1.6047
  138SAPE  C21515020   3.444   4.520   9.048 -0.3347  0.0047  0.0724
  138SAPE  H15R15021   3.398   4.448   8.978  1.3668  1.5700 -2.8883
  138SAPE  C21615022   3.490   4.638   8.965 -1.1699  0.5074 -0.1912
  138SAPE  H16R15023   3.558   4.700   9.027 -0.7336  1.2065 -1.3489
  138SAPE  H16S15024   3.400   4.698   8.940  0.7260  2.9629 -1.5431
  138SAPE  C21715025   3.562   4.587   8.844 -1.3803 -0.2257  0.1489
  138SAPE  H17R15026   3.578   4.669   8.771 -0.2187  0.0184  0.6577
  138SAPE  H17S15027   3.498   4.513   8.791 -0.4153 -1.7660  1.0630
  138SAPE  C21815028   3.705   4.525   8.869 -0.3515 -0.1619 -0.2288
  138SAPE  H18R15029   3.687   4.418   8.893  2.2607 -0.2480  1.7822
  138SAPE  H18S15030   3.748   4.579   8.956  2.4463  0.4796 -1.8750
  138SAPE  C21915031   3.796   4.543   8.747 -0.6832 -0.5034 -0.0252
  138SAPE  H19R15032   3.900   4.527   8.784 -0.9037  1.7066  1.6996
  138SAPE  H19S15033   3.783   4.646   8.708 -1.8714 -1.6722 -3.0628
  138SAPE  C22015034   3.755   4.447   8.637 -0.3611  0.6606 -0.9530
  138SAPE  H20R15035   3.722   4.353   8.685 -0.5323 -0.1161 -2.5334
  138SAPE  H20S15036   3.846   4.436   8.575 -1.0393 -1.3872 -1.6457
  138SAPE  H20T15037   3.669   4.481   8.575 -0.6691  0.4724 -0.6338
  138SAPE   C3315038   3.699   3.943  10.088 -0.1431  0.4530 -0.1450
  138SAPE   H3X15039   3.767   4.029  10.071  1.0461 -0.6333 -1.0416
  138SAPE   H3Y15040   3.598   3.977  10.120 -0.1608 -0.6095  0.9834
  138SAPE   C3415041   3.695   3.877   9.953 -0.0893 -0.4441 -0.0248
  138SAPE   H4X15042   3.630   3.788   9.945 -0.6042  0.0491 -2.2642
  138SAPE   H4Y15043   3.800   3.843   9.938  0.5930  1.0664  1.0343
  138SAPE   C3515044   3.647   3.987   9.853  0.3966  0.3527 -0.4567
  138SAPE   H5X15045   3.706   4.081   9.850 -1.3447  1.4971 -2.8234
  138SAPE   H5Y15046   3.542   4.013   9.880 -0.7022 -2.6081 -1.4760
  138SAPE   C3615047   3.648   3.930   9.709 -0.0830  0.9592 -0.9108
  138SAPE   H6X15048   3.603   3.828   9.706 -1.9017  1.6921  0.1212
  138SAPE   H6Y15049   3.757   3.918   9.691  0.4535  2.4180  1.0389
  138SAPE   C3715050   3.599   4.032   9.606  0.6239  0.6532 -0.4382
  138SAPE   H7X15051   3.630   4.131   9.646  0.2387 -0.4360  2.8359
  138SAPE   H7Y15052   3.488   4.044   9.607  0.5017  0.3346  3.3096
  138SAPE   C3815053   3.677   4.014   9.477  0.6566 -0.3761  0.4612
  138SAPE   H8X15054   3.676   3.906   9.452 -1.4922 -0.6813  1.6349
  138SAPE   H8Y15055   3.779   4.053   9.496  0.3003  0.8532 -0.0447
  138SAPE   C3915056   3.614   4.083   9.357  0.3929 -0.0460 -0.7648
  138SAPE   H9X15057   3.584   4.187   9.384 -1.9467 -1.0796  0.9528
  138SAPE   H9Y15058   3.518   4.034   9.332 -0.8310  0.6325  2.1410
  138SAPE  C31015059   3.700   4.067   9.231  0.8279 -0.0590 -0.4367
  138SAPE  H10X15060   3.749   3.968   9.235 -0.0243 -0.4477  1.5071
  138SAPE  H10Y15061   3.782   4.139   9.254  0.4942  0.4835 -0.9179
  138SAPE  C31115062   3.616   4.124   9.117 -0.1183 -0.4925 -0.1511
  138SAPE  H11X15063   3.550   4.209   9.144 -0.0914 -1.3531  2.9642
  138SAPE  H11Y15064   3.546   4.044   9.084  1.1559 -1.8498  0.3196
  138SAPE  C31215065   3.701   4.170   8.992  0.0964 -0.2139 -0.0668
  138SAPE  H12X15066   3.763   4.259   9.017 -0.1332 -0.2108  0.5042
  138SAPE  H12Y15067   3.623   4.205   8.921 -1.0372  0.3673  1.3890
  138SAPE  C31315068   3.777   4.048   8.934 -0.2843 -0.7028  0.2651
  138SAPE  H13X15069   3.717   3.957   8.913 -0.0763 -0.4483 -1.6238
  138SAPE  H13Y15070   3.866   4.018   8.992  1.0381  1.4915 -0.5048
  138SAPE  C31415071   3.837   4.094   8.796  0.1387 -0.2743  0.6938
  138SAPE  H14X15072   3.763   4.130   8.722  0.2154 -1.0919  0.2114
  138SAPE  H14Y15073   3.885   4.002   8.757  0.0975  0.8690 -2.2804
  138SAPE  C31515074   3.947   4.195   8.818  0.3253 -0.1287 -0.2317
  138SAPE  H15X15075   4.030   4.166   8.886  1.2718 -0.6988 -1.5979
  138SAPE  H15Y15076   3.903   4.293   8.848  0.0834 -0.0234 -0.9162
  138SAPE  C31615077   4.028   4.209   8.685 -0.6779  0.1335  0.3802
  138SAPE  H16X15078   4.078   4.308   8.675  0.8649 -0.7280 -0.8968
  138SAPE  H16Y15079   3.958   4.199   8.599 -1.1221 -1.9621  0.9367
  138SAPE  C31715080   4.151   4.117   8.676 -0.0961  0.2706 -0.5321
  138SAPE  H17X15081   4.116   4.013   8.663  0.4904  0.1557 -1.2768
  138SAPE  H17Y15082   4.220   4.136   8.761 -2.9167 -0.7001  2.1264
  138SAPE  C31815083   4.234   4.136   8.553 -0.1886  0.3341  0.6704
  138SAPE  H18X15084   4.167   4.129   8.464  2.3858  1.5708 -1.5246
  138SAPE  H18Y15085   4.321   4.067   8.549 -0.7536 -0.3509 -0.9408
  138SAPE  H18Z15086   4.273   4.240   8.553 -0.9345  0.6689 -1.4573
  139SAPE     N15087   3.211   2.014  10.774  0.2010  0.0512 -0.2969
  139SAPE   HN115088   3.153   1.928  10.770 -0.5078  0.3324  2.2584
  139SAPE   HN215089   3.301   1.987  10.819  0.3384  0.1035 -0.5359
  139SAPE   HN315090   3.153   2.086  10.823 -0.3221  0.3529 -1.3444
  139SAPE   C1215091   3.228   2.071  10.634 -0.1893 -0.5221 -0.3674
  139SAPE  H12A15092   3.285   2.166  10.634 -1.4677  0.3035 -2.2050
  139SAPE  H12B15093   3.124   2.086  10.597  0.3715 -2.0603 -2.8167
  139SAPE   C1115094   3.296   1.968  10.542  0.1935  0.0478 -0.1107
  139SAPE  H11A15095   3.293   2.004  10.438  1.0393  0.0126 -0.1540
  139SAPE  H11B15096   3.243   1.870  10.545  0.2326 -0.0398 -1.7027
  139SAPE     P15097   3.558   2.018  10.549 -0.3793  0.1773  0.4033
  139SAPE   O1315098   3.532   2.164  10.567 -0.2012 -0.0392  0.3995
  139SAPE   O1415099   3.676   1.962  10.615 -0.4330 -0.3886 -0.7210
  139SAPE   O1215100   3.428   1.940  10.594  0.0878  0.4522 -0.0355
  139SAPE   O1115101   3.565   1.982  10.398 -1.1300  0.4937 -0.6021
  139SAPE    C115102   3.607   1.852  10.364 -0.2238 -0.0993  0.1774
  139SAPE    HA15103   3.709   1.823  10.399  0.6732 -0.2019 -2.3557
  139SAPE    HB15104   3.535   1.776  10.401  0.1027  0.6878  2.6047
  139SAPE    C215105   3.623   1.820  10.210 -0.1411 -0.0662 -0.1511
  139SAPE    HS15106   3.680   1.724  10.207 -1.8380 -1.1029 -1.1119
  139SAPE   O2115107   3.682   1.931  10.146  0.4476  0.2857 -0.3881
  139SAPE   C2115108   3.757   1.891  10.046  0.1647  0.3738  0.5340
  139SAPE   O2215109   3.794   1.777  10.024 -0.2347  1.0514  0.6896
  139SAPE   C2215110   3.804   2.011   9.967  0.0039 -0.4113 -0.0509
  139SAPE   H2R15111   3.762   2.107  10.006  1.9604  0.9354 -1.0564
  139SAPE   H2S15112   3.912   2.016   9.991  0.2835 -2.7324 -0.5907
  139SAPE    C315113   3.482   1.787  10.148 -0.2528 -0.8020  0.6601
  139SAPE    HX15114   3.420   1.879  10.147  0.5408 -0.2218 -2.0139
  139SAPE    HY15115   3.433   1.718  10.220 -2.7688 -0.3697 -0.5172
  139SAPE   O3115116   3.485   1.739  10.010 -0.4144  0.1913 -0.0968
  139SAPE   C3115117   3.513   1.613   9.989 -0.1403  0.1386 -0.9305
  139SAPE   O3215118   3.537   1.530  10.080 -0.1720  0.0254 -0.0223
  139SAPE   C3215119   3.492   1.581   9.841  0.0603 -0.2219 -0.3945
  139SAPE   H2X15120   3.524   1.669   9.780 -0.1317  0.1369  0.0154
  139SAPE   H2Y15121   3.382   1.570   9.830 -0.2150  1.1067  0.7181
  139SAPE   C2315122   3.785   2.002   9.816  0.3752 -0.5651 -0.2013
  139SAPE   H3R15123   3.762   1.898   9.785  1.3348 -0.6637 -0.6354
  139SAPE   H3S15124   3.889   2.016   9.779  0.7852  0.3478  1.2096
  139SAPE   C2415125   3.694   2.108   9.747  0.3370  0.5008 -0.4208
  139SAPE   H4R15126   3.698   2.072   9.642  3.3256  1.3846 -0.7161
  139SAPE   H4S15127   3.730   2.213   9.754  0.1376  0.4951  0.9744
  139SAPE   C2515128   3.554   2.091   9.799 -0.2706  0.5251  0.3350
  139SAPE   H5R15129   3.537   2.141   9.895  0.7904  2.2482 -0.3346
  139SAPE   C2615130   3.453   2.037   9.727 -0.6047  0.1586 -0.0723
  139SAPE   H6R15131   3.354   2.028   9.775  0.4130 -0.5814  1.9538
  139SAPE   C2715132   3.459   1.981   9.592 -0.2845  0.0742  0.6941
  139SAPE   H7R15133   3.366   1.926   9.567 -0.5801  0.7011  0.4071
  139SAPE   H7S15134   3.535   1.902   9.575  0.6670  1.5572 -2.7173
  139SAPE   C2815135   3.477   2.093   9.488  0.4221 -0.2300 -0.4633
  139SAPE   H8R15136   3.552   2.171   9.505  1.6386 -1.1081 -1.5753
  139SAPE   C2915137   3.397   2.111   9.380 -0.1402  0.8393  0.1721
  139SAPE   H9R15138   3.414   2.193   9.310 -4.4084  1.8980  0.0934
  139SAPE  C21015139   3.280   2.025   9.338 -0.3001  0.1314 -0.0805
  139SAPE  H10R15140   3.209   2.016   9.423  0.8784 -0.4111  0.8595
  139SAPE  H10S15141   3.315   1.920   9.329  0.5963  0.3844  0.4700
  139SAPE  C21115142   3.213   2.054   9.207  0.0118  0.0258 -0.7993
  139SAPE  H11R15143   3.233   2.159   9.180  1.2294 -0.0439 -0.2313
  139SAPE  C21215144   3.125   1.974   9.143 -0.2144  1.2227  0.4555
  139SAPE  H12R15145   3.082   2.018   9.051  0.2550  0.4998 -0.1230
  139SAPE  C21315146   3.079   1.835   9.177 -0.2423 -0.2537  0.1004
  139SAPE  H13R15147   2.976   1.827   9.138  0.3864 -1.6605 -1.3674
  139SAPE  H13S15148   3.066   1.827   9.287  1.5501 -0.0908  0.3573
  139SAPE  C21415149   3.172   1.726   9.130 -0.8246 -0.0847 -0.7755
  139SAPE  H14R15150   3.232   1.681   9.210 -0.9206 -2.7610 -2.1027
  139SAPE  C21515151   3.184   1.675   9.003  0.2818 -0.7595 -0.2769
  139SAPE  H15R15152   3.237   1.580   8.993 -0.5212 -1.3493  0.7757
  139SAPE  C21615153   3.119   1.734   8.883 -0.8214  0.1116 -0.0738
  139SAPE  H16R15154   3.042   1.811   8.906 -1.9107 -0.2674 -2.1276
  139SAPE  H16S15155   3.071   1.653   8.823  0.6051  0.2610 -1.4946
  139SAPE  C21715156   3.230   1.805   8.796  0.0309  0.3288 -1.0619
  139SAPE  H17R15157   3.312   1.735   8.768 -2.4335 -2.4521 -1.7373
  139SAPE  H17S15158   3.269   1.888   8.859 -2.7229  2.2142 -1.6973
  139SAPE  C21815159   3.182   1.850   8.661 -0.1378  0.3701  0.3097
  139SAPE  H18R15160   3.094   1.790   8.630  1.7184 -1.5236 -1.5318
  139SAPE  H18S15161   3.258   1.846   8.581 -1.1208  2.9913 -0.8965
  139SAPE  C21915162   3.141   1.998   8.661 -0.3307  0.8809  0.3207
  139SAPE  H19R15163   3.069   2.026   8.740 -1.3427 -0.1047 -0.2148
  139SAPE  H19S15164   3.090   2.013   8.564 -0.9607  0.1348  0.5191
  139SAPE  C22015165   3.267   2.085   8.653 -0.7603  0.0057 -0.4636
  139SAPE  H20R15166   3.332   2.055   8.568  0.5918  3.2190 -0.6876
  139SAPE  H20S15167   3.328   2.082   8.745 -1.3509  1.1102 -0.0130
  139SAPE  H20T15168   3.231   2.186   8.623 -2.5692  0.1019  1.7366
  139SAPE   C3315169   3.587   1.461   9.799 -0.7523 -0.5125  0.3224
  139SAPE   H3X15170   3.563   1.427   9.696  0.7859  2.1601 -1.0381
  139SAPE   H3Y15171   3.588   1.373   9.867  0.7600  0.2690  1.3815
  139SAPE   C3415172   3.733   1.513   9.774 -0.0713 -0.3684 -0.5780
  139SAPE   H4X15173   3.804   1.428   9.786 -0.7933 -0.7325  1.6076
  139SAPE   H4Y15174   3.758   1.581   9.858 -0.5937  1.4715 -1.8626
  139SAPE   C3515175   3.747   1.581   9.642 -0.4997 -0.3975  0.5185
  139SAPE   H5X15176   3.663   1.652   9.627  0.8884  1.4389  0.9731
  139SAPE   H5Y15177   3.724   1.509   9.560 -1.7316  2.1675 -1.5426
  139SAPE   C3615178   3.887   1.650   9.630  0.8056  0.1597  0.1955
  139SAPE   H6X15179   3.961   1.567   9.632 -0.4035 -0.9667 -0.2433
  139SAPE   H6Y15180   3.909   1.726   9.707  1.5843  0.0905  0.0604
  139SAPE   C3715181   3.906   1.711   9.487 -0.4808  0.7247 -0.0586
  139SAPE   H7X15182   3.895   1.639   9.403 -2.6004  0.7502  0.1299
  139SAPE   H7Y15183   4.013   1.738   9.495 -0.0902 -0.8640  0.4921
  139SAPE   C3815184   3.814   1.830   9.453  0.3372 -0.3517  0.3902
  139SAPE   H8X15185   3.842   1.908   9.527 -3.2160  3.1893 -1.5678
  139SAPE   H8Y15186   3.711   1.792   9.466  0.1232 -0.9956 -2.4647
  139SAPE   C3915187   3.826   1.884   9.304  0.2741 -0.1548 -0.9950
  139SAPE   H9X15188   3.822   1.802   9.230  0.6516 -1.5652  0.4725
  139SAPE   H9Y15189   3.925   1.929   9.282 -0.0373  0.5673 -0.9552
  139SAPE  C31015190   3.726   1.988   9.267  0.4833  0.4069 -0.5301
  139SAPE  H10X15191   3.742   2.086   9.316 -0.2529  0.1707  0.2110
  139SAPE  H10Y15192   3.628   1.959   9.310  1.0394 -2.4327 -0.9843
  139SAPE  C31115193   3.710   2.015   9.118 -0.2608  0.0003  0.0025
  139SAPE  H11X15194   3.724   1.918   9.066  0.0892  0.1155 -0.1220
  139SAPE  H11Y15195   3.802   2.073   9.095  2.6917 -3.2187  2.4897
  139SAPE  C31215196   3.587   2.082   9.067 -0.0446 -0.0853 -0.4671
  139SAPE  H12X15197   3.591   2.190   9.094  1.9302  0.2373 -1.8883
  139SAPE  H12Y15198   3.506   2.045   9.134  2.4972 -1.7132  1.9154
  139SAPE  C31315199   3.562   2.068   8.918  0.2698 -0.1351  0.2274
  139SAPE  H13X15200   3.453   2.082   8.900  0.1569 -1.3639 -0.1106
  139SAPE  H13Y15201   3.575   1.963   8.885 -1.2110  0.1271 -1.3355
  139SAPE  C31415202   3.652   2.172   8.840 -0.4341  0.1492  0.0794
  139SAPE  H14X15203   3.746   2.177   8.899 -1.3395  0.1747  1.5737
  139SAPE  H14Y15204   3.609   2.274   8.851  0.4433  0.2950  2.9821
  139SAPE  C31515205   3.676   2.141   8.691 -0.2599  0.6400  0.3426
  139SAPE  H15X15206   3.590   2.107   8.630  2.3779 -2.1475 -2.1643
  139SAPE  H15Y15207   3.737   2.049   8.703  0.8528  1.3743  0.4780
  139SAPE  C31615208   3.757   2.250   8.628  0.3855 -1.0149 -0.0067
  139SAPE  H16X15209   3.707   2.349   8.631  0.6034 -0.9277  2.0747
  139SAPE  H16Y15210   3.847   2.274   8.688 -0.9611 -0.2728  1.8068
  139SAPE  C31715211   3.796   2.214   8.482  0.0194 -0.6688  0.4666
  139SAPE  H17X15212   3.695   2.217   8.438  0.4824 -0.0827 -0.6012
  139SAPE  H17Y15213   3.845   2.116   8.465 -0.2266 -0.3812 -2.3586
  139SAPE  C31815214   3.880   2.318   8.411 -0.3604 -0.1195  0.6683
  139SAPE  H18X15215   3.875   2.293   8.303  3.4724 -2.3530  0.7866
  139SAPE  H18Y15216   3.986   2.325   8.444 -0.3626 -1.0329  0.9231
  139SAPE  H18Z15217   3.837   2.420   8.417 -1.1731 -0.4131 -0.0326
  140SAPE     N15218   0.641   0.161  11.158 -0.6009 -0.0935  0.5782
  140SAPE   HN115219   0.614   0.259  11.180 -0.7600  0.1838 -0.7953
  140SAPE   HN215220   0.629   0.103  11.244  0.3174 -1.6281 -0.2736
  140SAPE   HN315221   0.744   0.167  11.143 -0.8458  2.6690 -0.4413
  140SAPE   C1215222   0.581   0.111  11.030  0.0746  1.7874 -0.4076
  140SAPE  H12A15223   0.483   0.063  11.048  1.1664 -0.2795  0.4649
  140SAPE  H12B15224   0.648   0.026  11.002 -1.5640 -0.3044  1.6741
  140SAPE   C1115225   0.585   0.216  10.917 -0.3453  0.0210 -0.0055
  140SAPE  H11A15226   0.547   0.176  10.821 -0.8874 -1.4056  0.7848
  140SAPE  H11B15227   0.693   0.236  10.901  0.3556 -1.4613  2.3562
  140SAPE     P15228   0.357   0.336  10.935 -0.1262 -0.0010  0.4879
  140SAPE   O1315229   0.285   0.222  11.006 -0.3697 -0.4682  0.0750
  140SAPE   O1415230   0.311   0.470  10.981  0.1432 -0.5175 -0.0115
  140SAPE   O1215231   0.517   0.325  10.963  0.4915 -0.2748  0.3767
  140SAPE   O1115232   0.343   0.318  10.778  0.3390 -0.3681 -0.5239
  140SAPE    C115233   0.251   0.398  10.703  0.1207 -0.4892  0.7837
  140SAPE    HA15234   0.232   0.502  10.736 -4.0924 -0.6223 -0.6739
  140SAPE    HB15235   0.284   0.406  10.598 -1.4961  0.5318  0.3151
  140SAPE    C215236   0.111   0.341  10.709  0.0782  0.6236  0.2239
  140SAPE    HS15237   0.075   0.325  10.813 -2.0668  0.2034 -0.5272
  140SAPE   O2115238   0.111   0.218  10.636  0.2742 -0.8193  0.0059
  140SAPE   C2115239  -0.000   0.149  10.624  0.4404  0.0549 -0.2121
  140SAPE   O2215240  -0.102   0.175  10.683 -0.1551  0.3031  0.4706
  140SAPE   C2215241  -0.000   0.038  10.522  0.6433  0.0236  0.7385
  140SAPE   H2R15242  -0.067   0.063  10.437  0.4669  0.3016  0.9572
  140SAPE   H2S15243   0.104   0.029  10.484  0.7075  1.3805  0.5594
  140SAPE    C315244   0.017   0.438  10.640  0.4341  0.3741  0.9594
  140SAPE    HX15245   0.027   0.529  10.704  0.0624  0.9084  0.2712
  140SAPE    HY15246  -0.090   0.412  10.650  0.6109 -0.7190  0.2053
  140SAPE   O3115247   0.061   0.465  10.507 -0.1744  0.0854  0.4805
  140SAPE   C3115248  -0.034   0.451  10.405 -0.5934 -0.7027  0.4907
  140SAPE   O3215249  -0.145   0.406  10.420 -0.2322 -0.0272 -0.3590
  140SAPE   C3215250   0.032   0.490  10.272  0.5930  0.0231  0.2389
  140SAPE   H2X15251   0.098   0.410  10.233  3.0602  2.0227  0.0890
  140SAPE   H2Y15252   0.103   0.575  10.277  2.5608 -1.2580 -2.7514
  140SAPE   C2315253  -0.046  -0.105  10.576 -0.4044 -0.0225 -0.6235
  140SAPE   H3R15254  -0.147  -0.087  10.618 -0.9044  1.5617 -2.3837
  140SAPE   H3S15255   0.022  -0.134  10.660 -0.2545 -0.9354 -1.0500
  140SAPE   C2415256  -0.062  -0.214  10.470  0.2915 -0.6156  0.9468
  140SAPE   H4R15257   0.022  -0.209  10.398 -0.7745 -0.0007 -0.2831
  140SAPE   H4S15258  -0.154  -0.185  10.415  1.1430 -0.4335 -0.4038
  140SAPE   C2515259  -0.072  -0.348  10.537 -0.4173 -0.5561  0.8584
  140SAPE   H5R15260  -0.039  -0.352  10.642 -2.1842  0.0483  1.4702
  140SAPE   C2615261  -0.126  -0.463  10.478  1.0322 -0.1756 -0.6809
  140SAPE   H6R15262  -0.132  -0.557  10.535  2.0709 -0.1691 -0.5290
  140SAPE   C2715263  -0.187  -0.475  10.340 -0.6551 -0.4720 -0.6101
  140SAPE   H7R15264  -0.118  -0.430  10.266 -0.3306 -0.2721 -0.1959
  140SAPE   H7S15265  -0.277  -0.410  10.338  1.0411  2.0269 -0.0941
  140SAPE   C2815266  -0.204  -0.619  10.297  0.1672  0.2856  0.1020
  140SAPE   H8R15267  -0.161  -0.701  10.356  1.5086  1.3484  0.6407
  140SAPE   C2915268  -0.280  -0.656  10.188  0.3835 -0.0901  0.0308
  140SAPE   H9R15269  -0.297  -0.763  10.167 -2.0612  0.2377  0.0573
  140SAPE  C21015270  -0.356  -0.569  10.093  0.5073  0.2804  0.0543
  140SAPE  H10R15271  -0.308  -0.550   9.995  2.3290  0.4580  0.9337
  140SAPE  H10S15272  -0.371  -0.470  10.140 -3.3032 -0.0169 -0.2071
  140SAPE  C21115273  -0.494  -0.626  10.081  0.3304  0.3282  0.4180
  140SAPE  H11R15274  -0.547  -0.636  10.176 -0.7941  0.7248 -0.1495
  140SAPE  C21215275  -0.568  -0.644   9.966 -0.0225 -0.1264 -0.6592
  140SAPE  H12R15276  -0.661  -0.703   9.971 -0.4539  0.3314 -2.5096
  140SAPE  C21315277  -0.523  -0.618   9.824 -0.3185  0.2275  0.7026
  140SAPE  H13R15278  -0.566  -0.705   9.769 -3.5904  2.6196 -0.8864
  140SAPE  H13S15279  -0.413  -0.602   9.820 -0.2409  0.1290  1.9306
  140SAPE  C21415280  -0.590  -0.494   9.771 -0.2254 -0.4765  0.0813
  140SAPE  H14R15281  -0.597  -0.407   9.838  0.0055  0.1697 -0.7073
  140SAPE  C21515282  -0.626  -0.482   9.643  0.4633 -0.9191 -0.2497
  140SAPE  H15R15283  -0.682  -0.388   9.627 -1.0669 -1.2990  2.3538
  140SAPE  C21615284  -0.618  -0.581   9.532  0.2883 -0.1896  0.1118
  140SAPE  H16R15285  -0.719  -0.578   9.486 -0.0794 -0.5801  0.8713
  140SAPE  H16S15286  -0.610  -0.687   9.564  1.7441  0.3200  1.6153
  140SAPE  C21715287  -0.506  -0.560   9.429  0.0669 -0.2100 -0.7421
  140SAPE  H17R15288  -0.407  -0.562   9.479 -0.8128 -0.0581  1.0575
  140SAPE  H17S15289  -0.518  -0.454   9.398 -5.6960 -0.5140 -0.5179
  140SAPE  C21815290  -0.502  -0.648   9.307  0.2229 -0.1227 -0.2831
  140SAPE  H18R15291  -0.464  -0.750   9.330  0.0637  0.2290  1.7908
  140SAPE  H18S15292  -0.425  -0.605   9.239 -0.9060  1.3784 -0.6679
  140SAPE  C21915293  -0.625  -0.645   9.214 -0.1946 -0.1439 -0.1559
  140SAPE  H19R15294  -0.637  -0.539   9.184 -1.5867 -0.3165 -0.2924
  140SAPE  H19S15295  -0.721  -0.667   9.266  0.6951  0.1228  1.6572
  140SAPE  C22015296  -0.614  -0.752   9.101 -0.3430 -0.7556 -0.5036
  140SAPE  H20R15297  -0.511  -0.782   9.074 -0.6084 -0.7000 -1.6199
  140SAPE  H20S15298  -0.650  -0.710   9.004 -1.6406  2.6802  1.3012
  140SAPE  H20T15299  -0.677  -0.840   9.127 -1.7353  0.4270  0.2596
  140SAPE   C3315300  -0.079   0.511  10.167  0.1781  0.1764 -0.0901
  140SAPE   H3X15301  -0.046   0.579  10.086  0.0625 -1.2169 -1.3490
  140SAPE   H3Y15302  -0.167   0.562  10.211 -0.1221 -0.6754  0.3195
  140SAPE   C3415303  -0.136   0.380  10.098 -0.0196 -0.0290  0.1266
  140SAPE   H4X15304  -0.189   0.322  10.176  1.3647  1.9966  2.7784
  140SAPE   H4Y15305  -0.053   0.320  10.056 -1.5844 -0.9579 -1.7879
  140SAPE   C3515306  -0.222   0.416   9.972 -0.0594  0.2398 -0.9841
  140SAPE   H5X15307  -0.162   0.448   9.884  0.2339 -0.4619 -1.0452
  140SAPE   H5Y15308  -0.301   0.485  10.007 -0.1118 -0.7470  0.9469
  140SAPE   C3615309  -0.297   0.290   9.934 -0.1328  1.1324  0.7222
  140SAPE   H6X15310  -0.363   0.270  10.021 -0.6558 -0.7834 -0.0695
  140SAPE   H6Y15311  -0.223   0.211   9.907  0.1399  1.0530  1.6634
  140SAPE   C3715312  -0.394   0.303   9.809  0.0821 -0.7032 -0.1600
  140SAPE   H7X15313  -0.435   0.406   9.808  1.4678 -0.0345  2.5831
  140SAPE   H7Y15314  -0.475   0.230   9.825  0.8839 -1.2582  1.5619
  140SAPE   C3815315  -0.324   0.289   9.675  0.0357 -0.0110  1.1287
  140SAPE   H8X15316  -0.298   0.182   9.659  1.4487  0.4264  0.3564
  140SAPE   H8Y15317  -0.235   0.354   9.663 -0.5482  0.5566 -0.3019
  140SAPE   C3915318  -0.410   0.332   9.553  0.3966  0.3075 -0.8460
  140SAPE   H9X15319  -0.435   0.438   9.578  0.4727 -0.0236  0.7835
  140SAPE   H9Y15320  -0.497   0.264   9.544  0.3083  0.1619  0.8152
  140SAPE  C31015321  -0.338   0.330   9.422  0.1137 -0.4651 -0.7263
  140SAPE  H10X15322  -0.287   0.231   9.411 -0.1226 -0.4510 -2.0431
  140SAPE  H10Y15323  -0.269   0.416   9.435 -0.7211  0.2647 -1.0600
  140SAPE  C31115324  -0.426   0.363   9.300  0.2892 -0.7219 -0.1461
  140SAPE  H11X15325  -0.432   0.474   9.301  0.2278 -0.7204  1.3821
  140SAPE  H11Y15326  -0.521   0.308   9.317 -0.2454  0.1553 -0.2197
  140SAPE  C31215327  -0.370   0.322   9.163  0.3420 -0.4682 -0.4754
  140SAPE  H12X15328  -0.349   0.213   9.167 -2.6598 -1.1304  0.2541
  140SAPE  H12Y15329  -0.278   0.382   9.147  1.7455 -1.7788  1.9908
  140SAPE  C31315330  -0.469   0.331   9.046  0.4637  0.1426  0.9120
  140SAPE  H13X15331  -0.544   0.410   9.067 -1.2890 -0.3087 -2.7366
  140SAPE  H13Y15332  -0.521   0.235   9.028  0.2197  0.6322 -1.3469
  140SAPE  C31415333  -0.397   0.383   8.917 -0.0888 -0.4876  0.3354
  140SAPE  H14X15334  -0.322   0.309   8.884  0.2691  0.7099 -1.6981
  140SAPE  H14Y15335  -0.353   0.483   8.941  2.0853 -1.0162 -1.1499
  140SAPE  C31515336  -0.473   0.417   8.785  0.0002  0.0545  0.3950
  140SAPE  H15X15337  -0.560   0.478   8.817  0.4818 -0.0236  1.9344
  140SAPE  H15Y15338  -0.495   0.315   8.746 -0.5927  0.7700 -1.2586
  140SAPE  C31615339  -0.388   0.490   8.699  0.1517  0.4372  0.8362
  140SAPE  H16X15340  -0.286   0.447   8.689  0.4068  1.0929  0.5107
  140SAPE  H16Y15341  -0.377   0.594   8.738 -0.0249  1.1515 -0.9240
  140SAPE  C31715342  -0.435   0.512   8.552 -0.3731  0.2275  0.1035
  140SAPE  H17X15343  -0.363   0.586   8.511  2.4054 -2.4016 -0.1251
  140SAPE  H17Y15344  -0.532   0.566   8.545 -0.4164 -0.0121 -1.4949
  140SAPE  C31815345  -0.421   0.382   8.470 -0.3500  0.0334  0.2228
  140SAPE  H18X15346  -0.315   0.351   8.479 -0.8041 -1.1279  2.3275
  140SAPE  H18Y15347  -0.448   0.384   8.363  0.4276 -3.8610 -0.1962
  140SAPE  H18Z15348  -0.482   0.307   8.525  0.9286 -0.9662  0.3254
  141SAPE     N15349   4.514   0.207  10.533 -0.6913  0.4968  0.6757
  141SAPE   HN115350   4.553   0.126  10.480 -0.4885 -1.1887  3.2029
  141SAPE   HN215351   4.421   0.227  10.490 -2.3342 -4.3167  1.4067
  141SAPE   HN315352   4.589   0.278  10.522 -0.7502  0.4713  0.1139
  141SAPE   C1215353   4.491   0.182  10.681 -0.7671 -0.0004  0.2358
  141SAPE  H12A15354   4.593   0.154  10.714 -0.5982  2.1770  1.7885
  141SAPE  H12B15355   4.421   0.097  10.695 -1.0201  0.4199  1.6423
  141SAPE   C1115356   4.458   0.311  10.750  0.2073 -0.5432 -0.2734
  141SAPE  H11A15357   4.419   0.294  10.853  0.5024  0.8657  0.0887
  141SAPE  H11B15358   4.374   0.355  10.693  0.0300 -0.2809  0.1915
  141SAPE     P15359   4.566   0.529  10.853 -0.2201 -0.0488 -0.2866
  141SAPE   O1315360   4.439   0.536  10.930 -0.3821  0.5435  0.0694
  141SAPE   O1415361   4.694   0.525  10.934  0.4969 -0.1005 -0.1824
  141SAPE   O1215362   4.566   0.406  10.749  0.4089  0.3570 -0.1171
  141SAPE   O1115363   4.571   0.655  10.752  0.1199 -0.1689  0.0984
  141SAPE    C115364   4.476   0.662  10.647 -0.3304  0.3937 -0.0616
  141SAPE    HA15365   4.380   0.609  10.660 -1.9931  2.9837 -1.0763
  141SAPE    HB15366   4.441   0.768  10.644  2.2500  1.3175 -0.1993
  141SAPE    C215367   4.540   0.625  10.508 -0.2269 -0.4782 -0.4842
  141SAPE    HS15368   4.594   0.531  10.530  2.3949  1.0184 -0.1754
  141SAPE   O2115369   4.625   0.741  10.488  0.4938 -0.3772 -0.1572
  141SAPE   C2115370   4.750   0.698  10.450 -0.4941 -0.8544  0.5142
  141SAPE   O2215371   4.791   0.588  10.442  0.3036  0.2912  0.0678
  141SAPE   C2215372   4.842   0.816  10.427  0.2447  0.5407 -0.5789
  141SAPE   H2R15373   4.842   0.882  10.516  1.5426  0.4624 -0.5017
  141SAPE   H2S15374   4.947   0.781  10.423  0.5682  1.4549 -0.2921
  141SAPE    C315375   4.435   0.609  10.392 -0.2185 -0.1737  0.2464
  141SAPE    HX15376   4.390   0.710  10.387 -1.9126 -0.9651 -1.0762
  141SAPE    HY15377   4.360   0.533  10.422 -0.0994  0.0567  1.1693
  141SAPE   O3115378   4.488   0.593  10.262  0.1514 -0.5158  0.1347
  141SAPE   C3115379   4.516   0.468  10.237  0.2107 -0.7425 -0.2137
  141SAPE   O3215380   4.502   0.374  10.314  0.1512  0.0516 -0.1665
  141SAPE   C3215381   4.552   0.457  10.090  0.0871  0.0294  0.3028
  141SAPE   H2X15382   4.598   0.557  10.073  0.7510  0.1461  2.4904
  141SAPE   H2Y15383   4.459   0.437  10.032  0.6156 -1.6062 -0.0184
  141SAPE   C2315384   4.797   0.895  10.303  0.7899  0.3326  0.0671
  141SAPE   H3R15385   4.875   0.974  10.290  1.2723  0.0395  1.1113
  141SAPE   H3S15386   4.707   0.957  10.320 -0.2398 -0.5779 -1.7662
  141SAPE   C2415387   4.771   0.810  10.179 -0.0087  0.6890 -0.8091
  141SAPE   H4R15388   4.721   0.870  10.100  1.6631  0.3574 -2.1701
  141SAPE   H4S15389   4.683   0.747  10.207 -1.0991  2.2268 -0.6415
  141SAPE   C2515390   4.878   0.714  10.137  0.5234 -1.1380  0.4986
  141SAPE   H5R15391   4.940   0.663  10.213 -0.6565 -0.0960  2.2385
  141SAPE   C2615392   4.926   0.696  10.014  0.8817  0.0296  0.2303
  141SAPE   H6R15393   5.013   0.629  10.005  0.5796 -0.5468  1.3365
  141SAPE   C2715394   4.896   0.772   9.884  0.0482  0.5672  0.3914
  141SAPE   H7R15395   4.846   0.869   9.905  0.9524  1.1109  0.0743
  141SAPE   H7S15396   4.826   0.707   9.826 -0.7552  0.9909  0.8723
  141SAPE   C2815397   5.024   0.797   9.806  0.1077  0.5608  0.2078
  141SAPE   H8R15398   5.102   0.862   9.849  1.1900 -1.6448  1.7833
  141SAPE   C2915399   5.043   0.737   9.684  0.0878  0.1709 -0.1298
  141SAPE   H9R15400   5.139   0.751   9.633  1.3661 -1.6703  1.6340
  141SAPE  C21015401   4.948   0.639   9.614 -0.1627  0.0096  0.0150
  141SAPE  H10R15402   4.870   0.699   9.563 -1.6369 -0.7650  1.2902
  141SAPE  H10S15403   4.898   0.571   9.686 -1.7341 -0.7968 -1.7465
  141SAPE  C21115404   5.025   0.545   9.516 -0.0394 -0.1427  0.3046
  141SAPE  H11R15405   5.048   0.448   9.564 -1.1200  0.0379  1.2272
  141SAPE  C21215406   5.066   0.571   9.390  0.4887  0.6754  0.6344
  141SAPE  H12R15407   5.124   0.496   9.334  0.8054  1.0741  0.4228
  141SAPE  C21315408   5.038   0.705   9.322  0.7451 -0.0850 -0.1815
  141SAPE  H13R15409   4.988   0.775   9.392 -0.8505 -0.1222 -1.2189
  141SAPE  H13S15410   4.970   0.688   9.235  2.4802  0.2992 -1.6723
  141SAPE  C21415411   5.166   0.769   9.285  0.3004 -0.2279  0.7726
  141SAPE  H14R15412   5.253   0.750   9.350 -0.1150  0.3646  1.5144
  141SAPE  C21515413   5.180   0.854   9.185 -0.1293 -0.6103 -0.1340
  141SAPE  H15R15414   5.274   0.902   9.154  0.0500 -0.4431  0.6563
  141SAPE  C21615415   5.068   0.898   9.095 -0.2060  0.2094 -0.5188
  141SAPE  H16R15416   5.016   0.984   9.142 -2.4923 -1.2734 -0.2049
  141SAPE  H16S15417   4.997   0.816   9.072 -0.4636  0.0732  0.6884
  141SAPE  C21715418   5.110   0.938   8.956 -0.0780  0.3044 -0.2092
  141SAPE  H17R15419   5.170   1.032   8.957  1.3461 -0.5569 -0.6503
  141SAPE  H17S15420   5.020   0.951   8.892 -0.4023 -1.1292 -0.0802
  141SAPE  C21815421   5.194   0.832   8.882  0.3378  0.1823  0.2181
  141SAPE  H18R15422   5.157   0.731   8.910  1.0439 -0.0995  0.1536
  141SAPE  H18S15423   5.299   0.825   8.919  0.8182  2.1638 -0.6345
  141SAPE  C21915424   5.197   0.842   8.728  0.6068 -0.1519 -0.0040
  141SAPE  H19R15425   5.226   0.947   8.706 -0.6560  0.0424 -0.8559
  141SAPE  H19S15426   5.094   0.820   8.695  1.4211  0.7761 -3.5747
  141SAPE  C22015427   5.299   0.751   8.651  0.6917  0.2003  0.4172
  141SAPE  H20R15428   5.395   0.782   8.698  0.0079  2.9999  0.1319
  141SAPE  H20S15429   5.295   0.771   8.542 -1.0725 -0.2369  0.3661
  141SAPE  H20T15430   5.268   0.645   8.665  1.0284 -0.1546 -1.2941
  141SAPE   C3315431   4.647   0.338  10.057 -0.2001  0.3796 -0.1020
  141SAPE   H3X15432   4.596   0.243  10.083  1.4404 -0.7354 -0.7703
  141SAPE   H3Y15433   4.736   0.336  10.125 -1.4679 -0.6630  1.6182
  141SAPE   C3415434   4.706   0.353   9.912  0.0032  0.1860 -0.9938
  141SAPE   H4X15435   4.784   0.274   9.906  2.2432  1.8134  2.8574
  141SAPE   H4Y15436   4.756   0.452   9.898 -1.0688  1.1242  1.3011
  141SAPE   C3515437   4.605   0.347   9.799  0.0234  0.1248  0.4743
  141SAPE   H5X15438   4.517   0.412   9.818 -0.6336 -0.9865  1.3622
  141SAPE   H5Y15439   4.571   0.242   9.797 -0.5306  0.3138 -0.9458
  141SAPE   C3615440   4.684   0.362   9.663 -0.6320 -0.0611  0.0545
  141SAPE   H6X15441   4.756   0.279   9.647 -2.1371 -1.2368 -0.9067
  141SAPE   H6Y15442   4.735   0.460   9.676  0.3983 -0.8925  3.1571
  141SAPE   C3715443   4.593   0.372   9.537  0.0587 -0.5210 -0.0586
  141SAPE   H7X15444   4.557   0.474   9.511 -1.1253 -1.3356 -1.7877
  141SAPE   H7Y15445   4.506   0.304   9.554 -0.1570 -0.6254 -1.4973
  141SAPE   C3815446   4.675   0.330   9.410  0.3210 -0.2629 -0.6591
  141SAPE   H8X15447   4.693   0.221   9.409  0.6901 -0.2005 -0.9444
  141SAPE   H8Y15448   4.768   0.390   9.417  0.6471 -0.9529  2.5567
  141SAPE   C3915449   4.594   0.361   9.280  0.7903 -0.0441 -0.4699
  141SAPE   H9X15450   4.588   0.471   9.264 -0.8947 -0.0157  0.1649
  141SAPE   H9Y15451   4.496   0.311   9.295  1.5035 -1.0087  1.2601
  141SAPE  C31015452   4.663   0.304   9.156  0.1875 -0.1650  0.2691
  141SAPE  H10X15453   4.683   0.195   9.171 -2.0499 -0.4797  1.3429
  141SAPE  H10Y15454   4.763   0.351   9.143 -1.1864  2.9237  0.0506
  141SAPE  C31115455   4.588   0.315   9.019 -0.4232  0.2648  0.2298
  141SAPE  H11X15456   4.562   0.422   9.009  0.7622  0.6193  0.6984
  141SAPE  H11Y15457   4.502   0.245   9.021  1.6734 -2.5568 -0.4119
  141SAPE  C31215458   4.683   0.273   8.897  0.0573 -0.3913  0.0123
  141SAPE  H12X15459   4.685   0.163   8.887 -0.2891 -0.2304 -2.4792
  141SAPE  H12Y15460   4.784   0.319   8.908  1.4966 -3.5935  1.3060
  141SAPE  C31315461   4.642   0.322   8.759 -0.6659 -0.1591 -0.0303
  141SAPE  H13X15462   4.622   0.431   8.756  1.0991  0.2614  1.6279
  141SAPE  H13Y15463   4.543   0.278   8.735 -0.3326  0.1501 -2.1718
  141SAPE  C31415464   4.749   0.288   8.652  1.0685  0.1778  0.2661
  141SAPE  H14X15465   4.806   0.205   8.698 -0.0141  0.3710  2.0566
  141SAPE  H14Y15466   4.819   0.373   8.636 -1.2771  1.9925 -1.1578
  141SAPE  C31515467   4.699   0.238   8.519  0.1155  0.0023 -0.6153
  141SAPE  H15X15468   4.629   0.154   8.536 -1.4554  1.3324 -0.2748
  141SAPE  H15Y15469   4.780   0.193   8.457  0.3162 -1.4850  0.6474
  141SAPE  C31615470   4.635   0.339   8.425 -0.2198  0.0662 -0.0180
  141SAPE  H16X15471   4.545   0.365   8.483  1.1447 -0.2172  2.3420
  141SAPE  H16Y15472   4.615   0.292   8.326 -2.4785 -1.9452  1.2937
  141SAPE  C31715473   4.720   0.465   8.397 -0.7473 -0.0847  0.4446
  141SAPE  H17X15474   4.819   0.436   8.357  0.0892  0.6439  1.9250
  141SAPE  H17Y15475   4.747   0.514   8.493  1.2600 -0.8737  0.3313
  141SAPE  C31815476   4.654   0.565   8.305 -0.0733 -0.8544  0.9819
  141SAPE  H18X15477   4.661   0.542   8.197  0.1460  2.1763  0.2614
  141SAPE  H18Y15478   4.704   0.663   8.319  0.5238 -1.2074  1.3962
  141SAPE  H18Z15479   4.549   0.570   8.343 -0.1477  0.6410  0.6201
  142SAPE     N15480   6.638   4.074  11.029  0.6527  0.3497 -0.4323
  142SAPE   HN115481   6.697   4.156  11.054  1.8365 -0.8324  0.8543
  142SAPE   HN215482   6.538   4.101  11.023  0.3515 -0.8767 -1.3486
  142SAPE   HN315483   6.653   3.993  11.091  1.9346  0.3457 -0.7190
  142SAPE   C1215484   6.678   4.026  10.892 -0.6744  0.6111 -0.3863
  142SAPE  H12A15485   6.652   4.102  10.815  2.7474  0.1091 -2.2921
  142SAPE  H12B15486   6.619   3.933  10.877  1.7550 -0.7990 -2.2892
  142SAPE   C1115487   6.828   3.979  10.880 -0.2424 -0.1464  0.1319
  142SAPE  H11A15488   6.890   4.071  10.883 -1.9670  1.0592  0.3758
  142SAPE  H11B15489   6.845   3.915  10.791 -0.0643 -0.7772  0.6115
  142SAPE     P15490   6.982   3.818  11.009 -0.3549  0.3979 -0.1896
  142SAPE   O1315491   7.089   3.901  11.054 -0.0308  0.0354  0.0278
  142SAPE   O1415492   6.952   3.693  11.080  0.2729  0.1099  0.1896
  142SAPE   O1215493   6.857   3.903  10.994 -0.2412 -0.1778  0.1506
  142SAPE   O1115494   7.024   3.774  10.866  0.3656  0.0779  0.1752
  142SAPE    C115495   7.145   3.708  10.837  0.3002  0.2068 -0.8214
  142SAPE    HA15496   7.232   3.736  10.900 -0.1521  3.0163 -1.3089
  142SAPE    HB15497   7.116   3.603  10.860  0.7169  0.6989  2.5019
  142SAPE    C215498   7.173   3.729  10.686  0.1830 -0.1126 -0.4011
  142SAPE    HS15499   7.086   3.682  10.636  0.1167  0.1372 -0.5214
  142SAPE   O2115500   7.288   3.654  10.645  0.0212  0.7110  0.3927
  142SAPE   C2115501   7.260   3.521  10.628 -0.4918  0.1576  0.0157
  142SAPE   O2215502   7.162   3.461  10.663 -0.3049 -0.8449 -0.1360
  142SAPE   C2215503   7.383   3.459  10.561 -0.1431  0.0726 -0.0586
  142SAPE   H2R15504   7.431   3.541  10.503  0.2105 -1.5947 -2.2946
  142SAPE   H2S15505   7.450   3.422  10.641 -0.1728  0.5009  0.1657
  142SAPE    C315506   7.196   3.877  10.639  0.3881  0.1796  0.1970
  142SAPE    HX15507   7.287   3.913  10.690  0.1748  0.9621  0.0369
  142SAPE    HY15508   7.118   3.950  10.670  0.6048  0.8139 -0.7049
  142SAPE   O3115509   7.213   3.877  10.491 -0.0093 -0.6184 -0.4466
  142SAPE   C3115510   7.110   3.836  10.423  0.1562  0.7698 -0.2159
  142SAPE   O3215511   6.997   3.806  10.465 -0.6189 -0.4552 -0.1620
  142SAPE   C3215512   7.155   3.808  10.283  0.1769  0.7047  0.3004
  142SAPE   H2X15513   7.266   3.807  10.282  0.2393 -2.2439 -0.6882
  142SAPE   H2Y15514   7.109   3.881  10.213 -0.3421  2.2412  2.1732
  142SAPE   C2315515   7.338   3.354  10.448 -0.0307 -0.1274  0.2935
  142SAPE   H3R15516   7.423   3.347  10.376  0.7975  3.1183  0.8008
  142SAPE   H3S15517   7.248   3.387  10.392 -0.1284  0.5965  0.8722
  142SAPE   C2415518   7.300   3.215  10.503  0.2570 -0.4621  0.5083
  142SAPE   H4R15519   7.272   3.140  10.426  2.1468 -0.7763  0.0587
  142SAPE   H4S15520   7.205   3.230  10.557 -1.3130 -1.2447 -1.8788
  142SAPE   C2515521   7.412   3.157  10.580 -0.2159 -0.4241 -0.6185
  142SAPE   H5R15522   7.429   3.202  10.678  0.3035 -2.2549  0.1813
  142SAPE   C2615523   7.504   3.068  10.529 -0.8934  0.4207 -0.4169
  142SAPE   H6R15524   7.580   3.036  10.602 -0.5854  0.5138 -0.6950
  142SAPE   C2715525   7.512   3.006  10.397  0.3510  0.0822  0.6431
  142SAPE   H7R15526   7.594   3.056  10.341 -1.6076  1.7158 -0.9629
  142SAPE   H7S15527   7.422   3.027  10.335  1.5660 -0.6317 -1.5094
  142SAPE   C2815528   7.522   2.854  10.399  0.1435  0.1831 -0.0542
  142SAPE   H8R15529   7.552   2.809  10.495  0.0671  3.6372  1.7462
  142SAPE   C2915530   7.525   2.768  10.294  0.0701 -0.3124 -0.0799
  142SAPE   H9R15531   7.536   2.660  10.312  2.9652  0.0267  0.7015
  142SAPE  C21015532   7.506   2.805  10.152  0.3060  0.2719 -0.3768
  142SAPE  H10R15533   7.588   2.755  10.096  0.5123  0.3031 -0.1021
  142SAPE  H10S15534   7.528   2.914  10.142 -0.5413  0.3174 -2.3094
  142SAPE  C21115535   7.368   2.779  10.095 -0.2184 -0.8403  0.5030
  142SAPE  H11R15536   7.279   2.768  10.158  0.0300  0.9131  1.1972
  142SAPE  C21215537   7.348   2.766   9.958 -0.3269 -0.4911 -0.3439
  142SAPE  H12R15538   7.245   2.761   9.921 -0.6771 -0.7933  0.6410
  142SAPE  C21315539   7.456   2.782   9.854  0.1441 -0.1087 -0.5389
  142SAPE  H13R15540   7.503   2.682   9.867  0.3918 -0.2300 -2.1526
  142SAPE  H13S15541   7.529   2.857   9.892  0.0382 -0.5592  0.5919
  142SAPE  C21415542   7.400   2.819   9.723  0.4304 -0.4589  0.0894
  142SAPE  H14R15543   7.401   2.924   9.689 -0.3870 -0.5316 -0.1834
  142SAPE  C21515544   7.347   2.730   9.637  0.3428  0.6428 -0.7983
  142SAPE  H15R15545   7.318   2.761   9.536 -0.3233 -1.1114 -1.1842
  142SAPE  C21615546   7.338   2.577   9.661  0.2821 -0.7553 -0.3011
  142SAPE  H16R15547   7.254   2.572   9.733 -0.6796  2.7203 -1.0043
  142SAPE  H16S15548   7.420   2.532   9.721 -0.1756 -0.2081  0.7839
  142SAPE  C21715549   7.327   2.494   9.534  0.4766 -0.2717 -0.0486
  142SAPE  H17R15550   7.223   2.494   9.497  0.5103 -0.7736 -0.1495
  142SAPE  H17S15551   7.340   2.386   9.557 -0.1862 -0.4620 -0.5418
  142SAPE  C21815552   7.422   2.521   9.414  0.2152 -0.2611  0.1619
  142SAPE  H18R15553   7.524   2.521   9.458 -0.0219  3.0480  0.9848
  142SAPE  H18S15554   7.398   2.622   9.375  1.0381  0.7642  2.1418
  142SAPE  C21915555   7.405   2.424   9.302 -0.4720 -0.2328  0.7609
  142SAPE  H19R15556   7.313   2.367   9.322 -0.3816 -0.5899  0.1840
  142SAPE  H19S15557   7.491   2.354   9.311 -1.1592 -1.2685 -0.3888
  142SAPE  C22015558   7.407   2.488   9.158  0.2724  0.2181  0.1656
  142SAPE  H20R15559   7.507   2.536   9.151  0.3151  0.4715  2.0621
  142SAPE  H20S15560   7.327   2.559   9.130 -1.0678 -1.2417  0.1636
  142SAPE  H20T15561   7.418   2.404   9.085  2.1007 -0.6391  1.3401
  142SAPE   C3315562   7.127   3.655  10.248 -0.1676 -0.7196  0.1908
  142SAPE   H3X15563   7.018   3.637  10.233 -0.1780 -1.2596  0.8804
  142SAPE   H3Y15564   7.166   3.583  10.324 -1.7473 -4.1421 -1.9701
  142SAPE   C3415565   7.202   3.611  10.121 -0.1613 -0.4853  0.1083
  142SAPE   H4X15566   7.174   3.507  10.095 -4.5627  0.4341  0.4676
  142SAPE   H4Y15567   7.312   3.616  10.139 -0.1099  2.1958 -0.5774
  142SAPE   C3515568   7.174   3.693   9.995  0.8923  0.4972  0.6003
  142SAPE   H5X15569   7.180   3.803  10.011  0.7176  0.4457  1.0389
  142SAPE   H5Y15570   7.067   3.690   9.964  0.9017  0.5312  0.5644
  142SAPE   C3615571   7.257   3.649   9.872 -0.1895  0.4185  0.1760
  142SAPE   H6X15572   7.223   3.550   9.836  1.8689 -0.8863  1.5707
  142SAPE   H6Y15573   7.359   3.638   9.913 -0.1448 -0.9420 -0.2543
  142SAPE   C3715574   7.254   3.749   9.751  0.1249 -0.1538 -0.8846
  142SAPE   H7X15575   7.355   3.733   9.708  0.5651  0.3934 -0.0739
  142SAPE   H7Y15576   7.245   3.855   9.781  2.4963  0.4833 -2.1703
  142SAPE   C3815577   7.149   3.707   9.645  0.5283 -0.3177  0.3280
  142SAPE   H8X15578   7.050   3.720   9.695  0.1959  0.5348 -0.5240
  142SAPE   H8Y15579   7.148   3.598   9.627 -1.6900 -0.4933  1.2253
  142SAPE   C3915580   7.146   3.792   9.519 -0.0675 -0.4023  0.9544
  142SAPE   H9X15581   7.105   3.893   9.541 -0.4045 -0.6271  1.3779
  142SAPE   H9Y15582   7.085   3.744   9.440 -0.4710 -2.8002  2.6115
  142SAPE  C31015583   7.286   3.816   9.456  0.3368  0.2694 -0.6778
  142SAPE  H10X15584   7.340   3.724   9.424  0.9437  0.3364  0.1285
  142SAPE  H10Y15585   7.352   3.879   9.519  0.6251 -0.0296 -0.6776
  142SAPE  C31115586   7.262   3.889   9.327  0.2824  0.6154  0.5723
  142SAPE  H11X15587   7.216   3.984   9.359 -1.2508  0.5432 -1.2335
  142SAPE  H11Y15588   7.183   3.840   9.266 -1.0537 -0.4575  3.0416
  142SAPE  C31215589   7.388   3.908   9.235  0.3097 -0.0832  0.1570
  142SAPE  H12X15590   7.411   3.812   9.183  1.2020  0.1673  0.0813
  142SAPE  H12Y15591   7.470   3.952   9.296 -1.7557  0.3622  2.8019
  142SAPE  C31315592   7.352   4.006   9.121 -0.0976 -0.4085  0.3614
  142SAPE  H13X15593   7.406   4.098   9.151 -0.6598  0.2379 -0.5384
  142SAPE  H13Y15594   7.241   4.014   9.130 -0.0884 -0.5306  0.5883
  142SAPE  C31415595   7.392   3.961   8.984 -0.1034 -0.2239  0.0792
  142SAPE  H14X15596   7.329   4.011   8.908 -1.1109 -2.6104 -0.7348
  142SAPE  H14Y15597   7.358   3.856   8.987 -0.3249 -0.1483  0.2528
  142SAPE  C31515598   7.537   3.990   8.945 -0.0591 -0.1098  0.0316
  142SAPE  H15X15599   7.546   3.957   8.839  0.0321  0.0858 -0.0208
  142SAPE  H15Y15600   7.611   3.933   9.007  1.1500  1.5310  0.1651
  142SAPE  C31615601   7.584   4.143   8.958  0.2861  0.3653 -0.6616
  142SAPE  H16X15602   7.596   4.172   9.065  1.0084  0.5396 -0.7865
  142SAPE  H16Y15603   7.503   4.210   8.921 -1.8203 -0.3094  2.3338
  142SAPE  C31715604   7.723   4.175   8.898 -0.2527 -0.0059  0.1594
  142SAPE  H17X15605   7.727   4.138   8.794 -1.9956  1.8001 -0.6090
  142SAPE  H17Y15606   7.799   4.122   8.960 -1.6503 -1.1360  0.9703
  142SAPE  C31815607   7.750   4.321   8.898 -0.3684 -0.1580  0.1026
  142SAPE  H18X15608   7.843   4.328   8.837  0.1547  0.2418  0.9334
  142SAPE  H18Y15609   7.751   4.379   8.992  2.8960 -0.9154  0.6331
  142SAPE  H18Z15610   7.680   4.367   8.824 -0.1846  0.7653  0.4885
  143SAPE     N15611   1.510   5.191  11.126 -0.0509 -0.5237 -0.2418
  143SAPE   HN115612   1.454   5.166  11.210  2.9942 -2.0013  1.5059
  143SAPE   HN215613   1.591   5.126  11.129  0.9427  0.6999  1.6556
  143SAPE   HN315614   1.553   5.286  11.127  0.8703 -0.8689 -2.4385
  143SAPE   C1215615   1.425   5.179  11.004  0.6012 -0.6223  0.0429
  143SAPE  H12A15616   1.463   5.250  10.927 -0.9453  0.4397  0.2075
  143SAPE  H12B15617   1.330   5.227  11.037  0.7758 -0.4914  0.3579
  143SAPE   C1115618   1.413   5.035  10.961 -0.5564 -0.2264  0.7821
  143SAPE  H11A15619   1.519   5.002  10.957  0.1857  1.0032  5.3311
  143SAPE  H11B15620   1.377   5.019  10.856  0.7370 -1.8860  0.5448
  143SAPE     P15621   1.192   4.931  11.032  0.1542  0.1208  0.4043
  143SAPE   O1315622   1.150   4.803  11.087  0.1146  0.4350  0.0884
  143SAPE   O1415623   1.130   5.055  11.090  0.3824 -0.2830  0.1118
  143SAPE   O1215624   1.345   4.943  11.048 -0.0557  0.7851  0.0581
  143SAPE   O1115625   1.167   4.924  10.875  0.5297 -0.1022  0.3775
  143SAPE    C115626   1.194   4.818  10.793  0.5731  0.1198 -0.3696
  143SAPE    HA15627   1.288   4.769  10.826  1.3838  1.5987 -0.4076
  143SAPE    HB15628   1.110   4.746  10.803 -1.2021  1.9015 -1.5813
  143SAPE    C215629   1.209   4.862  10.648  0.3481  0.5131  0.2929
  143SAPE    HS15630   1.304   4.913  10.622  0.0037  0.9333 -0.1719
  143SAPE   O2115631   1.096   4.949  10.614  0.7480  0.2696  0.2423
  143SAPE   C2115632   1.109   5.057  10.538  0.0874 -0.0330  0.3238
  143SAPE   O2215633   1.209   5.095  10.482 -0.1304  0.4365 -0.2062
  143SAPE   C2215634   0.990   5.144  10.534  0.1711 -0.3084 -0.5743
  143SAPE   H2R15635   0.895   5.086  10.531 -0.3846  0.3956  1.5899
  143SAPE   H2S15636   0.987   5.199  10.630 -0.4207 -0.5718 -0.4352
  143SAPE    C315637   1.199   4.732  10.557  0.1741 -1.0641  0.3211
  143SAPE    HX15638   1.102   4.686  10.586 -0.7667 -0.9454 -2.3663
  143SAPE    HY15639   1.291   4.675  10.585 -0.8687 -1.7764  2.5288
  143SAPE   O3115640   1.195   4.755  10.422  0.1839  0.0404 -0.2831
  143SAPE   C3115641   1.311   4.767  10.357 -0.3341 -0.4567  0.0471
  143SAPE   O3215642   1.421   4.749  10.406  0.0671  0.1266  0.7915
  143SAPE   C3215643   1.286   4.794  10.209 -0.1361  0.2749  0.6963
  143SAPE   H2X15644   1.210   4.875  10.201 -1.0233 -0.2776  2.6872
  143SAPE   H2Y15645   1.243   4.703  10.162 -3.2307  0.2525  3.1919
  143SAPE   C2315646   0.988   5.246  10.415 -0.0236 -0.8269  0.0933
  143SAPE   H3R15647   1.022   5.196  10.321  0.5844 -1.2204  0.5211
  143SAPE   H3S15648   1.068   5.320  10.435 -0.3766 -0.4461  0.1094
  143SAPE   C2415649   0.855   5.327  10.412 -0.0304 -0.7136 -0.0137
  143SAPE   H4R15650   0.849   5.381  10.509 -3.0514 -1.6755  0.4428
  143SAPE   H4S15651   0.768   5.258  10.418  0.6648 -1.5413  0.8621
  143SAPE   C2515652   0.836   5.424  10.295 -0.2450 -0.2826 -0.3249
  143SAPE   H5R15653   0.864   5.527  10.320 -1.0656  0.3563 -1.8752
  143SAPE   C2615654   0.781   5.399  10.175  0.9383  0.1800  0.0925
  143SAPE   H6R15655   0.785   5.478  10.098 -0.0246  0.8854  0.7497
  143SAPE   C2715656   0.727   5.263  10.124  0.0663  0.0856 -1.5804
  143SAPE   H7R15657   0.740   5.184  10.200  0.2917  3.5158  2.2632
  143SAPE   H7S15658   0.786   5.220  10.040 -1.9972 -3.8096 -1.2426
  143SAPE   C2815659   0.580   5.274  10.101 -0.5805 -0.6447  0.6610
  143SAPE   H8R15660   0.515   5.269  10.189 -0.5347  1.3504  0.8531
  143SAPE   C2915661   0.528   5.286   9.980 -0.1454  0.2869 -0.2021
  143SAPE   H9R15662   0.418   5.296   9.974 -0.2287  0.9199  1.7723
  143SAPE  C21015663   0.602   5.296   9.845  0.0621 -1.0326  0.8643
  143SAPE  H10R15664   0.603   5.198   9.793 -2.3195 -0.1925 -0.9621
  143SAPE  H10S15665   0.707   5.317   9.874  0.9582 -1.6997 -1.6174
  143SAPE  C21115666   0.542   5.402   9.751  0.4690  1.3634 -0.3116
  143SAPE  H11R15667   0.491   5.479   9.810 -0.5761  1.6944 -1.6059
  143SAPE  C21215668   0.540   5.408   9.620 -0.0757 -0.5887  0.0248
  143SAPE  H12R15669   0.487   5.490   9.570  3.6280  0.5879 -2.3170
  143SAPE  C21315670   0.604   5.306   9.527  0.2224 -0.7265  0.0039
  143SAPE  H13R15671   0.543   5.309   9.434  0.2050  0.3039  0.0354
  143SAPE  H13S15672   0.586   5.208   9.575  1.4468  0.7698  3.8473
  143SAPE  C21415673   0.746   5.319   9.495 -0.2979  0.7590 -0.5985
  143SAPE  H14R15674   0.796   5.402   9.549 -2.4631  0.6732  1.7383
  143SAPE  C21515675   0.808   5.232   9.415  0.2149 -0.1541  0.1753
  143SAPE  H15R15676   0.914   5.255   9.396 -0.3172  0.4172 -2.7092
  143SAPE  C21615677   0.748   5.111   9.342  0.5466 -0.1603 -0.1227
  143SAPE  H16R15678   0.638   5.096   9.335  0.5009 -0.6262  1.3171
  143SAPE  H16S15679   0.786   5.013   9.377 -0.2873 -1.0315 -1.5311
  143SAPE  C21715680   0.809   5.119   9.200  0.7339 -0.0626 -0.2318
  143SAPE  H17R15681   0.783   5.025   9.147  1.8360  0.3427 -1.5747
  143SAPE  H17S15682   0.919   5.131   9.187  0.4548  1.0552 -2.0743
  143SAPE  C21815683   0.737   5.232   9.115 -0.1764  0.3534 -0.3832
  143SAPE  H18R15684   0.746   5.324   9.177  1.6955  0.5176 -0.8622
  143SAPE  H18S15685   0.629   5.204   9.114  0.2827 -1.5380  0.0119
  143SAPE  C21915686   0.801   5.254   8.983  0.7796 -0.8919  0.1967
  143SAPE  H19R15687   0.781   5.160   8.927  1.9554 -0.2987 -1.2937
  143SAPE  H19S15688   0.912   5.258   8.988  0.8334  1.2182 -1.4260
  143SAPE  C22015689   0.751   5.381   8.912  0.3379  0.9355 -0.1987
  143SAPE  H20R15690   0.758   5.357   8.804  1.0655 -1.9615  0.4058
  143SAPE  H20S15691   0.808   5.473   8.939  0.7859  0.2760  1.2157
  143SAPE  H20T15692   0.644   5.391   8.941 -0.6811 -2.6903 -2.0153
  143SAPE   C3315693   1.414   4.832  10.138 -0.2172  0.6700 -0.1069
  143SAPE   H3X15694   1.504   4.778  10.174 -0.8141 -0.4398 -0.2275
  143SAPE   H3Y15695   1.429   4.938  10.167 -2.9149  0.9436  0.5457
  143SAPE   C3415696   1.398   4.825   9.984 -0.0494 -0.1255  0.3551
  143SAPE   H4X15697   1.300   4.871   9.960  0.0563 -0.6298 -1.1607
  143SAPE   H4Y15698   1.390   4.716   9.960  2.8236 -0.4181  0.3600
  143SAPE   C3515699   1.518   4.883   9.902 -0.5222 -0.2462 -0.5510
  143SAPE   H5X15700   1.607   4.824   9.932 -0.4199  0.6161  0.9515
  143SAPE   H5Y15701   1.533   4.986   9.942  0.3097  0.7078 -3.1429
  143SAPE   C3615702   1.499   4.886   9.758  0.4639 -0.4608  0.3684
  143SAPE   H6X15703   1.406   4.936   9.723 -1.1764 -1.6982  2.6960
  143SAPE   H6Y15704   1.486   4.778   9.733  1.3201 -0.7425  1.0896
  143SAPE   C3715705   1.612   4.944   9.669  0.3848  0.2867 -0.5989
  143SAPE   H7X15706   1.707   4.905   9.711  1.5498  1.2710 -2.2000
  143SAPE   H7Y15707   1.623   5.052   9.695 -0.5240  0.1357  0.5169
  143SAPE   C3815708   1.598   4.921   9.513  0.7972  0.3542  0.3605
  143SAPE   H8X15709   1.679   4.983   9.468  1.3768 -0.1298  0.7157
  143SAPE   H8Y15710   1.502   4.958   9.472 -0.0430 -2.3486 -0.3261
  143SAPE   C3915711   1.625   4.772   9.476 -0.4689 -0.8212  0.1592
  143SAPE   H9X15712   1.526   4.722   9.478 -0.2434 -1.8444 -3.9191
  143SAPE   H9Y15713   1.691   4.730   9.555  1.0131  0.0386 -0.5680
  143SAPE  C31015714   1.678   4.751   9.327 -0.0667 -0.3688  0.2206
  143SAPE  H10X15715   1.767   4.817   9.319 -0.5265 -0.0053 -3.3281
  143SAPE  H10Y15716   1.604   4.780   9.249  1.3195 -1.5806 -1.6017
  143SAPE  C31115717   1.729   4.608   9.291  0.1773 -0.2473  0.0036
  143SAPE  H11X15718   1.653   4.534   9.325 -0.8136  0.8600  0.2349
  143SAPE  H11Y15719   1.822   4.593   9.350 -0.0160  0.9092  0.6149
  143SAPE  C31215720   1.769   4.588   9.144 -0.6257  0.8073  0.1295
  143SAPE  H12X15721   1.683   4.622   9.082  0.1041  0.6266 -1.0031
  143SAPE  H12Y15722   1.779   4.480   9.120  1.2070  0.0676  3.6178
  143SAPE  C31315723   1.901   4.663   9.107 -0.1993  0.2853 -0.7067
  143SAPE  H13X15724   1.974   4.624   9.181 -0.5765  0.9169  0.0065
  143SAPE  H13Y15725   1.883   4.770   9.129  0.5330  0.0738  1.0994
  143SAPE  C31415726   1.956   4.650   8.963 -0.4718 -0.1284  0.6144
  143SAPE  H14X15727   1.894   4.693   8.882  1.0360 -0.7611 -0.9512
  143SAPE  H14Y15728   1.957   4.541   8.942  0.7890  0.4028 -2.7568
  143SAPE  C31515729   2.104   4.710   8.957 -0.1167  0.6196 -0.1347
  143SAPE  H15X15730   2.162   4.640   9.021 -0.7284 -0.2007 -0.4440
  143SAPE  H15Y15731   2.096   4.814   8.996 -0.6796  0.7342 -0.5420
  143SAPE  C31615732   2.173   4.710   8.816 -0.4469  0.4013  0.3505
  143SAPE  H16X15733   2.120   4.771   8.740  0.9469 -0.7854 -1.6660
  143SAPE  H16Y15734   2.159   4.604   8.787 -0.9526 -0.1634  2.4455
  143SAPE  C31715735   2.328   4.738   8.827 -0.1374  0.4995  0.0046
  143SAPE  H17X15736   2.388   4.693   8.909  0.4895  1.4999  0.1228
  143SAPE  H17Y15737   2.347   4.846   8.847 -1.6541  0.5890  1.1307
  143SAPE  C31815738   2.389   4.711   8.688 -0.1002 -0.7455 -0.2938
  143SAPE  H18X15739   2.500   4.718   8.693 -0.0925 -0.6681 -0.5563
  143SAPE  H18Y15740   2.348   4.784   8.615  0.8098  0.0574 -0.0154
  143SAPE  H18Z15741   2.369   4.603   8.666 -1.6237 -1.2409  2.9407
  144SAPE     N15742   6.172   4.518  11.113  0.0989  0.5265  0.4612
  144SAPE   HN115743   6.096   4.463  11.158  0.0725 -1.4284 -1.7354
  144SAPE   HN215744   6.212   4.445  11.051 -0.6263 -0.8630  1.5746
  144SAPE   HN315745   6.244   4.546  11.182  2.0199 -0.5079 -1.0186
  144SAPE   C1215746   6.122   4.639  11.037 -0.7010 -1.0176 -1.3274
  144SAPE  H12A15747   6.196   4.696  10.977 -1.3683  2.3652  0.7905
  144SAPE  H12B15748   6.094   4.703  11.123 -0.5122 -1.9721 -0.5429
  144SAPE   C1115749   5.989   4.600  10.964 -0.1836  0.4341  0.0080
  144SAPE  H11A15750   6.015   4.519  10.891  0.6999 -0.0379  0.8298
  144SAPE  H11B15751   5.950   4.689  10.910  0.0813 -0.5205 -1.8323
  144SAPE     P15752   5.771   4.480  11.010 -0.5910 -0.3500  0.0302
  144SAPE   O1315753   5.743   4.365  11.100  0.3080 -0.6628  0.9362
  144SAPE   O1415754   5.677   4.597  11.014  0.3737  0.5828 -0.1157
  144SAPE   O1215755   5.905   4.552  11.062 -0.1837  0.0494 -1.2195
  144SAPE   O1115756   5.788   4.435  10.859  1.0311 -0.2015 -0.2572
  144SAPE    C115757   5.669   4.432  10.773 -0.2308  0.2028 -0.4689
  144SAPE    HA15758   5.625   4.330  10.768  0.6851 -0.3508  1.6733
  144SAPE    HB15759   5.599   4.511  10.808  1.7322  1.4885  0.7288
  144SAPE    C215760   5.712   4.459  10.631  0.6807  0.4425  0.6058
  144SAPE    HS15761   5.622   4.472  10.567  0.6739  0.5378  0.6331
  144SAPE   O2115762   5.786   4.344  10.585  0.6521 -0.2582  0.1573
  144SAPE   C2115763   5.715   4.239  10.536 -0.7133 -0.1230  0.1095
  144SAPE   O2215764   5.595   4.231  10.534 -0.3791 -0.0081  0.1867
  144SAPE   C2215765   5.810   4.128  10.491  0.6689  1.0662  0.7583
  144SAPE   H2R15766   5.908   4.137  10.542  0.3435  3.4228  1.0699
  144SAPE   H2S15767   5.762   4.036  10.530 -2.8407  2.9365  1.2607
  144SAPE    C315768   5.798   4.590  10.608 -0.6990 -0.1316  0.0613
  144SAPE    HX15769   5.871   4.606  10.690  1.7587  2.7081 -2.4246
  144SAPE    HY15770   5.723   4.671  10.621 -1.1836 -0.6474  0.5715
  144SAPE   O3115771   5.867   4.596  10.476  0.8293 -0.1059  0.4728
  144SAPE   C3115772   5.976   4.664  10.481 -0.4469 -0.2248  0.8985
  144SAPE   O3215773   6.036   4.708  10.574  0.6051  0.0773 -1.2772
  144SAPE   C3215774   6.026   4.659  10.331  0.3393  0.7645 -0.3231
  144SAPE   H2X15775   5.950   4.714  10.272  0.2858 -0.0538 -1.0310
  144SAPE   H2Y15776   6.023   4.555  10.292 -1.9446  1.3161 -1.8007
  144SAPE   C2315777   5.815   4.119  10.332 -0.8629  0.4380  0.7073
  144SAPE   H3R15778   5.714   4.146  10.293 -0.5857 -0.3234 -0.5996
  144SAPE   H3S15779   5.830   4.013  10.303 -0.0976  0.2632  1.6964
  144SAPE   C2415780   5.916   4.216  10.269 -0.2697 -0.5666 -0.0235
  144SAPE   H4R15781   5.987   4.163  10.202  1.2653  0.0595  1.0779
  144SAPE   H4S15782   5.972   4.264  10.352  1.4247 -1.4869 -0.5869
  144SAPE   C2515783   5.844   4.327  10.185  0.3036  0.3743 -0.9125
  144SAPE   H5R15784   5.787   4.402  10.242 -0.5828 -0.1378 -1.1105
  144SAPE   C2615785   5.860   4.350  10.052  0.2603  0.8744 -0.4418
  144SAPE   H6R15786   5.807   4.437  10.010  1.3521  2.0080  0.4473
  144SAPE   C2715787   5.959   4.289   9.964 -0.0549 -0.5742 -1.3179
  144SAPE   H7R15788   6.019   4.208  10.010  0.1380  0.7371  0.8678
  144SAPE   H7S15789   6.030   4.370   9.936 -0.5332  0.9525  1.5131
  144SAPE   C2815790   5.882   4.231   9.841  0.3800 -0.4779 -0.2031
  144SAPE   H8R15791   5.790   4.177   9.865  3.0844 -4.0873  3.5091
  144SAPE   C2915792   5.922   4.234   9.716 -0.3480  0.4068 -0.8894
  144SAPE   H9R15793   5.876   4.163   9.646  0.6555 -1.7684  0.5501
  144SAPE  C21015794   6.055   4.292   9.660 -0.4667 -0.1616 -0.3523
  144SAPE  H10R15795   6.103   4.215   9.597 -1.0931 -0.1557 -0.8481
  144SAPE  H10S15796   6.125   4.313   9.744 -1.2298  1.7988 -0.1608
  144SAPE  C21115797   6.042   4.416   9.575  0.2891 -0.1958 -0.6222
  144SAPE  H11R15798   6.030   4.508   9.635 -2.2803 -0.6208 -0.4012
  144SAPE  C21215799   6.035   4.417   9.440  0.2564  0.6948  0.2364
  144SAPE  H12R15800   6.011   4.512   9.389 -0.6727  0.2739 -0.1391
  144SAPE  C21315801   6.047   4.304   9.344 -0.4733 -0.3756 -0.3276
  144SAPE  H13R15802   5.953   4.266   9.299  0.9496 -1.5876 -2.5325
  144SAPE  H13S15803   6.082   4.210   9.393 -1.0515  0.3062  1.4635
  144SAPE  C21415804   6.143   4.352   9.237  0.2591 -0.2240  0.7090
  144SAPE  H14R15805   6.243   4.378   9.274  0.0102 -0.1985  1.3985
  144SAPE  C21515806   6.117   4.356   9.105 -0.2088  0.5416 -0.2816
  144SAPE  H15R15807   6.185   4.398   9.030 -2.4651 -0.6806 -3.1815
  144SAPE  C21615808   5.995   4.305   9.033 -0.0059  0.2593 -0.4416
  144SAPE  H16R15809   5.906   4.356   9.075 -0.9752 -0.1651 -1.9058
  144SAPE  H16S15810   5.973   4.197   9.050 -0.5107  0.4895  0.3956
  144SAPE  C21715811   6.004   4.330   8.876 -0.0269  0.0446 -0.6589
  144SAPE  H17R15812   6.002   4.439   8.858 -1.1956 -0.1741 -2.0369
  144SAPE  H17S15813   5.910   4.283   8.840 -0.5493  1.0211 -0.6034
  144SAPE  C21815814   6.118   4.242   8.812 -0.3462  0.3047  0.2156
  144SAPE  H18R15815   6.141   4.163   8.887 -1.9981 -0.2571  0.1675
  144SAPE  H18S15816   6.211   4.294   8.780  0.2989 -0.8507  0.1740
  144SAPE  C21915817   6.053   4.183   8.683 -0.5143  0.5075  0.2700
  144SAPE  H19R15818   6.005   4.264   8.625  2.1556  2.4514  0.5806
  144SAPE  H19S15819   5.977   4.109   8.717  1.2391 -0.4841  2.2965
  144SAPE  C22015820   6.146   4.107   8.595  0.6716 -0.0461  0.3944
  144SAPE  H20R15821   6.208   4.170   8.528  0.6859 -0.2595  0.2050
  144SAPE  H20S15822   6.088   4.032   8.537  1.3738 -3.0945  3.3298
  144SAPE  H20T15823   6.188   4.025   8.658 -2.7040 -1.6401  0.8363
  144SAPE   C3315824   6.163   4.717  10.299 -0.1088  0.0688 -0.0408
  144SAPE   H3X15825   6.240   4.662  10.358  0.5392  0.3743 -0.5814
  144SAPE   H3Y15826   6.171   4.824  10.327  0.2550  0.9122 -3.0585
  144SAPE   C3415827   6.206   4.688  10.152  0.2421 -0.2667  0.4864
  144SAPE   H4X15828   6.255   4.589  10.143  1.5559  0.5051 -1.5750
  144SAPE   H4Y15829   6.272   4.773  10.125 -0.0594  0.3351  1.5799
  144SAPE   C3515830   6.091   4.711  10.046 -0.8709  0.7133  0.0810
  144SAPE   H5X15831   6.028   4.802  10.062 -1.2144  0.8953 -2.0656
  144SAPE   H5Y15832   6.025   4.624  10.066 -1.3928  0.9674 -0.5278
  144SAPE   C3615833   6.131   4.673   9.905  0.5745  0.3016 -0.1564
  144SAPE   H6X15834   6.043   4.701   9.843  1.3519  3.3710 -0.0483
  144SAPE   H6Y15835   6.140   4.562   9.901  0.9544  0.2887  0.7973
  144SAPE   C3715836   6.249   4.742   9.840 -0.1727  0.1952 -0.2579
  144SAPE   H7X15837   6.341   4.731   9.902 -1.6159 -4.0180  1.4701
  144SAPE   H7Y15838   6.236   4.852   9.830  0.1440  0.0798 -2.3985
  144SAPE   C3815839   6.271   4.691   9.697  0.3975  0.2140  0.4313
  144SAPE   H8X15840   6.179   4.673   9.637  1.3234  0.8971 -1.2674
  144SAPE   H8Y15841   6.339   4.604   9.685 -0.6262 -0.7836  1.5528
  144SAPE   C3915842   6.343   4.805   9.619  0.1823 -0.4920  0.1235
  144SAPE   H9X15843   6.406   4.856   9.695 -1.4437  2.1732 -0.1904
  144SAPE   H9Y15844   6.269   4.881   9.587 -0.7479 -0.0663  3.0099
  144SAPE  C31015845   6.429   4.747   9.505 -0.1319  0.2151  0.1437
  144SAPE  H10X15846   6.492   4.671   9.556 -2.5556 -1.3901  0.9394
  144SAPE  H10Y15847   6.504   4.820   9.469  1.7859 -1.0713  1.3474
  144SAPE  C31115848   6.346   4.666   9.397  0.1753 -0.1085 -0.5798
  144SAPE  H11X15849   6.275   4.589   9.433 -0.5643  1.8646  2.6988
  144SAPE  H11Y15850   6.420   4.617   9.330 -1.0556 -2.6943 -0.1525
  144SAPE  C31215851   6.254   4.764   9.317  0.1051 -0.8354  0.9258
  144SAPE  H12X15852   6.308   4.859   9.295 -1.9229  0.6718  2.0939
  144SAPE  H12Y15853   6.175   4.807   9.382  1.3186  0.3759  1.6622
  144SAPE  C31315854   6.207   4.698   9.184  0.3862  0.8510  0.3307
  144SAPE  H13X15855   6.132   4.620   9.210  1.8509 -1.2503 -1.3430
  144SAPE  H13Y15856   6.294   4.642   9.142 -0.5810 -0.5234  0.0719
  144SAPE  C31415857   6.153   4.803   9.077  0.0401  0.1357 -0.1125
  144SAPE  H14X15858   6.242   4.861   9.045 -0.5221  1.1994  0.1977
  144SAPE  H14Y15859   6.075   4.868   9.123 -1.1568 -0.5870 -1.0597
  144SAPE  C31515860   6.085   4.735   8.959 -0.1302 -0.8357  0.3393
  144SAPE  H15X15861   6.012   4.656   8.987  1.4125 -2.1451  0.7755
  144SAPE  H15Y15862   6.160   4.670   8.910 -0.7333 -0.8106 -0.6505
  144SAPE  C31615863   6.021   4.832   8.863 -0.9993  0.2450 -0.0229
  144SAPE  H16X15864   6.093   4.912   8.839  1.3045 -1.6492  0.2396
  144SAPE  H16Y15865   5.938   4.877   8.921  0.7065  1.9952  1.1805
  144SAPE  C31715866   5.975   4.767   8.731 -0.6419 -0.5122 -0.2476
  144SAPE  H17X15867   5.887   4.702   8.747 -0.3319 -1.5716 -2.4757
  144SAPE  H17Y15868   6.052   4.692   8.702 -0.1353 -0.9229  1.9283
  144SAPE  C31815869   5.941   4.866   8.617  1.0225  0.5423  0.0545
  144SAPE  H18X15870   5.849   4.924   8.638  0.2893 -0.6465  0.2011
  144SAPE  H18Y15871   5.932   4.805   8.525  0.4917  0.7983 -0.0653
  144SAPE  H18Z15872   6.024   4.938   8.602  0.5135  0.9024 -1.1017
  145SAPE     N15873   0.032   3.570  11.282  0.8420  0.2194  0.5326
  145SAPE   HN115874   0.034   3.466  11.280  0.8824  0.2224 -1.3162
  145SAPE   HN215875   0.078   3.617  11.202  0.1660  2.2392  1.2499
  145SAPE   HN315876   0.078   3.589  11.373 -1.2458 -1.2247  1.9785
  145SAPE   C1215877  -0.121   3.608  11.283  0.2793 -0.2692  0.2829
  145SAPE  H12A15878  -0.119   3.713  11.320  1.5859 -1.1051  2.8691
  145SAPE  H12B15879  -0.167   3.546  11.363  1.7191 -0.8959  0.6605
  145SAPE   C1115880  -0.181   3.597  11.142  0.3750  0.3238 -0.4353
  145SAPE  H11A15881  -0.153   3.502  11.091  0.1219 -0.3485  0.6358
  145SAPE  H11B15882  -0.131   3.679  11.088  1.1457  0.7780  0.9202
  145SAPE     P15883  -0.392   3.753  11.123  0.3192  0.1713 -0.8130
  145SAPE   O1315884  -0.522   3.757  11.196 -0.1362 -0.0643  0.7767
  145SAPE   O1415885  -0.296   3.858  11.158 -0.5731  0.3568  0.2045
  145SAPE   O1215886  -0.322   3.612  11.134  0.4261 -0.1567 -0.1003
  145SAPE   O1115887  -0.428   3.768  10.974 -0.1654 -0.0428  0.2932
  145SAPE    C115888  -0.471   3.652  10.903  0.1747 -0.7208  0.1594
  145SAPE    HA15889  -0.518   3.568  10.958 -0.3778 -1.9900 -2.1044
  145SAPE    HB15890  -0.547   3.676  10.825 -1.0179 -1.0790  1.1879
  145SAPE    C215891  -0.354   3.591  10.814  0.0258  0.7831  0.8716
  145SAPE    HS15892  -0.262   3.564  10.870  0.5518  0.7569  0.0044
  145SAPE   O2115893  -0.336   3.664  10.695 -0.0600 -0.2638 -0.9631
  145SAPE   C2115894  -0.206   3.706  10.667  0.0430  0.1884 -0.3875
  145SAPE   O2215895  -0.108   3.669  10.734  0.2190 -0.1044  0.8930
  145SAPE   C2215896  -0.207   3.805  10.555 -0.5017  0.2590 -0.2109
  145SAPE   H2R15897  -0.308   3.850  10.542  0.0408  1.0812 -1.7648
  145SAPE   H2S15898  -0.131   3.880  10.584 -0.2095  0.4277 -1.3885
  145SAPE    C315899  -0.397   3.451  10.755  0.2074  0.2378 -0.0434
  145SAPE    HX15900  -0.495   3.473  10.707  0.2285 -1.8478 -1.1522
  145SAPE    HY15901  -0.415   3.389  10.845 -3.2289  1.0411 -0.0210
  145SAPE   O3115902  -0.312   3.389  10.658 -0.5153 -0.5738 -0.2974
  145SAPE   C3115903  -0.197   3.340  10.712 -0.0518  0.2223 -0.3744
  145SAPE   O3215904  -0.178   3.326  10.830 -0.1907 -0.1582 -1.0477
  145SAPE   C3215905  -0.107   3.311  10.600 -0.3165  0.0425  0.5355
  145SAPE   H2X15906  -0.161   3.247  10.527  2.0086 -1.5445  0.0884
  145SAPE   H2Y15907  -0.030   3.239  10.637  0.4035  0.5848  0.1376
  145SAPE   C2315908  -0.162   3.743  10.418 -0.1397  0.3264  0.0804
  145SAPE   H3R15909  -0.215   3.651  10.387  0.3744  0.2343 -0.5661
  145SAPE   H3S15910  -0.058   3.706  10.432 -0.5108 -0.3999  0.9411
  145SAPE   C2415911  -0.181   3.844  10.298  0.0051  0.2375  0.3355
  145SAPE   H4R15912  -0.175   3.945  10.345 -0.1641  0.7958 -0.8281
  145SAPE   H4S15913  -0.281   3.834  10.252 -0.3185  1.4390  0.7445
  145SAPE   C2515914  -0.064   3.823  10.207  0.0150 -0.1527 -0.4497
  145SAPE   H5R15915   0.033   3.819  10.259 -0.3827 -0.1526  0.2919
  145SAPE   C2615916  -0.066   3.770  10.080  0.1530 -0.0989  0.0317
  145SAPE   H6R15917   0.023   3.734  10.027  0.1953 -1.4659  0.9784
  145SAPE   C2715918  -0.203   3.737  10.015  0.0762  0.7694 -0.0384
  145SAPE   H7R15919  -0.273   3.686  10.085  0.5066 -0.2963 -0.3732
  145SAPE   H7S15920  -0.191   3.652   9.945 -1.0679 -1.7378  2.5708
  145SAPE   C2815921  -0.283   3.837   9.945  0.7615 -0.2464 -0.6629
  145SAPE   H8R15922  -0.348   3.909   9.998 -1.5877 -0.6196 -2.8273
  145SAPE   C2915923  -0.285   3.851   9.806 -0.4082  0.6619 -0.1241
  145SAPE   H9R15924  -0.346   3.935   9.772  1.0620  0.9661 -2.2095
  145SAPE  C21015925  -0.206   3.763   9.710 -0.7436  0.2333 -0.4094
  145SAPE  H10R15926  -0.251   3.753   9.609 -0.0366 -0.9002 -0.6288
  145SAPE  H10S15927  -0.198   3.658   9.746 -1.7453  0.4551  0.5026
  145SAPE  C21115928  -0.071   3.829   9.696  0.4326 -0.0804 -0.4188
  145SAPE  H11R15929  -0.002   3.813   9.780  2.7370  2.3424 -1.7137
  145SAPE  C21215930  -0.031   3.902   9.588  0.4328  0.4405  0.1038
  145SAPE  H12R15931   0.068   3.950   9.581  1.2017 -0.6899  2.3244
  145SAPE  C21315932  -0.126   3.932   9.476  0.1367 -0.2902 -0.4699
  145SAPE  H13R15933  -0.110   4.035   9.439 -0.4981 -0.9337 -2.7020
  145SAPE  H13S15934  -0.233   3.941   9.502  0.6345  1.2446  1.2467
  145SAPE  C21415935  -0.128   3.819   9.374 -0.0422  0.3457  0.4576
  145SAPE  H14R15936  -0.177   3.727   9.409 -2.0431  0.3136 -2.0669
  145SAPE  C21515937  -0.045   3.811   9.269 -0.2214 -0.4546  1.1178
  145SAPE  H15R15938  -0.058   3.724   9.204 -0.0665 -0.8952  1.6691
  145SAPE  C21615939   0.059   3.921   9.237  0.4738  0.9883 -0.0351
  145SAPE  H16R15940   0.152   3.871   9.200  0.7177  0.5628  1.1081
  145SAPE  H16S15941   0.098   3.978   9.324  3.4915 -0.4650 -0.2863
  145SAPE  C21715942   0.013   4.029   9.134  0.3813 -0.5995 -0.2137
  145SAPE  H17R15943   0.066   4.123   9.157 -1.1508  0.2391  0.0702
  145SAPE  H17S15944  -0.090   4.066   9.153  1.1675  1.6763 -0.1759
  145SAPE  C21815945   0.001   3.992   8.987 -0.5128 -0.3294 -0.4342
  145SAPE  H18R15946  -0.041   4.084   8.941 -1.4992  0.1709  1.3522
  145SAPE  H18S15947  -0.071   3.908   8.977 -0.9197  0.0308 -0.5191
  145SAPE  C21915948   0.141   3.970   8.934 -0.4010  0.0227 -0.1511
  145SAPE  H19R15949   0.188   3.883   8.985  1.1736  2.2920  2.5826
  145SAPE  H19S15950   0.209   4.053   8.962 -0.0656 -0.1026 -0.5813
  145SAPE  C22015951   0.146   3.957   8.784  0.4226  0.4272  0.5111
  145SAPE  H20R15952   0.143   4.048   8.721  0.2047 -0.7671 -1.2803
  145SAPE  H20S15953   0.068   3.885   8.751  3.3720 -3.6365  1.6238
  145SAPE  H20T15954   0.238   3.900   8.760 -0.4295 -1.5782  1.7461
  145SAPE   C3315955  -0.024   3.431  10.542 -0.1373 -0.7400  0.5139
  145SAPE   H3X15956   0.029   3.482  10.625  0.2820 -0.5927  0.1559
  145SAPE   H3Y15957  -0.096   3.499  10.492  0.7189 -0.5973 -0.5530
  145SAPE   C3415958   0.072   3.388  10.431  0.0852  0.2572 -0.7592
  145SAPE   H4X15959   0.118   3.289  10.455  0.2981  0.3447 -0.7980
  145SAPE   H4Y15960   0.156   3.459  10.414  1.0937 -0.9165 -0.8686
  145SAPE   C3515961  -0.003   3.391  10.297 -0.5010 -0.6481 -1.1613
  145SAPE   H5X15962  -0.031   3.495  10.272  0.1281 -0.5240 -1.3749
  145SAPE   H5Y15963  -0.098   3.334  10.312 -0.7961 -0.0363 -0.6645
  145SAPE   C3615964   0.075   3.337  10.176 -0.1674  0.2699  0.0779
  145SAPE   H6X15965   0.092   3.228  10.182 -1.3236 -0.0047 -1.1327
  145SAPE   H6Y15966   0.166   3.400  10.171 -0.3693  0.6390  0.8135
  145SAPE   C3715967  -0.004   3.362  10.048  0.6989  0.3550 -0.1305
  145SAPE   H7X15968  -0.061   3.458  10.052 -0.2109 -0.1152 -1.1418
  145SAPE   H7Y15969  -0.082   3.286  10.023  3.0604 -1.6555 -1.9665
  145SAPE   C3815970   0.090   3.378   9.924  0.0784  0.0560 -0.5618
  145SAPE   H8X15971   0.152   3.286   9.927 -0.5336 -0.3427  0.3063
  145SAPE   H8Y15972   0.166   3.459   9.934 -0.4520  0.3242  2.6059
  145SAPE   C3915973   0.010   3.391   9.798 -0.1390  0.0184  0.1844
  145SAPE   H9X15974  -0.044   3.487   9.785 -0.3095 -0.1321 -0.2101
  145SAPE   H9Y15975  -0.076   3.321   9.795 -0.4930  0.3801  1.3095
  145SAPE  C31015976   0.091   3.370   9.671  0.4712 -0.3313 -0.9701
  145SAPE  H10X15977   0.136   3.268   9.665  1.1743 -0.1671  0.8008
  145SAPE  H10Y15978   0.173   3.445   9.678 -0.5013  0.7082 -0.5835
  145SAPE  C31115979   0.004   3.401   9.548  0.7526 -0.5270  0.1392
  145SAPE  H11X15980  -0.010   3.510   9.531 -1.0688 -1.2171 -4.2881
  145SAPE  H11Y15981  -0.091   3.347   9.565 -0.4418  1.4528 -0.0014
  145SAPE  C31215982   0.071   3.346   9.421 -0.1007  0.2802 -0.0386
  145SAPE  H12X15983   0.004   3.301   9.345  0.6988 -1.7715  0.4023
  145SAPE  H12Y15984   0.125   3.253   9.451 -1.6187 -0.5821  0.0928
  145SAPE  C31315985   0.168   3.446   9.365 -0.3139 -0.1383  0.0151
  145SAPE  H13X15986   0.244   3.470   9.443  1.3858 -0.9480 -1.3002
  145SAPE  H13Y15987   0.110   3.537   9.340 -0.3453 -0.2043 -0.1504
  145SAPE  C31415988   0.255   3.393   9.247  0.3112  0.1469 -0.6228
  145SAPE  H14X15989   0.185   3.389   9.161  0.7187 -1.8937 -0.9182
  145SAPE  H14Y15990   0.297   3.292   9.269 -3.3611 -2.0001 -2.4831
  145SAPE  C31515991   0.372   3.476   9.203  0.0610 -0.4284  0.1421
  145SAPE  H15X15992   0.464   3.415   9.217  0.3528  0.2216  1.0690
  145SAPE  H15Y15993   0.372   3.562   9.273  0.5147 -0.3957  0.1008
  145SAPE  C31615994   0.366   3.530   9.069 -1.0572 -0.1828 -0.0070
  145SAPE  H16X15995   0.440   3.605   9.033  0.1459  0.1338  2.8506
  145SAPE  H16Y15996   0.269   3.582   9.052 -0.9189 -0.2355 -0.9850
  145SAPE  C31715997   0.362   3.414   8.957  0.0684  0.1805 -0.5954
  145SAPE  H17X15998   0.272   3.359   8.989  0.0509  0.4168 -0.2374
  145SAPE  H17Y15999   0.449   3.345   8.969  0.2203  0.3707 -0.5895
  145SAPE  C31816000   0.363   3.460   8.807 -0.3659  0.4472 -1.2653
  145SAPE  H18X16001   0.365   3.376   8.734 -0.6355 -0.9324  0.2484
  145SAPE  H18Y16002   0.457   3.519   8.796  0.2475  0.4560  2.6330
  145SAPE  H18Z16003   0.275   3.521   8.779 -2.2944 -0.1955  2.6906
  146SAPE     N16004   6.007   3.939  10.874  0.2071  1.4263 -0.0601
  146SAPE   HN116005   6.094   3.945  10.818  1.6666  0.4031  1.9839
  146SAPE   HN216006   5.976   3.841  10.855 -0.7180  1.5987  0.4723
  146SAPE   HN316007   5.937   4.009  10.843  0.4084  1.6920  0.0843
  146SAPE   C1216008   6.045   3.962  11.015  0.3155 -0.0931  0.3945
  146SAPE  H12A16009   6.126   3.891  11.042  0.5515  0.2527  0.6037
  146SAPE  H12B16010   5.954   3.950  11.078 -0.1741  0.6537 -0.1536
  146SAPE   C1116011   6.114   4.093  11.022 -0.2066  0.1593  0.4531
  146SAPE  H11A16012   6.153   4.104  11.126  3.5068  0.5653 -0.8275
  146SAPE  H11B16013   6.036   4.168  10.998 -0.9260 -0.0819  1.9037
  146SAPE     P16014   6.310   4.214  10.915 -0.3159 -0.1130  0.0131
  146SAPE   O1316015   6.235   4.343  10.911 -0.1337  0.6497 -0.1652
  146SAPE   O1416016   6.423   4.215  11.014  0.6425 -0.0995 -0.5455
  146SAPE   O1216017   6.221   4.089  10.925  0.2288  0.0442  0.3656
  146SAPE   O1116018   6.383   4.183  10.772  0.0843  0.4918  0.2544
  146SAPE    C116019   6.365   4.058  10.700  0.2087 -0.4015  0.4409
  146SAPE    HA16020   6.468   4.017  10.698 -0.1747 -1.3525  0.0225
  146SAPE    HB16021   6.299   3.985  10.751  0.6325 -0.9321  0.2413
  146SAPE    C216022   6.310   4.086  10.558 -0.0921 -0.2153 -0.0290
  146SAPE    HS16023   6.215   4.145  10.551 -0.5826 -1.0094 -0.2274
  146SAPE   O2116024   6.286   3.971  10.479 -0.2742 -0.2585 -0.3774
  146SAPE   C2116025   6.182   3.899  10.520  0.5880  0.3467 -0.0079
  146SAPE   O2216026   6.109   3.929  10.616  0.5241  0.0120  0.2067
  146SAPE   C2216027   6.178   3.755  10.454  0.5725 -0.0219 -0.0401
  146SAPE   H2R16028   6.278   3.724  10.416  0.9822  2.2870 -1.0231
  146SAPE   H2S16029   6.166   3.685  10.540  0.5727 -1.6406 -1.3268
  146SAPE    C316030   6.417   4.169  10.489  0.5229 -0.2613  0.1365
  146SAPE    HX16031   6.503   4.101  10.477 -0.6118 -1.8248  0.5775
  146SAPE    HY16032   6.454   4.256  10.547 -1.4302  0.2680  0.6791
  146SAPE   O3116033   6.390   4.198  10.341 -0.4197  0.2490  0.3762
  146SAPE   C3116034   6.293   4.283  10.316  0.2609 -0.2787  0.2170
  146SAPE   O3216035   6.235   4.348  10.399  0.1446  0.0876 -0.5432
  146SAPE   C3216036   6.264   4.288  10.163 -0.5292 -0.7901 -0.0304
  146SAPE   H2X16037   6.190   4.369  10.149 -0.0387 -0.0812  1.3137
  146SAPE   H2Y16038   6.202   4.197  10.147 -1.3415 -0.2222 -0.1965
  146SAPE   C2316039   6.065   3.738  10.349  0.1337  0.0555  0.1945
  146SAPE   H3R16040   5.970   3.763  10.401 -1.1814 -0.9057 -1.6195
  146SAPE   H3S16041   6.074   3.634  10.311 -0.6134  0.1978 -0.3850
  146SAPE   C2416042   6.105   3.827  10.234 -0.3196  0.6847 -0.4964
  146SAPE   H4R16043   6.194   3.779  10.190 -0.2315 -1.4000  1.7677
  146SAPE   H4S16044   6.126   3.926  10.280 -0.5314 -0.5433  2.4504
  146SAPE   C2516045   5.995   3.851  10.141 -0.3837  0.2712  0.1730
  146SAPE   H5R16046   5.892   3.839  10.176  0.5368 -1.9897  2.3682
  146SAPE   C2616047   6.009   3.884  10.011  0.0096  0.5015 -0.8139
  146SAPE   H6R16048   5.921   3.892   9.944 -2.5875  0.1232  2.3118
  146SAPE   C2716049   6.141   3.905   9.935  0.5228  0.2925  0.2071
  146SAPE   H7R16050   6.230   3.908  10.001  0.0029 -0.7655  0.9867
  146SAPE   H7S16051   6.132   4.004   9.885 -3.1825  0.6165  1.1981
  146SAPE   C2816052   6.165   3.789   9.839 -0.2940  0.5147 -0.6497
  146SAPE   H8R16053   6.157   3.694   9.894 -0.4888  0.7632 -0.2440
  146SAPE   C2916054   6.179   3.790   9.711 -0.3803  0.2860 -0.0736
  146SAPE   H9R16055   6.183   3.691   9.662 -0.9556  0.1219  0.1996
  146SAPE  C21016056   6.167   3.905   9.613  0.0734 -0.1891  0.7966
  146SAPE  H10R16057   6.265   3.927   9.567  0.1421  0.3013  1.1678
  146SAPE  H10S16058   6.136   4.001   9.659 -2.7090 -0.9710  0.7462
  146SAPE  C21116059   6.063   3.883   9.505 -0.4799  0.3044 -0.6052
  146SAPE  H11R16060   5.961   3.870   9.544  0.6039 -0.3255  2.3575
  146SAPE  C21216061   6.093   3.866   9.376 -0.5828  0.3157  0.3118
  146SAPE  H12R16062   6.018   3.861   9.296  0.9278 -1.9874 -1.0824
  146SAPE  C21316063   6.236   3.849   9.316 -0.5156 -0.9162 -0.6246
  146SAPE  H13R16064   6.244   3.768   9.240  0.3193 -0.8392 -0.6267
  146SAPE  H13S16065   6.298   3.804   9.396 -2.2525 -1.3542  0.5245
  146SAPE  C21416066   6.304   3.977   9.260  0.0947  0.0392  0.0891
  146SAPE  H14R16067   6.300   4.056   9.336 -3.8771 -0.5767  0.7388
  146SAPE  C21516068   6.362   3.990   9.140 -0.5275  0.0560 -0.5279
  146SAPE  H15R16069   6.401   4.089   9.111  1.7625 -0.7655 -0.4392
  146SAPE  C21616070   6.379   3.882   9.034  0.8467  0.6206 -0.2634
  146SAPE  H16R16071   6.285   3.823   9.035 -0.1391  2.1368  1.1362
  146SAPE  H16S16072   6.460   3.811   9.060  0.0806  0.4547  1.8709
  146SAPE  C21716073   6.386   3.949   8.900  0.0694 -0.3209  0.4057
  146SAPE  H17R16074   6.465   4.026   8.905 -1.1357  1.0224 -0.4536
  146SAPE  H17S16075   6.290   4.002   8.882 -0.4043 -1.7101 -1.5154
  146SAPE  C21816076   6.413   3.859   8.773 -0.3864 -0.0169 -0.5849
  146SAPE  H18R16077   6.402   3.921   8.682  0.1954 -0.8180 -1.2107
  146SAPE  H18S16078   6.330   3.785   8.766  1.0232 -1.7061 -0.1778
  146SAPE  C21916079   6.551   3.797   8.768  0.1568 -0.0189  0.3952
  146SAPE  H19R16080   6.586   3.748   8.861  0.0767  2.7726  2.0024
  146SAPE  H19S16081   6.624   3.882   8.768  2.3014 -1.7470 -1.0280
  146SAPE  C22016082   6.560   3.718   8.637 -0.7810  0.0420  0.3398
  146SAPE  H20R16083   6.527   3.786   8.555  0.1736  0.3166  0.1606
  146SAPE  H20S16084   6.489   3.635   8.622 -1.8993  1.2287 -1.3405
  146SAPE  H20T16085   6.667   3.698   8.616 -0.9096  0.9762 -1.3872
  146SAPE   C3316086   6.384   4.304  10.072 -0.6277 -0.5528  0.3877
  146SAPE   H3X16087   6.466   4.252  10.125  1.1752  1.1720 -0.5993
  146SAPE   H3Y16088   6.406   4.412  10.060 -1.1744 -0.4907 -0.1172
  146SAPE   C3416089   6.364   4.252   9.930 -0.9159  0.9470  0.8396
  146SAPE   H4X16090   6.266   4.290   9.893  0.0794  1.0335 -1.8542
  146SAPE   H4Y16091   6.377   4.142   9.937 -0.4480  0.9979  0.7696
  146SAPE   C3516092   6.472   4.299   9.829 -0.1343 -0.3779 -0.0461
  146SAPE   H5X16093   6.575   4.274   9.860 -0.0701  0.1199  0.1453
  146SAPE   H5Y16094   6.462   4.409   9.820 -1.8600 -0.6400 -2.4819
  146SAPE   C3616095   6.445   4.239   9.687 -0.0997  0.8789  1.0436
  146SAPE   H6X16096   6.340   4.262   9.659  0.1985  0.7495 -0.2390
  146SAPE   H6Y16097   6.449   4.128   9.696 -1.7981  0.7513  0.6911
  146SAPE   C3716098   6.551   4.292   9.586 -0.1627 -0.0821 -0.1057
  146SAPE   H7X16099   6.650   4.245   9.603 -0.6136 -1.7030 -1.6631
  146SAPE   H7Y16100   6.553   4.401   9.606  0.1027 -0.0878 -0.1024
  146SAPE   C3816101   6.501   4.273   9.437  0.0444 -0.6830 -1.0598
  146SAPE   H8X16102   6.396   4.307   9.430 -0.5702 -2.3599 -0.4968
  146SAPE   H8Y16103   6.495   4.166   9.409  1.6221 -0.9803 -0.3723
  146SAPE   C3916104   6.591   4.344   9.338  0.1212  0.1211  0.0941
  146SAPE   H9X16105   6.697   4.315   9.353  0.5734  0.7775 -1.5803
  146SAPE   H9Y16106   6.586   4.452   9.362  1.2927  0.4593 -1.1020
  146SAPE  C31016107   6.539   4.306   9.199  1.0284  0.3842  0.1535
  146SAPE  H10X16108   6.434   4.340   9.185 -0.6537 -4.1644  0.1096
  146SAPE  H10Y16109   6.547   4.197   9.177  1.6732  0.1977  1.2386
  146SAPE  C31116110   6.633   4.392   9.099  0.0801  0.9719 -0.8998
  146SAPE  H11X16111   6.732   4.341   9.103 -0.6338 -0.4815 -0.8761
  146SAPE  H11Y16112   6.649   4.489   9.149  0.6575 -0.1171  1.1333
  146SAPE  C31216113   6.581   4.406   8.951 -0.2018  0.2661 -0.0922
  146SAPE  H12X16114   6.625   4.492   8.897 -2.1508  1.2835 -0.1656
  146SAPE  H12Y16115   6.471   4.418   8.958 -0.0947  1.1350  0.3407
  146SAPE  C31316116   6.607   4.281   8.864  0.0829 -1.0389 -0.3556
  146SAPE  H13X16117   6.561   4.194   8.916 -2.0452 -0.4189 -1.1233
  146SAPE  H13Y16118   6.718   4.274   8.854  0.3556  1.0480  0.7837
  146SAPE  C31416119   6.545   4.288   8.726  0.2297  0.5670  0.3517
  146SAPE  H14X16120   6.569   4.380   8.669 -0.3102  0.3490 -0.2511
  146SAPE  H14Y16121   6.434   4.295   8.730  0.2433  0.9390  0.1123
  146SAPE  C31516122   6.589   4.171   8.636 -0.4077 -0.1251  0.7496
  146SAPE  H15X16123   6.558   4.078   8.689 -1.6594  0.0274  0.3205
  146SAPE  H15Y16124   6.699   4.168   8.646 -0.2512  2.4781  0.4384
  146SAPE  C31616125   6.546   4.163   8.495  0.5305  0.1720  0.0266
  146SAPE  H16X16126   6.580   4.262   8.456 -1.3899  0.3722 -1.2873
  146SAPE  H16Y16127   6.435   4.168   8.491  0.3426 -2.5717 -0.0829
  146SAPE  C31716128   6.613   4.041   8.439  0.2287  0.0815 -0.0623
  146SAPE  H17X16129   6.605   3.957   8.511  1.4357  0.2850  0.3262
  146SAPE  H17Y16130   6.719   4.073   8.431 -0.6498  3.1251 -1.0213
  146SAPE  C31816131   6.554   4.007   8.303  0.1745 -0.6591  0.3741
  146SAPE  H18X16132   6.621   3.934   8.252  1.5269  1.0532 -0.4065
  146SAPE  H18Y16133   6.560   4.095   8.236 -0.2789 -1.3124 -0.5493
  146SAPE  H18Z16134   6.451   3.970   8.317  0.2914 -1.3360 -0.4471
  147SAPE     N16135   4.250   0.162   6.077 -0.2212 -0.4362 -0.1401
  147SAPE   HN116136   4.158   0.201   6.048  0.4627  1.3329 -0.0764
  147SAPE   HN216137   4.264   0.201   6.173  2.8008  0.1512 -0.7280
  147SAPE   HN316138   4.326   0.200   6.017 -0.3070 -1.2534 -0.7847
  147SAPE   C1216139   4.249   0.012   6.070  0.3371  0.2448 -0.3962
  147SAPE  H12A16140   4.327  -0.020   5.997  0.9139 -0.7376  0.6033
  147SAPE  H12B16141   4.152  -0.025   6.030  0.1263  0.2372  0.1069
  147SAPE   C1116142   4.279  -0.039   6.207  0.0019  0.3722  0.2193
  147SAPE  H11A16143   4.193  -0.008   6.270 -0.6635  0.0441 -0.5084
  147SAPE  H11B16144   4.367   0.023   6.234  0.5032  0.5360 -1.6505
  147SAPE     P16145   4.209  -0.297   6.203  0.2783 -0.0796  0.0917
  147SAPE   O1316146   4.071  -0.245   6.192  0.3752  0.5156  0.5245
  147SAPE   O1416147   4.252  -0.407   6.114  0.1822 -0.0858 -0.0852
  147SAPE   O1216148   4.310  -0.175   6.204 -0.3985 -0.1747 -0.6429
  147SAPE   O1116149   4.217  -0.358   6.345 -0.2496  0.1257  0.0592
  147SAPE    C116150   4.339  -0.333   6.422  0.6301 -0.5647 -0.2719
  147SAPE    HA16151   4.378  -0.430   6.460  1.4542 -1.0550 -2.2187
  147SAPE    HB16152   4.425  -0.288   6.369  0.1967  1.2487  0.4967
  147SAPE    C216153   4.301  -0.243   6.550 -0.5091  0.3467  0.8080
  147SAPE    HS16154   4.226  -0.308   6.602 -1.2699 -1.4092 -2.2487
  147SAPE   O2116155   4.247  -0.119   6.508 -0.2048 -0.0651  0.0308
  147SAPE   C2116156   4.154  -0.073   6.589  0.1948  0.2903 -0.1303
  147SAPE   O2216157   4.093  -0.140   6.671  0.3867 -0.6472 -0.5136
  147SAPE   C2216158   4.142   0.074   6.580  0.7398  0.5223 -0.6967
  147SAPE   H2R16159   4.241   0.122   6.598  0.2010  1.5646 -0.4809
  147SAPE   H2S16160   4.103   0.099   6.479  1.0108  0.6007 -0.7831
  147SAPE    C316161   4.422  -0.233   6.649 -0.4782 -0.0248 -0.0831
  147SAPE    HX16162   4.499  -0.166   6.606 -0.5191 -0.4360 -0.8192
  147SAPE    HY16163   4.467  -0.335   6.656  1.0255  0.5161 -1.2784
  147SAPE   O3116164   4.379  -0.182   6.773 -0.9997 -0.1591 -0.1304
  147SAPE   C3116165   4.329  -0.279   6.858  0.5556  0.0664  0.4460
  147SAPE   O3216166   4.310  -0.392   6.824  0.1363 -0.2599 -0.0413
  147SAPE   C3216167   4.309  -0.222   7.001  0.8410 -0.1676  0.1494
  147SAPE   H2X16168   4.281  -0.114   7.003 -0.5726 -0.5081  1.9682
  147SAPE   H2Y16169   4.407  -0.228   7.053  0.6271 -0.3996  0.5289
  147SAPE   C2316170   4.037   0.117   6.691 -0.1279 -0.3393  0.0282
  147SAPE   H3R16171   3.956   0.042   6.699  1.8297 -2.4388  1.7127
  147SAPE   H3S16172   3.996   0.218   6.673  0.4496  0.2593  1.8690
  147SAPE   C2416173   4.115   0.136   6.820  0.3655  0.7893 -0.6182
  147SAPE   H4R16174   4.200   0.208   6.816  2.6517 -1.5378  1.4829
  147SAPE   H4S16175   4.163   0.037   6.838 -0.8896  0.2027 -0.4124
  147SAPE   C2516176   4.028   0.155   6.941 -0.2039 -0.2996  0.4072
  147SAPE   H5R16177   3.981   0.067   6.987 -1.7931  0.2042 -0.1837
  147SAPE   C2616178   4.023   0.270   7.012  0.8278 -0.0957  0.1583
  147SAPE   H6R16179   3.951   0.273   7.095  2.2082 -0.2722  1.4036
  147SAPE   C2716180   4.086   0.407   6.994 -0.4752 -0.5967  0.2704
  147SAPE   H7R16181   4.004   0.481   7.004 -1.4148 -1.0027 -2.9917
  147SAPE   H7S16182   4.114   0.430   6.888  1.1456  3.4590  1.3853
  147SAPE   C2816183   4.202   0.438   7.085 -0.2385  0.7971  0.0422
  147SAPE   H8R16184   4.283   0.366   7.069 -0.9121  0.4474 -2.1415
  147SAPE   C2916185   4.204   0.523   7.188 -0.3091 -0.1272 -0.5529
  147SAPE   H9R16186   4.296   0.535   7.247  0.0900  1.7358 -1.4829
  147SAPE  C21016187   4.099   0.616   7.244  0.9233  0.1248  0.4146
  147SAPE  H10R16188   4.102   0.598   7.353  0.6598  0.7204  0.5272
  147SAPE  H10S16189   3.995   0.587   7.218  0.5589 -1.5159  3.3364
  147SAPE  C21116190   4.096   0.768   7.219  0.1170 -0.2446 -0.2572
  147SAPE  H11R16191   4.109   0.792   7.113  2.0132 -0.5836 -0.1261
  147SAPE  C21216192   4.097   0.865   7.320  0.2106 -0.2676  0.0209
  147SAPE  H12R16193   4.077   0.964   7.275  0.0846 -0.7310 -0.9587
  147SAPE  C21316194   4.096   0.853   7.474  0.5801 -0.2443 -0.2860
  147SAPE  H13R16195   4.205   0.848   7.497 -0.0508 -0.8075  3.1751
  147SAPE  H13S16196   4.068   0.751   7.507  0.6250 -0.3266 -0.5005
  147SAPE  C21416197   4.006   0.949   7.550 -0.4612  0.0707 -0.2062
  147SAPE  H14R16198   3.917   0.906   7.596 -0.1652 -0.9090 -0.5332
  147SAPE  C21516199   4.022   1.082   7.564 -0.3520  0.0488 -0.5172
  147SAPE  H15R16200   3.950   1.142   7.622 -0.7910  2.0254 -2.9168
  147SAPE  C21616201   4.134   1.165   7.498  0.5834  0.1040 -0.8734
  147SAPE  H16R16202   4.097   1.266   7.467  1.1703  0.2164 -1.2169
  147SAPE  H16S16203   4.169   1.110   7.408  1.7369 -3.3060  1.4664
  147SAPE  C21716204   4.257   1.191   7.581  0.1469 -0.3115  0.1118
  147SAPE  H17R16205   4.351   1.204   7.522  0.9820 -0.5936  1.3497
  147SAPE  H17S16206   4.263   1.102   7.647  1.5129  0.6952  1.4325
  147SAPE  C21816207   4.257   1.318   7.669  0.5633  0.1445 -0.3640
  147SAPE  H18R16208   4.186   1.300   7.752  0.0729  2.9528 -0.0767
  147SAPE  H18S16209   4.231   1.411   7.615  1.3639  1.3811  1.2897
  147SAPE  C21916210   4.399   1.340   7.715 -0.5450  0.6329  0.1172
  147SAPE  H19R16211   4.390   1.426   7.785 -0.7720 -0.7411  1.8385
  147SAPE  H19S16212   4.456   1.367   7.623  1.4558  1.7150  1.5902
  147SAPE  C22016213   4.474   1.233   7.799  0.5311 -0.2090  1.0952
  147SAPE  H20R16214   4.479   1.139   7.740 -0.2242  0.9042 -0.8152
  147SAPE  H20S16215   4.419   1.220   7.895 -1.4895 -1.7699 -0.1992
  147SAPE  H20T16216   4.580   1.256   7.821  0.4477  1.7137 -0.3042
  147SAPE   C3316217   4.197  -0.318   7.063 -0.5751 -0.1684  0.5164
  147SAPE   H3X16218   4.229  -0.425   7.065  0.2146  0.0563  0.3338
  147SAPE   H3Y16219   4.098  -0.316   7.013 -1.7469 -1.2698  2.6879
  147SAPE   C3416220   4.167  -0.274   7.203  0.3995 -0.7555  0.3182
  147SAPE   H4X16221   4.069  -0.310   7.240 -0.3874 -1.9580 -2.6186
  147SAPE   H4Y16222   4.165  -0.164   7.214 -0.2011 -0.6545 -0.6534
  147SAPE   C3516223   4.266  -0.323   7.307 -0.3724 -0.0798  0.3045
  147SAPE   H5X16224   4.363  -0.273   7.286 -1.2496  1.4564 -0.2331
  147SAPE   H5Y16225   4.271  -0.434   7.294  0.4992 -0.1783  1.3393
  147SAPE   C3616226   4.224  -0.289   7.451 -0.1199  0.3757 -0.4229
  147SAPE   H6X16227   4.124  -0.334   7.468  0.6768 -1.2249  0.2077
  147SAPE   H6Y16228   4.212  -0.179   7.462 -1.7247  0.4002 -1.9886
  147SAPE   C3716229   4.301  -0.350   7.574  0.2155 -0.1921  0.7472
  147SAPE   H7X16230   4.404  -0.317   7.553 -0.2151 -0.1225 -1.4894
  147SAPE   H7Y16231   4.288  -0.461   7.570 -0.5697 -0.0725 -0.3411
  147SAPE   C3816232   4.244  -0.302   7.709  0.1376  0.6149 -0.6046
  147SAPE   H8X16233   4.141  -0.341   7.725  1.1983 -1.7021  1.0430
  147SAPE   H8Y16234   4.243  -0.193   7.725  1.0057  0.3403  1.5343
  147SAPE   C3916235   4.328  -0.347   7.825 -0.6421  0.6102 -0.9727
  147SAPE   H9X16236   4.434  -0.318   7.806  0.8007 -1.8814  2.2762
  147SAPE   H9Y16237   4.328  -0.458   7.835  1.4254  0.5565 -1.0325
  147SAPE  C31016238   4.267  -0.279   7.946  0.8498  0.2845  0.2824
  147SAPE  H10X16239   4.162  -0.316   7.946  0.7706  0.4910 -0.3332
  147SAPE  H10Y16240   4.257  -0.168   7.941 -1.1227  0.1032 -0.8466
  147SAPE  C31116241   4.348  -0.314   8.071  0.7975  0.1277  1.3302
  147SAPE  H11X16242   4.452  -0.279   8.056  0.6839  0.7965  2.0122
  147SAPE  H11Y16243   4.342  -0.422   8.093 -1.2725 -0.4892 -1.5982
  147SAPE  C31216244   4.295  -0.240   8.198  0.0612  0.1653 -0.1631
  147SAPE  H12X16245   4.186  -0.259   8.215  0.1543 -0.1652  0.0783
  147SAPE  H12Y16246   4.304  -0.130   8.184 -1.3683  0.3714  0.3840
  147SAPE  C31316247   4.379  -0.295   8.319  1.0870 -0.5089 -0.4860
  147SAPE  H13X16248   4.489  -0.290   8.304  1.1604  1.4974  0.3346
  147SAPE  H13Y16249   4.349  -0.402   8.319  5.4926 -1.9391 -0.5398
  147SAPE  C31416250   4.334  -0.237   8.459  0.2039  0.1688 -0.2103
  147SAPE  H14X16251   4.223  -0.241   8.466  0.1947  1.1169  0.4303
  147SAPE  H14Y16252   4.356  -0.128   8.458 -1.4153  0.5526  1.3737
  147SAPE  C31516253   4.381  -0.302   8.589 -0.0112 -0.0676 -0.0180
  147SAPE  H15X16254   4.358  -0.230   8.671  2.3834  1.4393 -0.5715
  147SAPE  H15Y16255   4.490  -0.319   8.597 -0.2475 -1.1179  1.1758
  147SAPE  C31616256   4.319  -0.443   8.602  0.3095  0.5750 -0.8819
  147SAPE  H16X16257   4.350  -0.501   8.513 -1.1887 -0.3666 -0.8278
  147SAPE  H16Y16258   4.210  -0.428   8.582 -0.5466 -1.5893  1.6053
  147SAPE  C31716259   4.340  -0.508   8.740  0.3835 -0.7623  0.9350
  147SAPE  H17X16260   4.289  -0.450   8.819 -0.4530  0.5035 -0.4819
  147SAPE  H17Y16261   4.450  -0.498   8.756  0.3802  4.2610 -0.4514
  147SAPE  C31816262   4.284  -0.648   8.743  0.2003  0.1353  0.0861
  147SAPE  H18X16263   4.353  -0.718   8.691 -0.3426 -0.3250 -0.0232
  147SAPE  H18Y16264   4.182  -0.658   8.699 -0.5307 -1.1235  1.9131
  147SAPE  H18Z16265   4.278  -0.682   8.849  1.5159 -2.1608 -0.5192
  148SAPE     N16266   0.368   6.738   6.438 -0.2828 -0.3878 -0.0453
  148SAPE   HN116267   0.435   6.752   6.360  0.9737  1.4721  1.2810
  148SAPE   HN216268   0.320   6.648   6.417  1.1100 -1.4241  1.0073
  148SAPE   HN316269   0.298   6.815   6.433  0.6819  0.4048 -2.4002
  148SAPE   C1216270   0.460   6.747   6.551 -0.2360  0.2755 -0.4054
  148SAPE  H12A16271   0.531   6.662   6.539  1.3557  1.4664  0.1181
  148SAPE  H12B16272   0.403   6.738   6.646 -1.3297  0.4804 -1.0336
  148SAPE   C1116273   0.521   6.887   6.559  0.2740  0.2316  0.5155
  148SAPE  H11A16274   0.590   6.905   6.645 -0.4556 -0.7368  1.3248
  148SAPE  H11B16275   0.434   6.954   6.576 -0.5901 -0.6599 -0.3010
  148SAPE     P16276   0.743   6.883   6.426 -0.3139  0.2542 -0.2976
  148SAPE   O1316277   0.767   6.787   6.312 -0.0198  0.0611 -0.2300
  148SAPE   O1416278   0.820   7.006   6.430  0.4276  0.6437  0.3132
  148SAPE   O1216279   0.581   6.923   6.439  0.3939 -0.3751 -0.4553
  148SAPE   O1116280   0.783   6.814   6.563  0.5772 -0.0763 -0.3452
  148SAPE    C116281   0.825   6.677   6.578  0.6504 -0.7597  0.5016
  148SAPE    HA16282   0.754   6.602   6.538  0.1210  0.5069 -1.0325
  148SAPE    HB16283   0.917   6.671   6.516  0.1761 -0.5444 -0.2248
  148SAPE    C216284   0.878   6.651   6.720 -0.1513 -0.2965 -0.1870
  148SAPE    HS16285   0.905   6.544   6.736  1.2584  0.2175  1.2189
  148SAPE   O2116286   0.779   6.674   6.821 -0.4567  0.2839 -0.6333
  148SAPE   C2116287   0.659   6.612   6.811 -0.6200  0.0494  0.1058
  148SAPE   O2216288   0.625   6.516   6.747  0.5308  0.2116 -0.1678
  148SAPE   C2216289   0.567   6.682   6.920  0.1542 -0.6506 -0.4776
  148SAPE   H2R16290   0.624   6.677   7.015 -1.3695  2.5724  0.7547
  148SAPE   H2S16291   0.572   6.791   6.899 -2.4431 -0.2474  0.6017
  148SAPE    C316292   1.015   6.730   6.750  0.0913  0.3658 -0.1630
  148SAPE    HX16293   0.993   6.838   6.738 -0.9167 -0.0496 -2.4808
  148SAPE    HY16294   1.077   6.690   6.666 -0.9326  0.4401 -0.9680
  148SAPE   O3116295   1.058   6.698   6.882 -0.4115  0.0581 -0.2086
  148SAPE   C3116296   1.165   6.767   6.932 -0.2791  1.1448  0.1175
  148SAPE   O3216297   1.231   6.852   6.876  0.3055  0.1224 -0.0279
  148SAPE   C3216298   1.195   6.728   7.074  0.2352  0.0295  0.5872
  148SAPE   H2X16299   1.300   6.692   7.076  0.0353 -0.6380  3.4275
  148SAPE   H2Y16300   1.123   6.649   7.107 -0.7498  1.5284  2.2409
  148SAPE   C2316301   0.433   6.605   6.934 -0.6593 -0.1843 -0.0234
  148SAPE   H3R16302   0.456   6.508   6.983 -0.1773 -0.6451 -1.1375
  148SAPE   H3S16303   0.378   6.589   6.839 -1.2804  2.8085 -0.2818
  148SAPE   C2416304   0.333   6.679   7.029  0.5994  0.3038  0.6087
  148SAPE   H4R16305   0.240   6.621   7.014 -0.8024  2.5110  0.3148
  148SAPE   H4S16306   0.311   6.778   6.983 -2.4221 -1.0059 -1.0783
  148SAPE   C2516307   0.377   6.691   7.177  0.2820 -0.4107  0.3693
  148SAPE   H5R16308   0.415   6.792   7.195  1.1130 -0.5229 -0.7003
  148SAPE   C2616309   0.365   6.596   7.270 -0.0701  0.4467 -0.4701
  148SAPE   H6R16310   0.409   6.625   7.367 -1.6141  0.9615  0.1106
  148SAPE   C2716311   0.304   6.455   7.257 -0.2123 -0.0665  0.1652
  148SAPE   H7R16312   0.363   6.382   7.316  1.9352  1.6805  0.3348
  148SAPE   H7S16313   0.308   6.419   7.152 -0.7195  1.2803 -0.3340
  148SAPE   C2816314   0.166   6.446   7.318  0.0435 -0.2847 -0.0789
  148SAPE   H8R16315   0.087   6.433   7.242  0.0629  0.1494 -0.1746
  148SAPE   C2916316   0.133   6.439   7.449 -0.4215 -0.3264  0.1683
  148SAPE   H9R16317   0.026   6.440   7.475 -0.0439  0.5448  1.8990
  148SAPE  C21016318   0.232   6.438   7.559  0.0014  0.0477 -0.7928
  148SAPE  H10R16319   0.217   6.517   7.637  2.7216  1.0317 -1.1704
  148SAPE  H10S16320   0.334   6.469   7.531  0.4987 -0.9911 -0.2066
  148SAPE  C21116321   0.243   6.300   7.630  0.6397 -0.5947  0.0755
  148SAPE  H11R16322   0.302   6.242   7.558  1.2148  0.7370 -0.5616
  148SAPE  C21216323   0.185   6.254   7.743  0.7688  0.0761 -0.2978
  148SAPE  H12R16324   0.204   6.155   7.787 -0.8780  0.5640  1.6561
  148SAPE  C21316325   0.094   6.340   7.834 -0.7959  0.0608 -0.5326
  148SAPE  H13R16326   0.016   6.276   7.882 -1.4286  0.4942 -0.9675
  148SAPE  H13S16327   0.040   6.411   7.767 -0.1897  1.1841  0.1385
  148SAPE  C21416328   0.158   6.423   7.942  0.0930  0.4758  0.6268
  148SAPE  H14R16329   0.179   6.529   7.925 -0.2482  0.7372  1.7292
  148SAPE  C21516330   0.188   6.370   8.063  0.0436  0.0021 -0.3456
  148SAPE  H15R16331   0.234   6.429   8.144 -0.1954 -2.7809  1.9669
  148SAPE  C21616332   0.160   6.228   8.102 -0.9043 -0.1171  0.1941
  148SAPE  H16R16333   0.254   6.184   8.141 -0.6459  0.1562 -0.1226
  148SAPE  H16S16334   0.132   6.166   8.014  1.3402  2.2297 -2.3428
  148SAPE  C21716335   0.035   6.215   8.195 -0.5305 -0.0478  0.3682
  148SAPE  H17R16336   0.020   6.107   8.217 -1.3914 -0.1998 -0.8659
  148SAPE  H17S16337  -0.049   6.248   8.130  0.1829 -0.7707 -0.9666
  148SAPE  C21816338   0.057   6.286   8.330  0.2921 -0.2077  0.8233
  148SAPE  H18R16339   0.030   6.394   8.323 -0.9215 -0.5107  0.5786
  148SAPE  H18S16340   0.163   6.281   8.363  1.4413  0.1963 -2.4273
  148SAPE  C21916341  -0.032   6.232   8.444 -0.3045 -0.4868  0.4931
  148SAPE  H19R16342  -0.026   6.298   8.533  0.3750 -1.8754  1.5259
  148SAPE  H19S16343   0.003   6.128   8.463 -0.8877 -1.4681 -3.0440
  148SAPE  C22016344  -0.179   6.237   8.411 -0.6999 -0.6095 -0.1065
  148SAPE  H20R16345  -0.203   6.174   8.323  0.2409 -4.8495  2.4210
  148SAPE  H20S16346  -0.208   6.344   8.398 -3.6639 -1.2165  0.8150
  148SAPE  H20T16347  -0.235   6.209   8.502 -2.0036  1.0398 -0.3450
  148SAPE   C3316348   1.170   6.851   7.161 -0.0313 -0.3603  0.7502
  148SAPE   H3X16349   1.064   6.884   7.151 -0.9484 -3.3947 -0.6187
  148SAPE   H3Y16350   1.222   6.942   7.124 -1.9977  0.5299  0.0369
  148SAPE   C3416351   1.198   6.827   7.309  0.5149 -0.1119  0.1274
  148SAPE   H4X16352   1.302   6.787   7.316  1.5552  2.1086 -1.4327
  148SAPE   H4Y16353   1.121   6.759   7.349  0.2595  0.9712  1.5672
  148SAPE   C3516354   1.191   6.954   7.389  0.1158  0.4191 -0.2813
  148SAPE   H5X16355   1.103   7.015   7.357 -2.1586 -1.6528  1.6457
  148SAPE   H5Y16356   1.286   7.013   7.387  0.1896  0.3001 -0.2548
  148SAPE   C3616357   1.167   6.925   7.537 -0.1981 -0.0036  0.7723
  148SAPE   H6X16358   1.265   6.881   7.567  1.3880  1.9450 -1.1300
  148SAPE   H6Y16359   1.085   6.852   7.549  2.0142 -2.7141  0.2712
  148SAPE   C3716360   1.121   7.042   7.631 -0.0221  0.1801  0.7466
  148SAPE   H7X16361   1.034   7.082   7.575 -0.5982 -0.2871  1.2920
  148SAPE   H7Y16362   1.207   7.112   7.622 -0.0549  0.0001 -1.3258
  148SAPE   C3816363   1.096   7.007   7.775  0.1354  0.4927  0.2811
  148SAPE   H8X16364   1.188   6.978   7.830  1.0035 -1.5347 -2.0174
  148SAPE   H8Y16365   1.022   6.927   7.796  1.0867 -0.0162  1.8424
  148SAPE   C3916366   1.045   7.133   7.841 -0.4305  0.3788  0.7196
  148SAPE   H9X16367   0.954   7.168   7.787 -0.3284 -0.0790  0.2401
  148SAPE   H9Y16368   1.126   7.206   7.822  0.8552 -1.3630 -0.8529
  148SAPE  C31016369   1.016   7.131   7.992  0.0013  0.6480 -0.2182
  148SAPE  H10X16370   0.923   7.070   7.997  0.1912  0.0688 -2.4124
  148SAPE  H10Y16371   0.995   7.237   8.019  1.7182  0.9086  0.2330
  148SAPE  C31116372   1.128   7.071   8.082  0.0919 -0.6350  0.0200
  148SAPE  H11X16373   1.229   7.117   8.071 -0.2909  0.3118  0.3312
  148SAPE  H11Y16374   1.141   6.961   8.080 -2.8393 -1.0441 -1.7360
  148SAPE  C31216375   1.111   7.091   8.238 -0.4101 -0.0333 -0.0159
  148SAPE  H12X16376   1.013   7.044   8.263 -0.0617  0.1349  1.8577
  148SAPE  H12Y16377   1.118   7.199   8.263  1.5990 -0.4314  1.4195
  148SAPE  C31316378   1.213   7.011   8.330 -0.3544  0.2449  0.2327
  148SAPE  H13X16379   1.316   7.044   8.304  0.7574 -2.2146  1.2370
  148SAPE  H13Y16380   1.217   6.906   8.295  1.2706  0.5541 -0.6020
  148SAPE  C31416381   1.194   7.005   8.481  0.1875  0.2431 -0.6926
  148SAPE  H14X16382   1.143   6.908   8.495  1.0001 -0.3503 -1.6748
  148SAPE  H14Y16383   1.133   7.095   8.505 -1.2290 -0.6266 -0.9139
  148SAPE  C31516384   1.319   7.003   8.562  0.4312  0.0244  0.0090
  148SAPE  H15X16385   1.394   6.930   8.524  3.1086  1.5146  2.0446
  148SAPE  H15Y16386   1.300   6.976   8.668 -1.6395  2.7244  0.4659
  148SAPE  C31616387   1.395   7.137   8.570 -0.0343 -0.5676  0.3163
  148SAPE  H16X16388   1.319   7.216   8.585 -0.1708 -0.6379 -0.0026
  148SAPE  H16Y16389   1.434   7.172   8.472  0.5760  0.2671  0.8362
  148SAPE  C31716390   1.516   7.146   8.670 -0.2409 -0.3562 -0.1577
  148SAPE  H17X16391   1.594   7.081   8.623 -1.0875 -2.0874  0.7332
  148SAPE  H17Y16392   1.491   7.089   8.762 -1.9633  0.7430  0.0895
  148SAPE  C31816393   1.565   7.287   8.708  0.9751 -0.3556 -0.8436
  148SAPE  H18X16394   1.478   7.352   8.731  1.8795 -0.0975  2.4248
  148SAPE  H18Y16395   1.620   7.325   8.619  1.0999  1.4460 -0.0521
  148SAPE  H18Z16396   1.631   7.293   8.798 -0.1965  0.9846 -0.0144
  149SAPE     N16397   0.743   0.440   6.486  0.3279  0.1673 -0.0924
  149SAPE   HN116398   0.676   0.477   6.416 -0.5371 -0.1016  0.5661
  149SAPE   HN216399   0.760   0.340   6.466 -0.9219 -0.2871  0.9891
  149SAPE   HN316400   0.709   0.465   6.582  0.7378  2.6759 -0.5318
  149SAPE   C1216401   0.871   0.523   6.491  0.1778 -0.0012 -0.3507
  149SAPE  H12A16402   0.914   0.526   6.389  2.5807 -1.2014  0.5357
  149SAPE  H12B16403   0.943   0.476   6.562  0.5168 -0.0197 -0.7037
  149SAPE   C1116404   0.843   0.666   6.539  0.6938  0.3221  0.4216
  149SAPE  H11A16405   0.932   0.729   6.516  2.5646 -1.8001  1.4425
  149SAPE  H11B16406   0.834   0.666   6.650 -0.4893 -2.7235  0.4058
  149SAPE     P16407   0.732   0.825   6.363 -0.6456  0.2164  0.0887
  149SAPE   O1316408   0.810   0.756   6.254  0.2617 -0.0766 -0.3125
  149SAPE   O1416409   0.598   0.874   6.332 -0.4076  0.1838 -0.0560
  149SAPE   O1216410   0.724   0.719   6.479 -0.4394  0.2529 -0.3159
  149SAPE   O1116411   0.819   0.935   6.420  0.0622  0.4180 -0.5181
  149SAPE    C116412   0.788   0.989   6.553  0.2025  0.0053 -0.8763
  149SAPE    HA16413   0.711   1.068   6.546  0.2167  0.1905  0.6023
  149SAPE    HB16414   0.764   0.914   6.632  1.5682  2.2786  1.9091
  149SAPE    C216415   0.905   1.059   6.616 -0.0272 -0.0332  0.1413
  149SAPE    HS16416   0.948   1.134   6.547  1.7501 -1.1713 -0.0506
  149SAPE   O2116417   1.003   0.954   6.658  0.0401  0.1354  0.2307
  149SAPE   C2116418   1.124   1.003   6.658 -0.2156 -0.4672 -1.2054
  149SAPE   O2216419   1.153   1.115   6.620 -0.2263 -0.1375  0.1695
  149SAPE   C2216420   1.231   0.897   6.701 -0.3081  0.4923 -0.2826
  149SAPE   H2R16421   1.206   0.805   6.644 -0.4970  0.9076 -0.8804
  149SAPE   H2S16422   1.324   0.936   6.654 -0.7882  0.5574 -1.2104
  149SAPE    C316423   0.860   1.130   6.747  0.0831 -0.0477  0.0756
  149SAPE    HX16424   0.776   1.196   6.717  0.3369  0.3744  0.2847
  149SAPE    HY16425   0.958   1.173   6.779  0.1743  0.4626 -0.8280
  149SAPE   O3116426   0.814   1.031   6.842 -0.0207  0.4850 -0.1778
  149SAPE   C3116427   0.879   1.023   6.950  0.3487  0.1091 -0.5465
  149SAPE   O3216428   0.967   1.101   6.988 -0.1372 -0.0695  0.3750
  149SAPE   C3216429   0.843   0.896   7.030  0.2874  0.0380  0.4361
  149SAPE   H2X16430   0.865   0.802   6.975 -3.2554 -1.5838  1.4712
  149SAPE   H2Y16431   0.733   0.893   7.047  0.4357  0.2898  1.5478
  149SAPE   C2316432   1.249   0.897   6.857  0.3505 -0.7227  0.3643
  149SAPE   H3R16433   1.149   0.872   6.899  0.3432  0.3647  1.0337
  149SAPE   H3S16434   1.285   0.996   6.892 -0.9459 -0.1192  0.0564
  149SAPE   C2416435   1.334   0.785   6.914  0.3118 -0.0453 -0.1755
  149SAPE   H4R16436   1.387   0.803   7.010  1.1945 -2.1878 -0.1964
  149SAPE   H4S16437   1.415   0.772   6.838  0.8474  1.0520  0.1848
  149SAPE   C2516438   1.251   0.665   6.924  0.4398  0.4890  0.3326
  149SAPE   H5R16439   1.206   0.630   6.830 -0.3978  3.5000 -0.4986
  149SAPE   C2616440   1.224   0.601   7.037  0.2270 -0.3619  0.3761
  149SAPE   H6R16441   1.163   0.509   7.034  2.3091 -1.8351  0.8680
  149SAPE   C2716442   1.270   0.630   7.177  0.1416  0.0654  0.2633
  149SAPE   H7R16443   1.185   0.601   7.242  0.3161 -2.6935 -0.6049
  149SAPE   H7S16444   1.298   0.737   7.186 -1.8790  0.5907  0.6940
  149SAPE   C2816445   1.384   0.540   7.218 -0.0061 -0.6817  0.5157
  149SAPE   H8R16446   1.444   0.502   7.134 -0.5059 -1.8795  0.6746
  149SAPE   C2916447   1.433   0.517   7.346  0.2067 -0.4917  0.1320
  149SAPE   H9R16448   1.524   0.457   7.362 -1.0783 -2.0128  2.2721
  149SAPE  C21016449   1.379   0.574   7.475 -0.2981  0.8712  0.3574
  149SAPE  H10R16450   1.419   0.514   7.560 -0.7378 -2.0918 -1.3902
  149SAPE  H10S16451   1.274   0.539   7.490 -0.2072  1.0130  1.4451
  149SAPE  C21116452   1.392   0.725   7.499 -0.3929 -0.1928  0.0569
  149SAPE  H11R16453   1.301   0.780   7.472 -0.7023  0.1056  1.6505
  149SAPE  C21216454   1.493   0.797   7.556 -0.5533 -0.0577 -0.1745
  149SAPE  H12R16455   1.482   0.906   7.562 -2.2823 -0.2466  0.7773
  149SAPE  C21316456   1.623   0.738   7.606  0.4460  0.2471 -0.3139
  149SAPE  H13R16457   1.701   0.773   7.536  1.1744  2.8978  1.6393
  149SAPE  H13S16458   1.632   0.627   7.608 -2.0359 -0.0201 -0.4410
  149SAPE  C21416459   1.668   0.795   7.737 -0.4154  0.5768  0.3357
  149SAPE  H14R16460   1.769   0.836   7.727  1.1591 -3.0341 -0.0290
  149SAPE  C21516461   1.607   0.795   7.859 -0.5314 -0.0799  0.0030
  149SAPE  H15R16462   1.664   0.833   7.945 -2.2344 -0.4642  1.3632
  149SAPE  C21616463   1.474   0.735   7.894 -0.0702 -0.1965  0.0563
  149SAPE  H16R16464   1.434   0.695   7.799 -0.8971 -0.3423  0.4628
  149SAPE  H16S16465   1.405   0.819   7.917 -0.5122 -0.1547 -1.3566
  149SAPE  C21716466   1.472   0.612   7.990 -0.0440 -0.2705  0.5957
  149SAPE  H17R16467   1.368   0.574   8.000  0.3487 -2.0099 -1.1976
  149SAPE  H17S16468   1.505   0.650   8.089 -2.1694  3.2945  0.1275
  149SAPE  C21816469   1.561   0.494   7.947 -0.0947 -0.4630 -0.4953
  149SAPE  H18R16470   1.657   0.521   7.899  0.8550 -2.4094  0.2084
  149SAPE  H18S16471   1.502   0.454   7.862 -1.2433  0.7247 -0.2968
  149SAPE  C21916472   1.571   0.393   8.057  1.1446  0.0660  0.4689
  149SAPE  H19R16473   1.593   0.294   8.012 -1.4559 -1.1652  1.7109
  149SAPE  H19S16474   1.464   0.396   8.084  1.1883 -2.2696  1.0398
  149SAPE  C22016475   1.653   0.436   8.173  1.1179  0.1326  0.8087
  149SAPE  H20R16476   1.637   0.375   8.265  3.0172 -0.5613  0.7372
  149SAPE  H20S16477   1.620   0.536   8.207 -0.3454 -0.0249 -0.0787
  149SAPE  H20T16478   1.758   0.437   8.137  0.7165  2.1654 -0.4544
  149SAPE   C3316479   0.925   0.878   7.160  0.3705 -0.3548 -0.1576
  149SAPE   H3X16480   0.905   0.964   7.228  0.5651 -0.6083  0.2294
  149SAPE   H3Y16481   1.035   0.864   7.149 -0.1745 -3.9191 -2.3539
  149SAPE   C3416482   0.874   0.746   7.239  0.2621  0.9946  0.7489
  149SAPE   H4X16483   0.914   0.662   7.178 -0.3160  0.5726  0.9423
  149SAPE   H4Y16484   0.763   0.753   7.239  0.2770  1.2448  0.2672
  149SAPE   C3516485   0.917   0.750   7.383 -0.3198  0.4330 -0.4231
  149SAPE   H5X16486   0.888   0.845   7.432  0.8251 -0.6913  2.6273
  149SAPE   H5Y16487   1.026   0.749   7.363 -0.0042  1.8982  1.0869
  149SAPE   C3616488   0.897   0.623   7.465 -0.9881 -0.4106 -0.0479
  149SAPE   H6X16489   0.925   0.531   7.408 -2.6542  0.1013 -1.8204
  149SAPE   H6Y16490   0.792   0.603   7.496 -0.5436 -0.6087  1.4007
  149SAPE   C3716491   0.978   0.620   7.597 -0.0280  0.3677 -0.3631
  149SAPE   H7X16492   1.084   0.636   7.569  0.8978 -1.1018  1.9602
  149SAPE   H7Y16493   0.974   0.519   7.643  0.4644  0.4828 -0.0505
  149SAPE   C3816494   0.951   0.724   7.703  0.1847 -0.4518 -0.3252
  149SAPE   H8X16495   0.842   0.738   7.722  0.3351  1.4907 -0.6842
  149SAPE   H8Y16496   0.988   0.822   7.665  1.1877 -0.4155  0.6845
  149SAPE   C3916497   1.030   0.701   7.832  0.6056 -0.6998 -0.3217
  149SAPE   H9X16498   1.139   0.694   7.815  0.9780  2.2004  0.2549
  149SAPE   H9Y16499   0.998   0.604   7.874 -2.0687 -0.5435 -1.7681
  149SAPE  C31016500   0.998   0.814   7.928  0.6539 -0.6246 -0.0711
  149SAPE  H10X16501   0.888   0.808   7.947 -0.0262  0.9778 -2.9851
  149SAPE  H10Y16502   1.014   0.909   7.872  1.6173  0.1419  1.4440
  149SAPE  C31116503   1.089   0.824   8.056 -0.2568  0.2740  0.6141
  149SAPE  H11X16504   1.187   0.867   8.026 -0.3831  0.9239  1.1074
  149SAPE  H11Y16505   1.097   0.721   8.095 -1.3477 -0.9567 -2.1153
  149SAPE  C31216506   1.026   0.924   8.150 -0.1979  0.0508  0.3863
  149SAPE  H12X16507   0.924   0.886   8.172 -0.7168  0.7651 -0.6695
  149SAPE  H12Y16508   1.014   1.018   8.090  1.5146  0.3170  0.4147
  149SAPE  C31316509   1.110   0.959   8.274 -0.4449 -0.4265 -0.4023
  149SAPE  H13X16510   1.037   1.017   8.335  0.0769 -0.0331 -0.1552
  149SAPE  H13Y16511   1.193   1.024   8.242 -0.6307  1.2528  2.2411
  149SAPE  C31416512   1.159   0.841   8.359 -0.5125 -0.7557 -0.0224
  149SAPE  H14X16513   1.200   0.890   8.450  1.7365  1.3620 -2.0337
  149SAPE  H14Y16514   1.250   0.797   8.312 -0.6483 -0.4387 -0.5933
  149SAPE  C31516515   1.047   0.732   8.392 -0.0730  0.1279  0.1584
  149SAPE  H15X16516   1.105   0.656   8.449 -0.3767  1.7802  2.8657
  149SAPE  H15Y16517   0.998   0.690   8.302 -1.3696  3.3730 -0.8082
  149SAPE  C31616518   0.936   0.781   8.487  0.0568 -0.0147 -0.1032
  149SAPE  H16X16519   0.862   0.699   8.499 -0.0105 -0.0510 -0.7386
  149SAPE  H16Y16520   0.877   0.869   8.455 -1.2259 -0.6580  0.4237
  149SAPE  C31716521   0.996   0.812   8.623 -1.2133  0.3779  0.2192
  149SAPE  H17X16522   1.050   0.908   8.609 -1.8151  0.7552  0.4340
  149SAPE  H17Y16523   1.065   0.734   8.660 -1.2219  0.1030 -0.3374
  149SAPE  C31816524   0.889   0.827   8.729 -0.8827 -0.0416  0.3352
  149SAPE  H18X16525   0.836   0.734   8.757 -0.5671  0.2903  2.1379
  149SAPE  H18Y16526   0.804   0.887   8.691 -2.8757 -2.0053  1.4500
  149SAPE  H18Z16527   0.926   0.872   8.824  3.5218  1.9345 -2.0039
  150SAPE     N16528   6.475   4.664   6.192  0.3620  0.4696  0.3037
  150SAPE   HN116529   6.524   4.752   6.218  2.4124 -0.0862 -1.4053
  150SAPE   HN216530   6.470   4.607   6.279  0.5796 -0.8576 -0.5241
  150SAPE   HN316531   6.529   4.607   6.124 -0.7637 -0.7317  0.3693
  150SAPE   C1216532   6.344   4.696   6.122  0.5557  0.4050  0.9788
  150SAPE  H12A16533   6.318   4.599   6.075 -1.3907  2.0055 -1.5779
  150SAPE  H12B16534   6.361   4.770   6.040  0.5163 -0.4306  0.2070
  150SAPE   C1116535   6.244   4.744   6.226  0.1810  0.7294 -0.3004
  150SAPE  H11A16536   6.243   4.693   6.325 -0.9556  1.8222  0.2743
  150SAPE  H11B16537   6.148   4.728   6.172 -1.5057  1.0158  2.4443
  150SAPE     P16538   6.355   4.971   6.328 -0.3355  0.0075 -0.1245
  150SAPE   O1316539   6.487   4.925   6.290  0.2305 -0.4319 -0.0939
  150SAPE   O1416540   6.334   5.115   6.303  0.1111 -0.2784 -0.3528
  150SAPE   O1216541   6.252   4.889   6.236 -0.7545 -0.5452  0.2218
  150SAPE   O1116542   6.329   4.927   6.473 -0.2891 -0.1763  0.3954
  150SAPE    C116543   6.200   4.897   6.525  0.2231  0.1151 -0.2232
  150SAPE    HA16544   6.112   4.950   6.482 -1.0942 -2.3953 -0.7989
  150SAPE    HB16545   6.180   4.788   6.523 -0.0695  0.0255  3.0975
  150SAPE    C216546   6.208   4.944   6.676 -0.0383 -0.3129  0.7196
  150SAPE    HS16547   6.138   4.874   6.727 -0.9028 -1.5977 -2.0381
  150SAPE   O2116548   6.158   5.080   6.684  0.0464 -0.0703  0.2404
  150SAPE   C2116549   6.027   5.097   6.703  0.3416  0.7670 -0.0636
  150SAPE   O2216550   5.938   5.015   6.705 -0.0024 -0.7397  0.6961
  150SAPE   C2216551   6.015   5.243   6.756 -0.5964  0.3994  0.0391
  150SAPE   H2R16552   6.032   5.310   6.669 -0.3047 -0.2900 -0.4423
  150SAPE   H2S16553   5.915   5.250   6.804 -1.1892 -3.2611 -0.4097
  150SAPE    C316554   6.350   4.933   6.744  0.4257 -0.0008  0.6141
  150SAPE    HX16555   6.412   5.010   6.693  0.9757 -0.7234  0.1917
  150SAPE    HY16556   6.391   4.831   6.727 -0.6516 -0.3218 -0.2019
  150SAPE   O3116557   6.341   4.960   6.884  0.1585 -0.1435  0.2703
  150SAPE   C3116558   6.457   5.002   6.942  0.0192 -0.4093  0.0094
  150SAPE   O3216559   6.558   5.024   6.885 -0.6282  0.1174 -0.8030
  150SAPE   C3216560   6.443   5.013   7.088  0.8194  0.0112  0.5224
  150SAPE   H2X16561   6.387   4.926   7.129 -0.7219  1.1022  0.8482
  150SAPE   H2Y16562   6.382   5.104   7.107 -0.7026 -1.0904  1.1235
  150SAPE   C2316563   6.120   5.279   6.864  0.3420 -0.4215  0.2316
  150SAPE   H3R16564   6.215   5.274   6.806  0.0248 -0.0483 -0.3338
  150SAPE   H3S16565   6.122   5.209   6.950 -0.0610 -0.8742 -0.1153
  150SAPE   C2416566   6.098   5.420   6.913 -0.0367 -0.0105  0.6550
  150SAPE   H4R16567   6.095   5.497   6.833 -0.0550 -0.3996  0.2784
  150SAPE   H4S16568   6.190   5.438   6.973  2.7173 -2.1782 -2.5656
  150SAPE   C2516569   5.974   5.441   7.002 -0.4506 -0.3004 -0.0432
  150SAPE   H5R16570   5.886   5.474   6.944  0.4981  0.1619 -1.2521
  150SAPE   C2616571   5.963   5.417   7.138  0.2821 -0.1836 -0.2277
  150SAPE   H6R16572   5.872   5.447   7.192  0.6842 -0.2982  0.5291
  150SAPE   C2716573   6.074   5.366   7.230 -0.2860 -1.0092 -0.1745
  150SAPE   H7R16574   6.109   5.446   7.297  0.1149  0.9956 -2.6114
  150SAPE   H7S16575   6.167   5.338   7.176 -0.4062 -2.6447  0.3987
  150SAPE   C2816576   6.019   5.245   7.306  0.2907  0.5018 -0.0587
  150SAPE   H8R16577   6.011   5.147   7.257  0.3653 -0.2295  1.3422
  150SAPE   C2916578   5.978   5.250   7.438  0.2198 -0.7643 -0.0330
  150SAPE   H9R16579   5.945   5.155   7.484  0.6695 -0.7947  0.2293
  150SAPE  C21016580   5.977   5.373   7.522 -0.1184 -0.2270  0.5234
  150SAPE  H10R16581   5.963   5.463   7.459  1.4928 -1.6917 -2.1135
  150SAPE  H10S16582   6.078   5.386   7.565 -1.2895  2.2605  2.8019
  150SAPE  C21116583   5.877   5.379   7.634  0.4033 -0.0849  0.1171
  150SAPE  H11R16584   5.779   5.415   7.598  0.5890 -0.3932 -0.7146
  150SAPE  C21216585   5.906   5.363   7.760 -0.9811  0.1259 -0.4421
  150SAPE  H12R16586   5.833   5.396   7.836  0.3441  1.0574  0.4593
  150SAPE  C21316587   6.048   5.326   7.811 -0.5392 -0.3305 -0.6703
  150SAPE  H13R16588   6.108   5.419   7.810  1.2735 -1.4491 -0.4997
  150SAPE  H13S16589   6.108   5.256   7.749 -0.5115  0.0126 -1.0329
  150SAPE  C21416590   6.041   5.280   7.949 -0.1794  0.4102  0.5191
  150SAPE  H14R16591   6.051   5.171   7.949  0.7418  0.3780 -2.8660
  150SAPE  C21516592   6.028   5.347   8.062  0.9018  0.7435  0.0270
  150SAPE  H15R16593   6.021   5.286   8.154  1.3271  2.6627  1.3918
  150SAPE  C21616594   6.008   5.495   8.075 -0.2908  0.4424 -0.2334
  150SAPE  H16R16595   6.005   5.544   7.976 -0.0916 -2.1420 -1.6133
  150SAPE  H16S16596   6.099   5.535   8.126  0.2416 -0.2732 -0.5931
  150SAPE  C21716597   5.881   5.542   8.148 -0.1223 -0.3778  0.3529
  150SAPE  H17R16598   5.798   5.471   8.128  0.2589 -0.0794 -2.8007
  150SAPE  H17S16599   5.851   5.637   8.099  0.7927 -0.1414  0.2304
  150SAPE  C21816600   5.898   5.568   8.301  0.1859  0.4105 -0.0610
  150SAPE  H18R16601   5.797   5.598   8.336 -0.5865 -1.0760 -0.8913
  150SAPE  H18S16602   5.971   5.650   8.310 -1.4705  1.8828  0.5243
  150SAPE  C21916603   5.940   5.448   8.392 -0.5857 -0.9423  0.3333
  150SAPE  H19R16604   6.043   5.422   8.361 -0.8237 -0.4940 -0.9135
  150SAPE  H19S16605   5.866   5.369   8.369 -0.3124 -1.3609  0.8711
  150SAPE  C22016606   5.943   5.485   8.540 -0.5914 -0.0227 -0.4668
  150SAPE  H20R16607   6.008   5.572   8.563 -3.3008  1.9232  0.3476
  150SAPE  H20S16608   5.962   5.397   8.605  3.4669  0.9963  0.0299
  150SAPE  H20T16609   5.854   5.538   8.579  0.5388  0.7213  1.2363
  150SAPE   C3316610   6.579   5.030   7.165  0.0908 -0.8792  0.4131
  150SAPE   H3X16611   6.625   5.128   7.139  0.5128 -0.7585  1.5354
  150SAPE   H3Y16612   6.655   4.950   7.154  2.2584  0.9756  1.1468
  150SAPE   C3416613   6.538   5.041   7.316 -0.7421 -0.0999  0.5721
  150SAPE   H4X16614   6.491   4.942   7.338 -0.0691 -1.0288 -1.8573
  150SAPE   H4Y16615   6.458   5.118   7.322 -1.1163 -0.2587 -1.6456
  150SAPE   C3516616   6.655   5.068   7.417  0.5783  0.1455  0.1286
  150SAPE   H5X16617   6.702   5.155   7.367  0.0139  0.5740  0.3330
  150SAPE   H5Y16618   6.727   4.983   7.412 -1.4890 -1.7160  0.0102
  150SAPE   C3616619   6.599   5.089   7.555 -0.1637  0.7690  0.4121
  150SAPE   H6X16620   6.537   5.001   7.582  0.0141 -0.0947 -1.7936
  150SAPE   H6Y16621   6.543   5.185   7.561 -1.7246 -0.0765 -0.1468
  150SAPE   C3716622   6.714   5.091   7.663 -0.0513 -0.1220 -0.7639
  150SAPE   H7X16623   6.774   5.182   7.642 -1.8600  1.3713  0.1905
  150SAPE   H7Y16624   6.774   4.997   7.660  0.7497  0.2669  1.2769
  150SAPE   C3816625   6.668   5.096   7.810  0.3858  1.0581  0.7451
  150SAPE   H8X16626   6.566   5.141   7.803 -0.8181 -1.3495  1.6752
  150SAPE   H8Y16627   6.735   5.162   7.868  1.1189  0.4948  0.5546
  150SAPE   C3916628   6.656   4.953   7.867  0.4915 -0.3574  0.8459
  150SAPE   H9X16629   6.634   4.883   7.784  0.0402 -0.5370  1.1185
  150SAPE   H9Y16630   6.577   4.950   7.945 -0.1601 -0.1332  0.1979
  150SAPE  C31016631   6.776   4.902   7.945  1.2445  0.7915 -0.0847
  150SAPE  H10X16632   6.822   4.970   8.020  3.2509  0.2761 -0.7594
  150SAPE  H10Y16633   6.862   4.891   7.875  0.7930  1.3797 -0.7402
  150SAPE  C31116634   6.763   4.765   8.001 -0.4673  0.0070  0.0959
  150SAPE  H11X16635   6.867   4.744   8.035 -0.5808  0.1910  0.5637
  150SAPE  H11Y16636   6.744   4.688   7.923 -1.0974  1.1341 -0.9038
  150SAPE  C31216637   6.673   4.756   8.120 -0.1178  0.3252 -0.1009
  150SAPE  H12X16638   6.690   4.653   8.159 -0.0142  0.2523 -0.3397
  150SAPE  H12Y16639   6.569   4.752   8.080  0.4819 -2.1825 -1.6788
  150SAPE  C31316640   6.673   4.867   8.229 -0.0930 -0.2509  0.3886
  150SAPE  H13X16641   6.643   4.964   8.185  0.2246  0.1440  1.0346
  150SAPE  H13Y16642   6.777   4.888   8.263  0.1580 -0.3011 -0.3410
  150SAPE  C31416643   6.590   4.843   8.359 -0.1066 -0.6065  0.0738
  150SAPE  H14X16644   6.599   4.738   8.394  1.9004 -0.6684 -0.5105
  150SAPE  H14Y16645   6.485   4.868   8.333 -0.6200 -0.9689  1.6753
  150SAPE  C31516646   6.643   4.943   8.469 -0.0758 -0.7058 -1.2238
  150SAPE  H15X16647   6.584   5.037   8.476  1.5848  0.2783  0.5008
  150SAPE  H15Y16648   6.741   4.973   8.426  1.0539 -1.6432  0.5786
  150SAPE  C31616649   6.640   4.880   8.606 -0.4788  0.1381  0.6635
  150SAPE  H16X16650   6.715   4.943   8.658 -0.8584 -0.1178  1.5287
  150SAPE  H16Y16651   6.673   4.774   8.599 -0.1500  0.0641  2.7670
  150SAPE  C31716652   6.493   4.890   8.657  0.4289  0.4837  0.2586
  150SAPE  H17X16653   6.422   4.883   8.572  1.2875  0.0205 -0.4438
  150SAPE  H17Y16654   6.480   4.990   8.705 -1.9081  0.2311  0.2428
  150SAPE  C31816655   6.462   4.777   8.750  0.0993 -0.7682 -0.4731
  150SAPE  H18X16656   6.365   4.796   8.801  0.0625  1.3142 -1.2125
  150SAPE  H18Y16657   6.532   4.789   8.835  0.9002 -0.1313 -1.2023
  150SAPE  H18Z16658   6.474   4.677   8.703 -0.6373  0.1894 -2.8720
  151SAPE     N16659   3.749   1.332   6.389  0.3046  0.5503 -0.0429
  151SAPE   HN116660   3.690   1.364   6.309  0.9494  1.7614 -0.0420
  151SAPE   HN216661   3.845   1.306   6.358  0.1411 -0.1074 -0.0236
  151SAPE   HN316662   3.704   1.244   6.423 -0.0958  0.6915 -0.1956
  151SAPE   C1216663   3.777   1.440   6.484  0.0619  0.6920 -0.1588
  151SAPE  H12A16664   3.824   1.386   6.568 -0.6059 -1.0648 -0.8593
  151SAPE  H12B16665   3.680   1.480   6.519 -0.3585 -0.7380  0.3881
  151SAPE   C1116666   3.873   1.541   6.433  0.5825 -0.0722 -0.2061
  151SAPE  H11A16667   3.977   1.502   6.424  1.7951  2.6659  0.6818
  151SAPE  H11B16668   3.882   1.615   6.515  0.7368 -0.2591 -0.0536
  151SAPE     P16669   3.791   1.758   6.305  0.2133  0.2176 -0.1047
  151SAPE   O1316670   3.915   1.841   6.319  0.5324  0.0935 -0.0924
  151SAPE   O1416671   3.703   1.773   6.187  0.3773  0.4118 -0.0554
  151SAPE   O1216672   3.822   1.608   6.315 -0.3570  0.4660  0.0768
  151SAPE   O1116673   3.707   1.780   6.439  0.0900 -0.1753  0.2935
  151SAPE    C116674   3.577   1.719   6.465  0.0874 -0.4999  1.2356
  151SAPE    HA16675   3.540   1.672   6.372 -1.0064  4.6704 -1.2793
  151SAPE    HB16676   3.582   1.644   6.547  0.8468  1.1145  2.7533
  151SAPE    C216677   3.477   1.832   6.497  0.1075 -0.2023 -0.1311
  151SAPE    HS16678   3.496   1.920   6.433  1.1229  0.0084  0.4390
  151SAPE   O2116679   3.506   1.863   6.639  0.3081 -0.5791  0.0197
  151SAPE   C2116680   3.480   1.990   6.672  0.7491  0.4758 -0.5095
  151SAPE   O2216681   3.446   2.077   6.592  0.6328 -0.1391 -0.8496
  151SAPE   C2216682   3.521   2.006   6.812  0.5032  0.7802 -0.4568
  151SAPE   H2R16683   3.500   1.912   6.867  1.1597  0.8371 -0.0956
  151SAPE   H2S16684   3.632   2.010   6.820  0.5373 -1.5871  0.8856
  151SAPE    C316685   3.325   1.801   6.490  0.8439  0.3406  0.2947
  151SAPE    HX16686   3.299   1.772   6.385 -2.3397 -0.8920  1.3043
  151SAPE    HY16687   3.262   1.889   6.513  0.0383  0.0759 -0.7878
  151SAPE   O3116688   3.298   1.690   6.568 -0.0369  0.2803  0.4908
  151SAPE   C3116689   3.236   1.693   6.684 -0.1148 -0.3900  0.5406
  151SAPE   O3216690   3.178   1.792   6.734  0.2639  0.2687  0.9344
  151SAPE   C3216691   3.246   1.556   6.745  0.1040  0.1432  0.3701
  151SAPE   H2X16692   3.331   1.504   6.698 -0.5852  0.7770 -1.6871
  151SAPE   H2Y16693   3.164   1.493   6.702 -0.2371  2.0483 -1.9596
  151SAPE   C2316694   3.471   2.135   6.882 -0.6630 -0.4806  0.7790
  151SAPE   H3R16695   3.365   2.157   6.855 -0.4041  1.0652  0.9631
  151SAPE   H3S16696   3.517   2.224   6.834 -1.0695  0.0812  1.4101
  151SAPE   C2416697   3.500   2.133   7.028  0.0640 -0.3239  0.0157
  151SAPE   H4R16698   3.610   2.136   7.039  0.1416  0.1737 -0.8145
  151SAPE   H4S16699   3.470   2.030   7.056  2.7106 -1.2707 -0.3749
  151SAPE   C2516700   3.441   2.250   7.104 -0.5265  0.2992 -0.8778
  151SAPE   H5R16701   3.335   2.260   7.080 -0.1036  0.5718 -2.8086
  151SAPE   C2616702   3.511   2.337   7.176 -0.4399 -0.5963 -0.3861
  151SAPE   H6R16703   3.460   2.409   7.242 -1.8162 -0.6213 -1.3743
  151SAPE   C2716704   3.660   2.338   7.208  0.3175  0.7080 -0.2271
  151SAPE   H7R16705   3.698   2.234   7.215 -1.8838 -0.1709 -0.7021
  151SAPE   H7S16706   3.663   2.386   7.308 -0.9890 -1.0617  0.7155
  151SAPE   C2816707   3.735   2.399   7.097 -1.8791  0.1849 -0.7305
  151SAPE   H8R16708   3.709   2.497   7.056  0.9771  1.0983 -0.5935
  151SAPE   C2916709   3.854   2.349   7.051 -0.3570 -0.3535  0.5420
  151SAPE   H9R16710   3.901   2.404   6.968 -0.1595  0.9184  1.4720
  151SAPE  C21016711   3.929   2.230   7.103 -0.1834  0.0532 -0.6518
  151SAPE  H10R16712   3.882   2.134   7.072  0.4460  0.1227 -1.9127
  151SAPE  H10S16713   3.934   2.233   7.214 -0.2181 -3.0435 -0.4794
  151SAPE  C21116714   4.070   2.207   7.041  0.7378  0.3996  0.2307
  151SAPE  H11R16715   4.077   2.229   6.933 -1.8516 -0.3022 -0.1594
  151SAPE  C21216716   4.178   2.171   7.105 -0.3644 -0.3611  0.2357
  151SAPE  H12R16717   4.268   2.165   7.042 -1.3073 -0.2752 -1.1509
  151SAPE  C21316718   4.204   2.129   7.251  1.1227  0.1289  0.3203
  151SAPE  H13R16719   4.229   2.222   7.307  0.7200  0.4710 -0.0566
  151SAPE  H13S16720   4.293   2.063   7.258 -0.4847 -2.0071  2.0998
  151SAPE  C21416721   4.090   2.058   7.319  0.2022 -0.4947 -0.4557
  151SAPE  H14R16722   4.042   1.973   7.268 -0.2955 -1.0060  0.8247
  151SAPE  C21516723   4.034   2.094   7.439  0.3687  0.6714  0.3873
  151SAPE  H15R16724   3.947   2.035   7.472  1.1861 -1.5164 -1.0779
  151SAPE  C21616725   4.066   2.220   7.520 -0.0159 -0.0946  0.7845
  151SAPE  H16R16726   3.978   2.286   7.530  0.6188  0.6128  1.8954
  151SAPE  H16S16727   4.149   2.284   7.483  0.2992 -0.1185  1.4241
  151SAPE  C21716728   4.108   2.196   7.671 -0.2983  0.1342  0.4249
  151SAPE  H17R16729   4.159   2.287   7.709 -1.2405 -0.0265  2.1379
  151SAPE  H17S16730   4.190   2.121   7.671  1.9028  2.3926  1.0590
  151SAPE  C21816731   4.001   2.146   7.763  0.5060 -0.0211  0.2246
  151SAPE  H18R16732   3.954   2.046   7.749 -1.7287  1.2000 -2.0237
  151SAPE  H18S16733   3.919   2.222   7.758 -1.4004 -1.5706  3.7552
  151SAPE  C21916734   4.043   2.140   7.916  0.5013  0.1436 -0.6854
  151SAPE  H19R16735   4.125   2.066   7.918 -0.0437 -0.4613 -0.1587
  151SAPE  H19S16736   3.958   2.102   7.976  0.7501  0.0809 -0.3715
  151SAPE  C22016737   4.078   2.272   7.986  0.6265  0.6543  1.6126
  151SAPE  H20R16738   4.162   2.319   7.931  0.0124 -0.5388 -0.5149
  151SAPE  H20S16739   3.999   2.349   7.985 -0.2378 -0.2007  0.6203
  151SAPE  H20T16740   4.104   2.244   8.090  0.8830 -2.4329  0.8376
  151SAPE   C3316741   3.259   1.561   6.894 -0.0260 -0.4763 -0.2316
  151SAPE   H3X16742   3.239   1.464   6.944  1.4368  0.4402  2.3464
  151SAPE   H3Y16743   3.183   1.627   6.941  1.0573  0.0514  0.8295
  151SAPE   C3416744   3.392   1.614   6.956 -0.3545  0.6092 -0.3080
  151SAPE   H4X16745   3.428   1.693   6.887  0.6374 -0.2986 -0.8508
  151SAPE   H4Y16746   3.470   1.535   6.957  2.1768  2.9695  1.3330
  151SAPE   C3516747   3.372   1.651   7.102 -0.5648 -0.2927  0.4267
  151SAPE   H5X16748   3.352   1.559   7.162 -0.2459 -0.0263  0.9474
  151SAPE   H5Y16749   3.285   1.719   7.096  0.8252  1.4958 -0.3541
  151SAPE   C3616750   3.498   1.713   7.156  0.5724 -0.3351 -0.4040
  151SAPE   H6X16751   3.530   1.787   7.079 -0.0721 -0.5284 -0.8633
  151SAPE   H6Y16752   3.587   1.648   7.170  1.1292  0.6637  0.9316
  151SAPE   C3716753   3.463   1.808   7.274 -0.0898  0.0899  0.5932
  151SAPE   H7X16754   3.399   1.753   7.346 -1.4061 -1.1113 -1.3908
  151SAPE   H7Y16755   3.385   1.875   7.232 -1.3350 -2.1595 -0.9188
  151SAPE   C3816756   3.584   1.889   7.338  0.9203 -0.7582 -0.0609
  151SAPE   H8X16757   3.644   1.937   7.258 -0.0383 -1.8361 -1.4743
  151SAPE   H8Y16758   3.644   1.818   7.398  0.2639 -0.8994  0.4442
  151SAPE   C3916759   3.541   2.001   7.437 -0.1341  0.6156 -0.8825
  151SAPE   H9X16760   3.497   1.949   7.525  3.6460 -0.0758  0.8105
  151SAPE   H9Y16761   3.477   2.080   7.392 -1.2498  1.1230  1.4583
  151SAPE  C31016762   3.657   2.086   7.496 -0.4848 -0.0825  0.0496
  151SAPE  H10X16763   3.696   2.148   7.412 -0.4850 -1.0863 -0.7069
  151SAPE  H10Y16764   3.726   2.008   7.535  1.2008  1.9763  1.4822
  151SAPE  C31116765   3.616   2.179   7.620  0.0009  0.1794 -0.3309
  151SAPE  H11X16766   3.540   2.251   7.583 -0.0900 -1.4505 -3.6289
  151SAPE  H11Y16767   3.702   2.243   7.650  0.3442 -0.1217 -0.6718
  151SAPE  C31216768   3.569   2.099   7.740 -0.1980  0.5765 -0.2885
  151SAPE  H12X16769   3.644   2.018   7.751 -0.6775  0.1368 -0.2046
  151SAPE  H12Y16770   3.474   2.042   7.733 -0.2626  0.5882  0.4267
  151SAPE  C31316771   3.559   2.185   7.869  0.5085  0.1673  0.4467
  151SAPE  H13X16772   3.476   2.258   7.861  1.0518  0.6757 -0.9093
  151SAPE  H13Y16773   3.653   2.236   7.899  0.5876  0.6136 -0.5338
  151SAPE  C31416774   3.510   2.098   7.988 -0.2648 -0.6768 -1.0577
  151SAPE  H14X16775   3.420   2.043   7.953  0.4726 -2.2678 -0.5405
  151SAPE  H14Y16776   3.480   2.166   8.070  0.5628 -0.3468 -1.0192
  151SAPE  C31516777   3.616   2.009   8.049 -0.2545  0.0659 -0.1755
  151SAPE  H15X16778   3.684   2.055   8.124  1.2060 -1.9341 -0.1868
  151SAPE  H15Y16779   3.684   1.965   7.973 -0.2717  0.8356 -0.6495
  151SAPE  C31616780   3.562   1.887   8.135 -0.4222  0.3297 -0.6223
  151SAPE  H16X16781   3.648   1.817   8.148  0.0104  0.8442 -0.6798
  151SAPE  H16Y16782   3.500   1.828   8.065 -1.5250 -1.0142  1.3805
  151SAPE  C31716783   3.479   1.930   8.254 -0.3200 -0.3672  0.3219
  151SAPE  H17X16784   3.375   1.950   8.220 -0.3041 -1.6780 -0.5887
  151SAPE  H17Y16785   3.521   2.016   8.310 -1.3076 -0.8759  1.8929
  151SAPE  C31816786   3.465   1.817   8.359  0.1135 -0.3184 -0.3132
  151SAPE  H18X16787   3.414   1.731   8.311 -1.5057  0.8123 -0.7351
  151SAPE  H18Y16788   3.384   1.848   8.430 -0.7927  0.6095 -1.6918
  151SAPE  H18Z16789   3.549   1.797   8.429  0.4868  1.0010 -0.3436
  152SAPE     N16790   4.861   0.548   5.790 -0.2022 -0.0999  0.2194
  152SAPE   HN116791   4.778   0.497   5.829  0.8904  0.8976  4.3214
  152SAPE   HN216792   4.872   0.565   5.688  3.5529 -1.5100  0.2479
  152SAPE   HN316793   4.945   0.495   5.820  0.9722  1.2462 -0.6108
  152SAPE   C1216794   4.875   0.676   5.871 -0.2847 -0.7121  1.0439
  152SAPE  H12A16795   4.777   0.726   5.858 -0.4360 -1.7194 -2.7473
  152SAPE  H12B16796   4.962   0.736   5.836 -1.0586  0.5027  1.1536
  152SAPE   C1116797   4.888   0.646   6.022  0.6543  0.0411 -0.1024
  152SAPE  H11A16798   4.978   0.589   6.050 -1.8832 -4.8110 -0.6677
  152SAPE  H11B16799   4.811   0.567   6.037  0.1687  0.5381  0.0291
  152SAPE     P16800   4.975   0.854   6.140  0.2771 -0.8611 -0.1851
  152SAPE   O1316801   5.108   0.799   6.108 -0.4127  0.4072 -0.3803
  152SAPE   O1416802   4.950   0.986   6.078 -0.4373  0.1658 -0.0641
  152SAPE   O1216803   4.857   0.760   6.103  0.7405 -0.1422 -0.1358
  152SAPE   O1116804   4.960   0.872   6.298 -0.1856  0.1565 -0.6625
  152SAPE    C116805   4.901   0.754   6.369  0.0192  0.4767 -0.7371
  152SAPE    HA16806   4.796   0.743   6.335 -0.0920 -0.6609 -0.0669
  152SAPE    HB16807   4.964   0.665   6.347 -0.5078  0.2133 -1.2075
  152SAPE    C216808   4.907   0.782   6.522 -0.3979  0.0493 -0.4012
  152SAPE    HS16809   4.847   0.874   6.539  1.5696  1.4825 -0.8217
  152SAPE   O2116810   5.043   0.803   6.555  0.5009 -0.4078  0.1903
  152SAPE   C2116811   5.052   0.881   6.662  0.7909 -0.1958 -0.1488
  152SAPE   O2216812   4.961   0.931   6.727 -0.2681 -0.3743  0.2579
  152SAPE   C2216813   5.193   0.900   6.685 -0.5281  0.0493 -0.8327
  152SAPE   H2R16814   5.243   0.803   6.666  0.7690  0.4092  0.6012
  152SAPE   H2S16815   5.231   0.982   6.620 -1.3166  2.9282  2.0863
  152SAPE    C316816   4.855   0.658   6.596  0.9199  0.5218 -0.4420
  152SAPE    HX16817   4.938   0.584   6.602 -0.1884 -0.6498  1.5484
  152SAPE    HY16818   4.775   0.613   6.534  2.0488 -5.1494  1.5739
  152SAPE   O3116819   4.809   0.688   6.729  0.2827 -0.1279 -1.0632
  152SAPE   C3116820   4.684   0.746   6.728 -0.9409  0.1114 -0.3116
  152SAPE   O3216821   4.627   0.792   6.634  0.0717 -0.0752  0.0691
  152SAPE   C3216822   4.627   0.739   6.868 -0.7259 -0.3690  1.1374
  152SAPE   H2X16823   4.706   0.769   6.940 -1.1023 -1.1455  1.8860
  152SAPE   H2Y16824   4.612   0.630   6.880  1.6955 -1.1909 -1.8908
  152SAPE   C2316825   5.226   0.946   6.827  0.7075 -0.4691 -0.0408
  152SAPE   H3R16826   5.164   0.887   6.898 -0.4793  2.6738  1.7293
  152SAPE   H3S16827   5.192   1.051   6.842 -1.8796 -1.3062  0.5216
  152SAPE   C2416828   5.369   0.926   6.867 -0.8804  0.4015 -0.4938
  152SAPE   H4R16829   5.416   1.017   6.910  3.1689 -1.0076 -1.5640
  152SAPE   H4S16830   5.425   0.898   6.776  0.8364 -1.7030  1.1137
  152SAPE   C2516831   5.391   0.815   6.971 -0.2459 -0.9815  0.3917
  152SAPE   H5R16832   5.436   0.724   6.929 -0.4714 -1.7616  1.7761
  152SAPE   C2616833   5.379   0.816   7.100 -0.0854  0.0822 -0.9668
  152SAPE   H6R16834   5.391   0.722   7.156 -0.9985  0.2000 -0.5564
  152SAPE   C2716835   5.326   0.927   7.201 -0.8861  0.0024  0.5656
  152SAPE   H7R16836   5.221   0.897   7.221 -0.2843 -3.7603 -1.0020
  152SAPE   H7S16837   5.315   1.022   7.144 -2.3199  0.1744  1.0957
  152SAPE   C2816838   5.406   0.950   7.327 -0.2426 -0.3703 -0.0401
  152SAPE   H8R16839   5.503   0.998   7.305 -1.0310 -0.0647 -3.2608
  152SAPE   C2916840   5.381   0.927   7.454 -0.4116  0.6099  0.1831
  152SAPE   H9R16841   5.462   0.939   7.527 -1.6707 -0.2657  1.7975
  152SAPE  C21016842   5.254   0.866   7.509 -0.3396 -0.1733 -0.3905
  152SAPE  H10R16843   5.289   0.803   7.594  1.8240  2.1743  0.5957
  152SAPE  H10S16844   5.187   0.817   7.435 -0.5202 -1.2006  0.4337
  152SAPE  C21116845   5.168   0.967   7.578 -0.1910 -0.2673  0.1450
  152SAPE  H11R16846   5.134   1.045   7.508 -0.6693 -2.6821 -2.4942
  152SAPE  C21216847   5.134   0.979   7.710  0.7151 -0.8644  0.0036
  152SAPE  H12R16848   5.081   1.068   7.749  0.0960 -1.2141 -0.0230
  152SAPE  C21316849   5.178   0.878   7.816  0.1267 -0.6459  0.5312
  152SAPE  H13R16850   5.163   0.770   7.794  0.0213 -0.5149 -0.0639
  152SAPE  H13S16851   5.118   0.899   7.907  2.3575  2.4349  1.4562
  152SAPE  C21416852   5.322   0.906   7.852  0.5568 -0.5027 -0.5805
  152SAPE  H14R16853   5.360   1.009   7.843  1.5970 -0.7395  0.7494
  152SAPE  C21516854   5.399   0.810   7.915 -0.8125 -0.7537  0.1380
  152SAPE  H15R16855   5.503   0.842   7.932 -0.8606 -0.1140 -0.6741
  152SAPE  C21616856   5.381   0.671   7.960  0.6329  0.6353  0.5150
  152SAPE  H16R16857   5.468   0.619   7.914  1.3086  0.6179  1.7682
  152SAPE  H16S16858   5.288   0.620   7.926  0.3937  1.4859 -0.1705
  152SAPE  C21716859   5.370   0.634   8.109 -0.4430  0.0533  0.5404
  152SAPE  H17R16860   5.461   0.667   8.164 -0.9538  0.3070  1.2466
  152SAPE  H17S16861   5.377   0.526   8.135  0.9185 -0.4092 -1.5322
  152SAPE  C21816862   5.257   0.702   8.185 -0.1903  0.1920 -0.3688
  152SAPE  H18R16863   5.266   0.812   8.187 -0.8101  0.2494  1.1081
  152SAPE  H18S16864   5.271   0.680   8.293 -0.0612  0.4676 -0.3287
  152SAPE  C21916865   5.115   0.666   8.144  0.4112 -0.0698 -0.1267
  152SAPE  H19R16866   5.112   0.565   8.097  3.0264  0.2855 -1.1864
  152SAPE  H19S16867   5.079   0.754   8.087 -1.3310  0.8971  2.2918
  152SAPE  C22016868   5.017   0.663   8.269  0.7008 -0.2596  0.0252
  152SAPE  H20R16869   5.037   0.753   8.331  0.7325 -0.3163  0.0972
  152SAPE  H20S16870   5.054   0.577   8.328  1.5504 -0.4702 -0.7803
  152SAPE  H20T16871   4.914   0.650   8.231  0.9742 -0.9124 -0.4995
  152SAPE   C3316872   4.491   0.809   6.891 -0.1357  0.0589  0.6216
  152SAPE   H3X16873   4.415   0.773   6.818  0.4966 -0.1177  0.0463
  152SAPE   H3Y16874   4.490   0.919   6.872  1.5471  0.0038  0.0403
  152SAPE   C3416875   4.455   0.793   7.038  0.2153 -0.0235 -0.3422
  152SAPE   H4X16876   4.452   0.685   7.062 -0.4496  0.6083  2.9241
  152SAPE   H4Y16877   4.347   0.821   7.040 -0.0058 -0.6028 -2.2850
  152SAPE   C3516878   4.533   0.893   7.124  0.3699  0.0765 -0.4636
  152SAPE   H5X16879   4.501   0.995   7.094 -1.3165  0.2658  1.6683
  152SAPE   H5Y16880   4.642   0.874   7.114  0.1317 -2.5766  0.9567
  152SAPE   C3616881   4.495   0.863   7.268  0.0576 -0.2676  0.1773
  152SAPE   H6X16882   4.515   0.754   7.281 -2.3030 -0.5934  1.5383
  152SAPE   H6Y16883   4.388   0.880   7.289 -0.3500 -2.2908 -0.0293
  152SAPE   C3716884   4.577   0.932   7.375  0.0808  0.0192  0.3159
  152SAPE   H7X16885   4.544   0.883   7.469 -2.6333  0.9094 -0.1048
  152SAPE   H7Y16886   4.537   1.035   7.380 -2.0237 -0.6886 -0.7575
  152SAPE   C3816887   4.734   0.938   7.365  0.7572  0.3827 -0.1894
  152SAPE   H8X16888   4.763   1.013   7.288  0.5743 -0.9729 -1.6230
  152SAPE   H8Y16889   4.772   0.836   7.344  0.7443  0.9491 -3.5073
  152SAPE   C3916890   4.784   0.982   7.503  0.2494  0.0847  0.5343
  152SAPE   H9X16891   4.722   1.069   7.531 -0.4110  0.5371 -2.1325
  152SAPE   H9Y16892   4.892   1.007   7.511  0.0049  0.5631  3.5600
  152SAPE  C31016893   4.771   0.878   7.619  0.3641 -0.1073  0.6463
  152SAPE  H10X16894   4.843   0.795   7.601  1.0242  0.6514 -0.3166
  152SAPE  H10Y16895   4.676   0.821   7.623 -0.3662  1.0323  0.0114
  152SAPE  C31116896   4.789   0.938   7.758  0.2410 -0.1406  0.1923
  152SAPE  H11X16897   4.696   0.995   7.781  0.3714  1.7279 -3.1946
  152SAPE  H11Y16898   4.875   1.009   7.760 -1.4214  2.0603 -1.2165
  152SAPE  C31216899   4.815   0.821   7.854 -0.4558  0.0148 -0.0476
  152SAPE  H12X16900   4.902   0.755   7.835 -1.8250 -1.7862 -0.3244
  152SAPE  H12Y16901   4.723   0.758   7.844  0.4643 -1.0884 -2.0924
  152SAPE  C31316902   4.816   0.864   8.010 -0.6487 -0.6964  0.2032
  152SAPE  H13X16903   4.913   0.868   8.064 -0.6222 -0.8339  0.1654
  152SAPE  H13Y16904   4.747   0.794   8.061 -1.3866 -1.4225 -1.7088
  152SAPE  C31416905   4.760   1.013   8.040  0.8939  0.5001 -0.1238
  152SAPE  H14X16906   4.662   1.036   7.993  0.2013  0.0651  1.0640
  152SAPE  H14Y16907   4.844   1.075   8.002 -0.8900  0.9034 -3.8529
  152SAPE  C31516908   4.740   1.045   8.188 -0.7944  0.4619 -0.5392
  152SAPE  H15X16909   4.845   1.024   8.218 -0.9037 -2.1407 -1.7393
  152SAPE  H15Y16910   4.679   0.970   8.242  0.0415  0.7455  0.8357
  152SAPE  C31616911   4.701   1.190   8.239 -0.3400  0.4280  0.1695
  152SAPE  H16X16912   4.782   1.260   8.206 -1.3303  0.8670 -1.4242
  152SAPE  H16Y16913   4.681   1.192   8.348 -2.2396 -0.7160 -0.1256
  152SAPE  C31716914   4.564   1.238   8.182  0.4807 -0.8611  0.1253
  152SAPE  H17X16915   4.483   1.167   8.209  1.9629 -1.8721  2.1879
  152SAPE  H17Y16916   4.585   1.248   8.074 -0.0608  1.6092  0.1862
  152SAPE  C31816917   4.528   1.377   8.237  0.3608  0.5071 -0.4748
  152SAPE  H18X16918   4.557   1.455   8.164 -2.1815 -0.1522 -2.3433
  152SAPE  H18Y16919   4.571   1.392   8.338 -0.6398  0.7966 -0.0784
  152SAPE  H18Z16920   4.418   1.389   8.239  0.5169  2.1642  1.8053
  153SAPE     N16921   3.914   0.812   6.228  0.0729  0.1636 -0.5287
  153SAPE   HN116922   3.992   0.870   6.267 -0.1338 -0.0340  0.2013
  153SAPE   HN216923   3.850   0.768   6.297  1.0138 -1.5315 -0.6858
  153SAPE   HN316924   3.955   0.727   6.185 -2.4175 -1.0843 -0.6027
  153SAPE   C1216925   3.842   0.897   6.129 -0.4437  0.2143  0.1181
  153SAPE  H12A16926   3.782   0.830   6.063 -0.0237 -0.7392  0.6953
  153SAPE  H12B16927   3.920   0.935   6.059  0.0861 -1.8668 -0.4684
  153SAPE   C1116928   3.750   0.998   6.200  0.4802  0.0501 -0.1464
  153SAPE  H11A16929   3.722   1.056   6.110  2.0717  1.2815  0.0922
  153SAPE  H11B16930   3.814   1.058   6.269  1.4786 -2.9034  1.6848
  153SAPE     P16931   3.531   1.040   6.333 -0.1455  0.0739  0.0334
  153SAPE   O1316932   3.597   1.130   6.435 -0.0544 -0.0618 -0.0425
  153SAPE   O1416933   3.453   1.107   6.223 -0.4274 -0.0946 -0.1947
  153SAPE   O1216934   3.632   0.941   6.268 -0.1572  0.6278  0.4251
  153SAPE   O1116935   3.425   0.947   6.405 -0.7364 -0.3136 -0.5017
  153SAPE    C116936   3.479   0.821   6.454 -0.1514 -0.7899  0.3556
  153SAPE    HA16937   3.512   0.763   6.366 -1.1073  1.7368 -1.8253
  153SAPE    HB16938   3.557   0.841   6.530 -0.4921 -1.2010  0.8181
  153SAPE    C216939   3.370   0.731   6.524  0.1839 -0.0422  0.4967
  153SAPE    HS16940   3.285   0.728   6.453 -0.2954  1.9328  0.9114
  153SAPE   O2116941   3.331   0.791   6.653  0.5809 -0.5316  0.0448
  153SAPE   C2116942   3.227   0.870   6.656 -0.3718  0.4380 -0.1275
  153SAPE   O2216943   3.146   0.879   6.567 -0.5228 -0.2771 -0.2110
  153SAPE   C2216944   3.221   0.948   6.786  0.1057 -1.1401  0.1042
  153SAPE   H2R16945   3.164   0.882   6.855 -0.3507 -0.2675  0.5831
  153SAPE   H2S16946   3.323   0.958   6.830  0.5453  1.5235 -1.2919
  153SAPE    C316947   3.418   0.583   6.544  0.4689  0.0625 -0.0433
  153SAPE    HX16948   3.420   0.534   6.444 -0.7933  0.3845 -0.2400
  153SAPE    HY16949   3.339   0.534   6.605 -0.2850  0.8560 -0.3596
  153SAPE   O3116950   3.544   0.567   6.611 -0.1448  0.7742 -0.3006
  153SAPE   C3116951   3.551   0.493   6.722  0.5452 -0.2298  0.2812
  153SAPE   O3216952   3.459   0.427   6.765 -0.4485  0.7315 -0.0525
  153SAPE   C3216953   3.696   0.494   6.762 -0.9774 -0.0372 -0.4358
  153SAPE   H2X16954   3.737   0.596   6.750 -1.2697 -0.0120 -1.3057
  153SAPE   H2Y16955   3.751   0.431   6.689  0.2653  0.2164  0.2552
  153SAPE   C2316956   3.155   1.092   6.791  0.8327 -0.0358 -0.1561
  153SAPE   H3R16957   3.056   1.084   6.740  1.1219 -1.5639 -0.5332
  153SAPE   H3S16958   3.219   1.157   6.728  0.4654  1.0391  0.5577
  153SAPE   C2416959   3.133   1.143   6.935  0.2843 -0.1587 -0.3757
  153SAPE   H4R16960   3.090   1.068   7.005 -1.4883  0.5526 -0.6584
  153SAPE   H4S16961   3.082   1.241   6.931  3.1007  1.3695 -3.3702
  153SAPE   C2516962   3.268   1.177   6.994 -0.4169 -0.2550 -0.6038
  153SAPE   H5R16963   3.321   1.248   6.929 -0.3054 -0.4296 -0.7057
  153SAPE   C2616964   3.315   1.139   7.113 -0.5299 -0.1802 -0.1392
  153SAPE   H6R16965   3.414   1.181   7.134 -0.2006  0.2974 -2.3759
  153SAPE   C2716966   3.251   1.046   7.215 -0.0862  0.8200  0.1509
  153SAPE   H7R16967   3.141   1.060   7.224  0.2481  3.0724  1.2246
  153SAPE   H7S16968   3.284   1.073   7.317  2.1646 -0.5292 -0.1417
  153SAPE   C2816969   3.274   0.900   7.188 -0.0493  0.1669 -0.0095
  153SAPE   H8R16970   3.235   0.864   7.092 -0.8813  0.0005  0.3849
  153SAPE   C2916971   3.318   0.815   7.280  0.5120  0.1180  0.3027
  153SAPE   H9R16972   3.338   0.712   7.247 -2.8583 -2.0350  4.1089
  153SAPE  C21016973   3.366   0.835   7.420  0.0037 -0.6010 -0.2796
  153SAPE  H10R16974   3.368   0.939   7.458 -1.3952 -0.8478  0.5666
  153SAPE  H10S16975   3.471   0.797   7.421 -0.2593 -1.3824 -1.0850
  153SAPE  C21116976   3.295   0.738   7.508  0.3150 -0.1114 -0.1664
  153SAPE  H11R16977   3.283   0.643   7.454  0.5791 -0.1092 -0.2284
  153SAPE  C21216978   3.257   0.751   7.637 -0.1905 -0.1121 -0.0405
  153SAPE  H12R16979   3.185   0.675   7.668 -2.2896  1.8287  0.0986
  153SAPE  C21316980   3.275   0.868   7.738  0.5906  0.3311 -0.7845
  153SAPE  H13R16981   3.187   0.887   7.803  1.7930 -0.2107  1.0637
  153SAPE  H13S16982   3.286   0.966   7.685  3.6591 -0.6872 -2.2876
  153SAPE  C21416983   3.405   0.841   7.807  0.1467  0.1252  0.0586
  153SAPE  H14R16984   3.478   0.800   7.736 -1.5069 -0.6440 -1.2703
  153SAPE  C21516985   3.444   0.863   7.937  0.2782 -0.2156  0.8540
  153SAPE  H15R16986   3.541   0.820   7.968 -0.0973 -0.9445  1.0213
  153SAPE  C21616987   3.346   0.910   8.040 -0.4219 -1.1245  1.1078
  153SAPE  H16R16988   3.281   0.824   8.066  0.1497 -3.6608 -4.4677
  153SAPE  H16S16989   3.287   0.990   7.991  1.0235  0.3550  1.6889
  153SAPE  C21716990   3.408   0.967   8.173  0.1255 -0.1323  0.4542
  153SAPE  H17R16991   3.326   1.013   8.232  0.6770  2.6902 -0.7941
  153SAPE  H17S16992   3.469   1.058   8.155 -3.1070  1.8824 -1.3452
  153SAPE  C21816993   3.487   0.869   8.252 -0.1705 -0.3971  0.3135
  153SAPE  H18R16994   3.573   0.834   8.191 -0.1557 -0.2155  0.2292
  153SAPE  H18S16995   3.422   0.780   8.264  2.9996 -2.8649  0.2444
  153SAPE  C21916996   3.541   0.917   8.390  0.1154 -0.4617  0.0456
  153SAPE  H19R16997   3.591   0.841   8.454 -0.0485 -0.5811  0.0334
  153SAPE  H19S16998   3.451   0.953   8.444 -1.9590 -0.7814 -2.9533
  153SAPE  C22016999   3.626   1.045   8.383  0.5197 -0.3747  0.5084
  153SAPE  H20R17000   3.655   1.082   8.483  1.0528  1.0920 -0.1641
  153SAPE  H20S17001   3.554   1.124   8.352 -0.6228 -0.7531  2.0494
  153SAPE  H20T17002   3.718   1.039   8.321  0.1748 -0.9176  0.0335
  153SAPE   C3317003   3.707   0.445   6.908  0.3894 -0.1531  0.0065
  153SAPE   H3X17004   3.807   0.397   6.916  0.7104  0.6514  1.0807
  153SAPE   H3Y17005   3.637   0.362   6.933 -2.8017  2.6857  1.1921
  153SAPE   C3417006   3.691   0.546   7.023 -0.1501  0.1320 -0.7241
  153SAPE   H4X17007   3.587   0.583   7.034 -0.1897 -0.1178 -0.2407
  153SAPE   H4Y17008   3.755   0.636   7.011 -0.7600  0.3998 -2.2566
  153SAPE   C3517009   3.729   0.479   7.163 -0.5675  0.3374 -0.2990
  153SAPE   H5X17010   3.840   0.475   7.170 -0.6559 -2.1386  0.9578
  153SAPE   H5Y17011   3.677   0.380   7.166  0.8217 -0.4110  2.8182
  153SAPE   C3617012   3.671   0.555   7.278  0.5397 -0.7479 -0.7344
  153SAPE   H6X17013   3.563   0.577   7.261  0.4427 -2.4847 -2.6962
  153SAPE   H6Y17014   3.721   0.654   7.291 -0.1547 -0.4188 -0.5214
  153SAPE   C3717015   3.684   0.480   7.406  0.3069  0.9455 -0.4623
  153SAPE   H7X17016   3.786   0.445   7.434 -0.7987 -1.4045  0.9220
  153SAPE   H7Y17017   3.616   0.392   7.401  0.9609  0.4804 -1.6861
  153SAPE   C3817018   3.641   0.568   7.527 -0.3030 -0.2400 -0.1037
  153SAPE   H8X17019   3.539   0.610   7.512  0.2148  0.9980 -0.3398
  153SAPE   H8Y17020   3.712   0.653   7.539  0.3231 -0.5865 -1.2104
  153SAPE   C3917021   3.659   0.484   7.655  0.4775 -0.3355  0.0900
  153SAPE   H9X17022   3.751   0.422   7.642  1.6317  1.5314 -1.0266
  153SAPE   H9Y17023   3.568   0.421   7.667 -0.0367  0.4001  0.0734
  153SAPE  C31017024   3.671   0.575   7.784 -0.6408  0.0787  0.2645
  153SAPE  H10X17025   3.585   0.643   7.803 -1.1154  0.1453 -1.8724
  153SAPE  H10Y17026   3.757   0.642   7.763  1.2952 -1.8555  1.5740
  153SAPE  C31117027   3.719   0.499   7.914  0.2511  1.3256  0.2556
  153SAPE  H11X17028   3.750   0.580   7.984 -0.0321  1.2199  0.5084
  153SAPE  H11Y17029   3.814   0.444   7.899 -1.0690 -1.0310 -0.0086
  153SAPE  C31217030   3.619   0.408   7.983  0.5313  0.1313 -0.6919
  153SAPE  H12X17031   3.582   0.324   7.922 -0.1049 -1.2276  1.4591
  153SAPE  H12Y17032   3.541   0.486   7.998 -0.3051 -0.6406 -1.0048
  153SAPE  C31317033   3.668   0.351   8.121  0.4688 -0.1846  0.3252
  153SAPE  H13X17034   3.744   0.273   8.098  0.7189 -0.1825  1.1121
  153SAPE  H13Y17035   3.586   0.293   8.169  2.1491  0.7602  4.7854
  153SAPE  C31417036   3.719   0.454   8.222  0.0794  0.1037  0.9911
  153SAPE  H14X17037   3.639   0.527   8.247  1.0086  1.2078  0.8490
  153SAPE  H14Y17038   3.801   0.521   8.189  1.3011 -1.2417  1.2172
  153SAPE  C31517039   3.767   0.390   8.351 -0.5285  0.1364 -0.1745
  153SAPE  H15X17040   3.833   0.306   8.320  1.3466  1.4661  0.0834
  153SAPE  H15Y17041   3.678   0.349   8.403  0.1604  0.5969  1.4261
  153SAPE  C31617042   3.861   0.489   8.421  0.0815  0.8587  0.1806
  153SAPE  H16X17043   3.952   0.500   8.357  0.1910  0.5832  0.2879
  153SAPE  H16Y17044   3.898   0.427   8.505  0.5291  0.8652 -0.0090
  153SAPE  C31717045   3.802   0.609   8.479 -0.5103  0.2815  0.9429
  153SAPE  H17X17046   3.707   0.581   8.530  0.1250 -1.7672  1.0713
  153SAPE  H17Y17047   3.777   0.679   8.397  1.1005  1.5991  1.5203
  153SAPE  C31817048   3.893   0.672   8.588  0.9443  0.6991 -0.7514
  153SAPE  H18X17049   3.840   0.764   8.620  3.2478  1.7169  0.3850
  153SAPE  H18Y17050   3.985   0.705   8.535  1.2516  0.3776 -0.4216
  153SAPE  H18Z17051   3.913   0.602   8.672 -1.0445 -0.3898 -1.1218
  154SAPE     N17052   0.398   0.836   6.162 -0.1471 -0.4729  0.1485
  154SAPE   HN117053   0.310   0.807   6.210 -1.2755  3.0680  0.4592
  154SAPE   HN217054   0.478   0.837   6.230  2.4125  1.7373 -2.6302
  154SAPE   HN317055   0.382   0.935   6.138  0.8001 -0.4217 -0.3355
  154SAPE   C1217056   0.419   0.751   6.041  0.7318 -0.4934  0.2835
  154SAPE  H12A17057   0.488   0.811   5.978 -0.3742  1.3925  0.7909
  154SAPE  H12B17058   0.320   0.743   5.992  0.8384  2.8121 -0.7318
  154SAPE   C1117059   0.487   0.617   6.073  0.0200 -0.9424  0.1549
  154SAPE  H11A17060   0.584   0.651   6.114  0.2493  1.2847 -2.0100
  154SAPE  H11B17061   0.503   0.569   5.975  0.1791 -0.8483  0.1354
  154SAPE     P17062   0.473   0.406   6.227  0.1450  0.2680  0.2993
  154SAPE   O1317063   0.444   0.285   6.149 -0.8022 -0.0727  0.7473
  154SAPE   O1417064   0.610   0.451   6.236  0.5231  0.3027  0.1621
  154SAPE   O1217065   0.406   0.524   6.150  0.6416  0.0884  0.4649
  154SAPE   O1117066   0.406   0.399   6.370 -0.1567 -0.8579  0.3388
  154SAPE    C117067   0.352   0.530   6.416 -0.7401  0.6736 -0.2560
  154SAPE    HA17068   0.416   0.618   6.396  0.7725 -0.2534  0.3907
  154SAPE    HB17069   0.252   0.557   6.375 -1.1455  0.4995  0.5790
  154SAPE    C217070   0.318   0.531   6.567 -0.0356 -0.2633  0.6608
  154SAPE    HS17071   0.218   0.579   6.576  0.2209  0.8432 -1.6639
  154SAPE   O2117072   0.422   0.605   6.629  0.7897 -0.1576  0.0226
  154SAPE   C2117073   0.422   0.735   6.616  0.1970  0.1131  0.0374
  154SAPE   O2217074   0.348   0.803   6.547  0.4312 -0.0440  0.0065
  154SAPE   C2217075   0.523   0.799   6.710 -0.5055  0.4562 -0.5573
  154SAPE   H2R17076   0.602   0.723   6.729  0.0687  1.2639  0.4150
  154SAPE   H2S17077   0.569   0.886   6.659 -0.3437  0.6265 -0.1266
  154SAPE    C317078   0.309   0.386   6.628 -0.1676  0.4528  0.4689
  154SAPE    HX17079   0.407   0.337   6.613 -0.8619 -1.3176  1.3648
  154SAPE    HY17080   0.237   0.331   6.564  0.9085  1.6267 -1.8810
  154SAPE   O3117081   0.253   0.391   6.756 -0.0404 -0.6045  0.0586
  154SAPE   C3117082   0.321   0.365   6.863 -0.0674 -0.3440 -0.2083
  154SAPE   O3217083   0.441   0.340   6.862 -0.1310  0.2560  0.4261
  154SAPE   C3217084   0.221   0.339   6.980 -0.3750  0.1576  1.1257
  154SAPE   H2X17085   0.222   0.228   6.987 -1.4272 -0.0349 -0.9526
  154SAPE   H2Y17086   0.125   0.390   6.959  1.3201  3.8395  1.3987
  154SAPE   C2317087   0.454   0.860   6.838  0.0712  0.3027  0.0063
  154SAPE   H3R17088   0.378   0.927   6.792  2.0483  2.5231 -0.2418
  154SAPE   H3S17089   0.524   0.929   6.889  0.8300  1.4098 -2.3474
  154SAPE   C2417090   0.396   0.761   6.942 -0.2234 -0.3855 -0.1863
  154SAPE   H4R17091   0.341   0.680   6.890 -1.4759 -0.5009  1.2440
  154SAPE   H4S17092   0.331   0.818   7.011  2.5092  1.7491  0.8314
  154SAPE   C2517093   0.501   0.673   7.000 -0.4731  0.2371 -0.1253
  154SAPE   H5R17094   0.563   0.635   6.918  1.8905  2.6208  0.4436
  154SAPE   C2617095   0.517   0.653   7.131 -0.6658  0.4983 -0.0603
  154SAPE   H6R17096   0.600   0.588   7.165 -1.5439 -0.5542  0.1450
  154SAPE   C2717097   0.426   0.711   7.240 -0.3888  0.3134 -0.0406
  154SAPE   H7R17098   0.422   0.632   7.318 -3.7582  1.0967  0.7303
  154SAPE   H7S17099   0.325   0.731   7.199  0.4515  0.5929 -2.0731
  154SAPE   C2817100   0.484   0.829   7.310 -0.5992 -1.1827 -0.3660
  154SAPE   H8R17101   0.541   0.904   7.253 -0.0810 -1.8670 -0.7554
  154SAPE   C2917102   0.472   0.855   7.439 -0.4399 -0.4002 -0.1544
  154SAPE   H9R17103   0.524   0.944   7.477 -0.8549 -0.6330  1.0017
  154SAPE  C21017104   0.409   0.770   7.549  0.2492 -0.3278 -0.6932
  154SAPE  H10R17105   0.308   0.736   7.520 -0.1945 -0.2305  0.7147
  154SAPE  H10S17106   0.394   0.824   7.645 -1.9139 -1.1516 -0.5182
  154SAPE  C21117107   0.490   0.649   7.570  0.0467  0.2267  0.0782
  154SAPE  H11R17108   0.538   0.606   7.481  2.5159  1.7110  0.6139
  154SAPE  C21217109   0.521   0.584   7.684  0.4399  0.5462  0.3453
  154SAPE  H12R17110   0.590   0.499   7.674 -0.5332 -0.1880 -0.3744
  154SAPE  C21317111   0.470   0.620   7.818  0.3820 -0.4195  0.5468
  154SAPE  H13R17112   0.431   0.522   7.851 -3.3858  1.4501  2.3644
  154SAPE  H13S17113   0.374   0.676   7.818  0.3686 -0.4104  2.1462
  154SAPE  C21417114   0.562   0.666   7.926  0.6640  0.2458  0.6812
  154SAPE  H14R17115   0.628   0.752   7.906  1.0358 -0.0472  0.6368
  154SAPE  C21517116   0.559   0.607   8.052  0.1033  0.0107 -0.7273
  154SAPE  H15R17117   0.633   0.640   8.126  1.7153 -3.6699 -0.5165
  154SAPE  C21617118   0.472   0.501   8.109  0.5383  0.0452  0.4010
  154SAPE  H16R17119   0.460   0.413   8.043  0.5372  0.1014  0.3270
  154SAPE  H16S17120   0.371   0.547   8.113  1.1828  1.7697 -1.5205
  154SAPE  C21717121   0.529   0.463   8.248  0.3335 -0.4192  0.5781
  154SAPE  H17R17122   0.454   0.399   8.300 -1.1707 -0.3898 -1.4448
  154SAPE  H17S17123   0.545   0.561   8.298 -1.3085 -0.0050  0.3587
  154SAPE  C21817124   0.664   0.383   8.236  0.8822 -0.1952 -0.3547
  154SAPE  H18R17125   0.751   0.450   8.220 -1.0193  1.9477 -2.6555
  154SAPE  H18S17126   0.654   0.320   8.145  2.1966  2.3939 -2.4510
  154SAPE  C21917127   0.687   0.300   8.364 -0.0701 -0.9602 -0.4007
  154SAPE  H19R17128   0.776   0.238   8.342  0.1688  0.2971 -3.4707
  154SAPE  H19S17129   0.605   0.226   8.377  0.5214 -1.7081 -0.8313
  154SAPE  C22017130   0.718   0.379   8.490  0.3415  0.3073 -0.1518
  154SAPE  H20R17131   0.717   0.312   8.579  0.0950  1.6730  0.9189
  154SAPE  H20S17132   0.644   0.460   8.507  0.9586  0.5103  1.7790
  154SAPE  H20T17133   0.817   0.429   8.485  1.1257 -1.3096 -1.4994
  154SAPE   C3317134   0.243   0.402   7.116 -1.0805 -0.0212  0.1396
  154SAPE   H3X17135   0.197   0.503   7.115  0.0511  0.5554 -2.2988
  154SAPE   H3Y17136   0.354   0.408   7.127 -1.1112 -2.4043  3.1115
  154SAPE   C3417137   0.191   0.319   7.236  0.6272 -0.3518  1.0350
  154SAPE   H4X17138   0.233   0.218   7.220 -0.7435 -1.1522  2.2844
  154SAPE   H4Y17139   0.081   0.309   7.238  0.2969  0.9842 -2.4438
  154SAPE   C3517140   0.247   0.366   7.376 -0.3035 -0.2716 -0.0313
  154SAPE   H5X17141   0.218   0.470   7.401  1.3775  0.4211 -0.7717
  154SAPE   H5Y17142   0.358   0.362   7.373 -0.2859 -0.2904 -3.1841
  154SAPE   C3617143   0.186   0.277   7.490  0.1814 -0.4346  0.5908
  154SAPE   H6X17144   0.252   0.189   7.509  2.9402  1.3287 -0.1856
  154SAPE   H6Y17145   0.083   0.245   7.463 -0.5538  0.3237  2.3576
  154SAPE   C3717146   0.186   0.354   7.624 -0.1797 -0.1310  0.2377
  154SAPE   H7X17147   0.116   0.441   7.619 -0.1689 -0.0981 -4.5743
  154SAPE   H7Y17148   0.284   0.402   7.643  1.6297 -3.0843 -0.9432
  154SAPE   C3817149   0.149   0.276   7.745 -0.3745  0.2076 -0.0587
  154SAPE   H8X17150   0.208   0.184   7.760  1.2439  1.3171  0.6976
  154SAPE   H8Y17151   0.043   0.241   7.741  0.1073 -1.4717  0.8097
  154SAPE   C3917152   0.163   0.359   7.868  0.0354 -0.2010  0.6644
  154SAPE   H9X17153   0.094   0.445   7.860  1.4348  0.8248 -1.2862
  154SAPE   H9Y17154   0.263   0.408   7.872  0.0848 -0.1575 -0.5913
  154SAPE  C31017155   0.129   0.286   7.997  0.0755  0.4618 -0.2830
  154SAPE  H10X17156   0.030   0.234   7.999  0.5669 -0.4788  1.3268
  154SAPE  H10Y17157   0.133   0.356   8.083  0.1215 -1.6162  1.4931
  154SAPE  C31117158   0.235   0.185   8.032  0.5170  0.0386  0.1988
  154SAPE  H11X17159   0.335   0.229   8.011 -0.3634  2.0378 -0.0353
  154SAPE  H11Y17160   0.220   0.108   7.953 -1.1528 -0.6539  1.1517
  154SAPE  C31217161   0.228   0.132   8.178 -0.1096  0.5683 -0.2126
  154SAPE  H12X17162   0.125   0.094   8.194  1.3205 -3.0607  1.5660
  154SAPE  H12Y17163   0.246   0.220   8.243 -0.6158  0.2105  0.4185
  154SAPE  C31317164   0.333   0.033   8.214  0.5414  0.1110  0.5936
  154SAPE  H13X17165   0.438   0.069   8.202  0.4464 -0.0732 -0.9711
  154SAPE  H13Y17166   0.323  -0.048   8.139  0.5578  1.3468 -0.7823
  154SAPE  C31417167   0.321  -0.032   8.355 -0.8123 -0.0229  0.0730
  154SAPE  H14X17168   0.217  -0.066   8.374 -1.3163  1.3162 -0.1966
  154SAPE  H14Y17169   0.334   0.044   8.436 -1.6092 -0.2750  0.4469
  154SAPE  C31517170   0.428  -0.142   8.373 -0.4155 -0.0330 -0.4985
  154SAPE  H15X17171   0.529  -0.107   8.342 -1.0359  0.9009 -1.5598
  154SAPE  H15Y17172   0.412  -0.221   8.296 -1.1046  1.9974 -2.5484
  154SAPE  C31617173   0.410  -0.201   8.515  0.1635  0.4500 -0.0360
  154SAPE  H16X17174   0.460  -0.301   8.512 -0.1328  0.3081 -2.7743
  154SAPE  H16Y17175   0.302  -0.220   8.533  0.4586 -2.6966 -0.9466
  154SAPE  C31717176   0.450  -0.113   8.630 -0.7315 -0.3567 -0.1636
  154SAPE  H17X17177   0.420  -0.161   8.726  0.0138 -0.2381  0.1289
  154SAPE  H17Y17178   0.388  -0.021   8.633 -0.0058  0.1472  3.0482
  154SAPE  C31817179   0.601  -0.063   8.627  0.9927  0.3735  0.5630
  154SAPE  H18X17180   0.605   0.001   8.536 -1.9587  1.0481  0.8019
  154SAPE  H18Y17181   0.666  -0.153   8.623  1.3526  0.4490  2.9972
  154SAPE  H18Z17182   0.628  -0.010   8.721  1.6625 -1.9324  1.7399
  155SAPE     N17183   1.579   3.158   6.325 -0.8194 -0.2144 -0.4925
  155SAPE   HN117184   1.677   3.123   6.321 -0.6497  0.1216  0.4521
  155SAPE   HN217185   1.539   3.088   6.260  0.4458 -1.3510 -0.0989
  155SAPE   HN317186   1.571   3.246   6.270 -2.1240 -1.4154 -2.3654
  155SAPE   C1217187   1.515   3.158   6.464  0.1922  0.0707  0.6234
  155SAPE  H12A17188   1.454   3.066   6.478  1.3545 -1.1727 -1.8201
  155SAPE  H12B17189   1.442   3.241   6.456  1.1124  0.7251 -2.6078
  155SAPE   C1117190   1.610   3.188   6.578  0.6716  0.0301 -1.4290
  155SAPE  H11A17191   1.678   3.101   6.591  1.7693  0.9188 -1.0974
  155SAPE  H11B17192   1.553   3.189   6.673 -0.1023  1.1780 -1.8871
  155SAPE     P17193   1.665   3.446   6.602 -0.5565 -0.1426  0.0936
  155SAPE   O1317194   1.725   3.530   6.500  0.0033 -0.3371  0.6389
  155SAPE   O1417195   1.519   3.450   6.622 -0.7862 -0.3829  0.4035
  155SAPE   O1217196   1.701   3.299   6.559 -0.2998 -0.7212  0.1985
  155SAPE   O1117197   1.749   3.457   6.735 -0.4297 -0.1915 -0.3179
  155SAPE    C117198   1.783   3.338   6.800 -0.2294  0.9606 -0.5858
  155SAPE    HA17199   1.689   3.289   6.832 -0.5713 -0.7558 -3.7463
  155SAPE    HB17200   1.846   3.269   6.739  0.7201 -0.6259  2.0072
  155SAPE    C217201   1.875   3.358   6.918 -0.3873  0.0149 -0.7283
  155SAPE    HS17202   1.922   3.260   6.942 -2.3207 -0.1836  2.8876
  155SAPE   O2117203   1.795   3.409   7.023  0.1775 -0.1037  0.3324
  155SAPE   C2117204   1.743   3.312   7.096 -0.2221  0.9996  0.2526
  155SAPE   O2217205   1.763   3.193   7.089  0.0888  0.2405 -0.0214
  155SAPE   C2217206   1.663   3.382   7.207 -0.2497  0.9169 -0.7975
  155SAPE   H2R17207   1.599   3.301   7.248  1.3683 -1.6079 -2.9619
  155SAPE   H2S17208   1.731   3.424   7.285  0.7265  0.8206 -1.5794
  155SAPE    C317209   1.994   3.452   6.885  0.2756 -0.4613  0.1698
  155SAPE    HX17210   1.954   3.541   6.833 -0.0094 -0.0447  1.0858
  155SAPE    HY17211   2.050   3.393   6.809 -1.7833  1.3764 -2.9924
  155SAPE   O3117212   2.069   3.478   7.008  0.3236 -0.0602  0.2862
  155SAPE   C3117213   2.079   3.605   7.036 -0.0312 -0.0589 -0.4091
  155SAPE   O3217214   2.027   3.699   6.977 -0.6307 -0.3884  0.0042
  155SAPE   C3217215   2.145   3.618   7.171  0.2281 -0.6667  0.1954
  155SAPE   H2X17216   2.218   3.536   7.186  2.0812  1.1038  1.4891
  155SAPE   H2Y17217   2.065   3.601   7.246 -1.4511 -2.5951 -1.8926
  155SAPE   C2317218   1.569   3.501   7.162  1.0868  0.0251 -0.4034
  155SAPE   H3R17219   1.494   3.471   7.085 -1.2927 -3.3715  2.8655
  155SAPE   H3S17220   1.640   3.577   7.123  1.2559 -0.2033 -0.5482
  155SAPE   C2417221   1.486   3.556   7.280  0.2481  0.1694 -0.2029
  155SAPE   H4R17222   1.412   3.487   7.327 -1.5207  0.9440 -1.7343
  155SAPE   H4S17223   1.420   3.637   7.242 -0.0181  0.5412  0.9919
  155SAPE   C2517224   1.579   3.609   7.385 -0.0910 -0.1705  0.0581
  155SAPE   H5R17225   1.642   3.684   7.335  0.6905 -2.0378 -1.9471
  155SAPE   C2617226   1.587   3.576   7.516  0.6341  0.3580  0.0939
  155SAPE   H6R17227   1.680   3.604   7.568  1.4729 -1.7025 -0.2084
  155SAPE   C2717228   1.497   3.477   7.582  0.1562  0.5307  0.3239
  155SAPE   H7R17229   1.408   3.441   7.527  0.0016  0.5809  0.5406
  155SAPE   H7S17230   1.461   3.516   7.679 -1.3025 -2.6914  1.1941
  155SAPE   C2817231   1.571   3.349   7.608 -0.7463  0.5099  0.4040
  155SAPE   H8R17232   1.654   3.317   7.542  0.3251 -0.5623  2.1745
  155SAPE   C2917233   1.561   3.269   7.718  0.4187 -0.2598  0.0120
  155SAPE   H9R17234   1.629   3.183   7.728  1.0544  0.0379 -1.4144
  155SAPE  C21017235   1.469   3.288   7.838 -0.2835  0.6107  0.2023
  155SAPE  H10R17236   1.367   3.288   7.794 -0.5162 -2.2555  0.5739
  155SAPE  H10S17237   1.490   3.392   7.871  1.1206  0.5622 -0.4221
  155SAPE  C21117238   1.477   3.189   7.947 -0.0065  0.6908  0.6877
  155SAPE  H11R17239   1.487   3.083   7.921 -1.8645  0.7114 -0.3341
  155SAPE  C21217240   1.472   3.214   8.082 -0.0200 -0.2983  0.6054
  155SAPE  H12R17241   1.475   3.130   8.153  0.6327  1.2405  2.4760
  155SAPE  C21317242   1.449   3.351   8.152  0.1448  0.5874  0.1685
  155SAPE  H13R17243   1.379   3.322   8.233 -0.9698 -0.1248 -1.0190
  155SAPE  H13S17244   1.397   3.424   8.087 -1.9876 -1.2891 -0.3657
  155SAPE  C21417245   1.575   3.401   8.206 -0.4655  0.4441  0.2434
  155SAPE  H14R17246   1.663   3.390   8.142 -1.8770 -2.7145 -1.4320
  155SAPE  C21517247   1.594   3.481   8.310 -0.1816 -0.1156  0.5602
  155SAPE  H15R17248   1.695   3.516   8.334 -0.1116  0.6898 -0.8503
  155SAPE  C21617249   1.481   3.537   8.390  0.5466  1.0413 -0.4625
  155SAPE  H16R17250   1.383   3.514   8.342 -0.6992  0.5200  2.1824
  155SAPE  H16S17251   1.483   3.648   8.392  1.5720  1.0449  2.2232
  155SAPE  C21717252   1.471   3.479   8.530  0.0145  0.2452  0.5327
  155SAPE  H17R17253   1.570   3.461   8.577 -0.3738 -0.6257  1.0471
  155SAPE  H17S17254   1.419   3.380   8.532  0.1779  0.1545  0.2365
  155SAPE  C21817255   1.391   3.569   8.625 -0.0556 -0.3788 -0.5110
  155SAPE  H18R17256   1.300   3.585   8.563  0.9194 -2.2937 -2.5475
  155SAPE  H18S17257   1.448   3.664   8.639  1.3244 -1.1909 -0.5276
  155SAPE  C21917258   1.360   3.512   8.763 -0.0682  0.6802  0.4461
  155SAPE  H19R17259   1.380   3.586   8.843  2.1937 -1.0329  1.5671
  155SAPE  H19S17260   1.429   3.428   8.784  0.0351  0.5329 -0.4692
  155SAPE  C22017261   1.221   3.454   8.797 -0.6359  0.7961  0.4573
  155SAPE  H20R17262   1.130   3.516   8.782 -2.6106 -2.0197  0.0442
  155SAPE  H20S17263   1.223   3.418   8.902 -0.6588 -1.5767 -0.3122
  155SAPE  H20T17264   1.203   3.367   8.731 -1.2643  2.0357 -1.0750
  155SAPE   C3317265   2.200   3.757   7.190 -0.2413  0.0739 -0.1420
  155SAPE   H3X17266   2.120   3.833   7.205  0.0634  0.6490 -1.3210
  155SAPE   H3Y17267   2.254   3.797   7.101 -1.4448  1.9456 -0.0974
  155SAPE   C3417268   2.296   3.767   7.322  0.2284 -0.3723 -0.3414
  155SAPE   H4X17269   2.337   3.871   7.323 -0.3263 -0.1454  1.0178
  155SAPE   H4Y17270   2.381   3.698   7.304  1.3440  0.8410  0.1352
  155SAPE   C3517271   2.230   3.727   7.456  0.4256  0.3970  0.0035
  155SAPE   H5X17272   2.218   3.617   7.449 -0.9373  0.5261 -0.0123
  155SAPE   H5Y17273   2.123   3.758   7.457  0.5084  0.6815  0.3878
  155SAPE   C3617274   2.307   3.740   7.586 -1.0294  0.0223  0.0213
  155SAPE   H6X17275   2.340   3.846   7.586 -0.4636 -0.1218  1.7756
  155SAPE   H6Y17276   2.394   3.671   7.585  0.4421  1.7655  1.2930
  155SAPE   C3717277   2.224   3.716   7.712  0.0377  0.1352  0.3280
  155SAPE   H7X17278   2.187   3.611   7.709 -1.8080  0.7472 -0.0141
  155SAPE   H7Y17279   2.131   3.777   7.719 -0.8061 -0.8864 -1.2160
  155SAPE   C3817280   2.303   3.745   7.845 -0.5811  0.1944 -0.1523
  155SAPE   H8X17281   2.318   3.854   7.860  0.9453 -0.0515  0.2197
  155SAPE   H8Y17282   2.401   3.694   7.855 -1.5785 -1.5805  1.1523
  155SAPE   C3917283   2.234   3.677   7.970  1.1387 -0.4688  0.6695
  155SAPE   H9X17284   2.305   3.677   8.055 -0.7907  2.7093  2.4811
  155SAPE   H9Y17285   2.188   3.581   7.939 -1.4729  1.7312 -3.1229
  155SAPE  C31017286   2.111   3.742   8.036 -0.1553  0.5178  0.0299
  155SAPE  H10X17287   2.029   3.733   7.961  1.4087 -0.8257 -1.6166
  155SAPE  H10Y17288   2.145   3.847   8.048  0.1720  0.4101  0.0536
  155SAPE  C31117289   2.079   3.689   8.177  0.5911 -0.4937 -0.1932
  155SAPE  H11X17290   2.170   3.678   8.240 -0.4541 -2.0287  1.1116
  155SAPE  H11Y17291   2.037   3.588   8.162  0.3127 -0.3202 -0.6327
  155SAPE  C31217292   1.965   3.766   8.256 -1.7196  0.0599 -0.1309
  155SAPE  H12X17293   1.873   3.754   8.194  0.2614 -0.4279 -3.2025
  155SAPE  H12Y17294   1.990   3.872   8.278 -2.1419 -0.1190  1.3076
  155SAPE  C31317295   1.934   3.701   8.396 -0.6885  0.2384  0.0293
  155SAPE  H13X17296   2.029   3.703   8.453  0.0829 -1.3045 -1.1418
  155SAPE  H13Y17297   1.905   3.596   8.376 -0.1964  0.0996  0.0325
  155SAPE  C31417298   1.833   3.763   8.487  0.0516 -0.2113  0.5033
  155SAPE  H14X17299   1.730   3.747   8.446 -0.0366 -1.6693  1.2284
  155SAPE  H14Y17300   1.841   3.872   8.507  1.4726 -0.8500  4.1466
  155SAPE  C31517301   1.822   3.711   8.633  0.2006  0.1970  0.3812
  155SAPE  H15X17302   1.925   3.724   8.674 -0.2554  2.0695  1.0444
  155SAPE  H15Y17303   1.799   3.603   8.623  0.4515  0.2577 -1.0725
  155SAPE  C31617304   1.724   3.794   8.716 -0.7873 -0.2221  0.4959
  155SAPE  H16X17305   1.628   3.810   8.662 -1.4928 -0.5880  1.6219
  155SAPE  H16Y17306   1.775   3.892   8.727  1.1064 -1.3333  2.1660
  155SAPE  C31717307   1.690   3.732   8.852 -0.0472  0.0455  0.4927
  155SAPE  H17X17308   1.785   3.701   8.901  1.3935  0.6162 -1.7805
  155SAPE  H17Y17309   1.635   3.636   8.840  1.0239 -0.6314  0.8662
  155SAPE  C31817310   1.611   3.828   8.942 -0.0384 -1.0884  0.0806
  155SAPE  H18X17311   1.679   3.911   8.970 -0.8280 -0.6439  0.7057
  155SAPE  H18Y17312   1.576   3.771   9.030  2.1818  2.1834  3.3576
  155SAPE  H18Z17313   1.522   3.867   8.888  2.7305  0.2681 -4.0028
  156SAPE     N17314   6.512   0.994   6.129 -0.4496 -0.3260 -0.3820
  156SAPE   HN117315   6.454   1.080   6.132  0.0590  0.0593 -1.1699
  156SAPE   HN217316   6.448   0.912   6.130 -0.2896 -0.4594  1.0550
  156SAPE   HN317317   6.563   0.988   6.219 -3.2194 -0.2899  1.2750
  156SAPE   C1217318   6.606   0.971   6.013 -0.3217 -0.0936  0.9636
  156SAPE  H12A17319   6.627   1.063   5.955 -0.6033  1.0766  2.6481
  156SAPE  H12B17320   6.560   0.902   5.939  1.9510  0.0004 -0.6570
  156SAPE   C1117321   6.749   0.920   6.059 -0.4578 -0.0902 -0.6372
  156SAPE  H11A17322   6.797   1.010   6.102  0.5801 -0.3263 -1.2658
  156SAPE  H11B17323   6.813   0.884   5.976  1.4926 -1.1359  1.2056
  156SAPE     P17324   6.840   0.803   6.284 -0.0420 -0.5481 -0.2903
  156SAPE   O1317325   6.971   0.749   6.235 -0.2936 -0.5948  0.0663
  156SAPE   O1417326   6.844   0.932   6.360 -0.0242  0.3412 -0.0289
  156SAPE   O1217327   6.741   0.811   6.162 -0.1775 -0.0550 -0.0961
  156SAPE   O1117328   6.769   0.690   6.378  0.6815  0.4937 -0.1514
  156SAPE    C117329   6.641   0.695   6.440  0.1311  0.7521  0.1211
  156SAPE    HA17330   6.581   0.787   6.427 -1.0560  0.2090  1.5612
  156SAPE    HB17331   6.586   0.615   6.386 -0.4992  1.7338 -0.7262
  156SAPE    C217332   6.647   0.642   6.592 -0.3405 -0.4108  0.4667
  156SAPE    HS17333   6.549   0.649   6.643 -0.0909  0.4168  0.8488
  156SAPE   O2117334   6.750   0.716   6.661 -0.1378 -0.0368 -0.5397
  156SAPE   C2117335   6.726   0.842   6.695 -0.6420  0.0347  0.0543
  156SAPE   O2217336   6.620   0.900   6.677 -0.4172 -0.1884  0.7333
  156SAPE   C2217337   6.849   0.898   6.771 -0.2805  0.2643 -0.1931
  156SAPE   H2R17338   6.901   0.817   6.825 -0.8268  0.0007 -0.0545
  156SAPE   H2S17339   6.921   0.936   6.695 -0.8237  2.8808  0.5066
  156SAPE    C317340   6.672   0.488   6.589  0.3230  0.7001 -0.4351
  156SAPE    HX17341   6.776   0.463   6.557  0.4629 -2.9705  2.2562
  156SAPE    HY17342   6.605   0.434   6.520 -0.9568 -1.3205  2.2057
  156SAPE   O3117343   6.652   0.424   6.714 -0.2589  0.0930  0.0055
  156SAPE   C3117344   6.711   0.304   6.724  0.2466 -0.2588  0.1300
  156SAPE   O3217345   6.783   0.257   6.636  0.0395 -0.1964 -0.7926
  156SAPE   C3217346   6.677   0.241   6.859 -0.2395 -0.1352  0.3146
  156SAPE   H2X17347   6.575   0.270   6.890 -1.1350  0.2796 -2.7357
  156SAPE   H2Y17348   6.735   0.288   6.942 -2.4239 -1.0675  2.4758
  156SAPE   C2317349   6.815   1.016   6.865  0.0777 -0.1799 -0.3004
  156SAPE   H3R17350   6.746   1.082   6.808  2.4264  1.3487 -1.5147
  156SAPE   H3S17351   6.908   1.074   6.886  0.2821  0.0979 -1.8745
  156SAPE   C2417352   6.761   0.977   6.999  1.1549 -0.1941 -0.1226
  156SAPE   H4R17353   6.661   0.931   6.984  0.7035  0.7696 -0.1312
  156SAPE   H4S17354   6.743   1.071   7.055  4.2236  2.1251 -2.6520
  156SAPE   C2517355   6.850   0.892   7.086 -0.4364  0.6413 -0.4787
  156SAPE   H5R17356   6.958   0.913   7.084 -0.5126  1.1748  0.3224
  156SAPE   C2617357   6.812   0.778   7.145  0.2618 -0.8220 -0.1490
  156SAPE   H6R17358   6.887   0.709   7.186  2.6330  1.1850 -0.8710
  156SAPE   C2717359   6.667   0.728   7.130  0.1918  0.5450  0.0773
  156SAPE   H7R17360   6.593   0.809   7.145  0.9484  1.1705  0.4982
  156SAPE   H7S17361   6.664   0.654   7.213  1.7324  0.8629  0.4542
  156SAPE   C2817362   6.640   0.663   6.992  0.3962 -0.0805  0.3610
  156SAPE   H8R17363   6.718   0.677   6.915 -0.5824 -1.6888 -0.9610
  156SAPE   C2917364   6.533   0.573   6.977 -0.8908 -0.5912  0.6389
  156SAPE   H9R17365   6.515   0.529   6.878 -1.0573  2.3983 -0.7693
  156SAPE  C21017366   6.436   0.537   7.089 -0.3437  0.5958 -0.6036
  156SAPE  H10R17367   6.337   0.567   7.048  0.1692 -1.1627 -3.3626
  156SAPE  H10S17368   6.451   0.599   7.180  0.6455 -0.7226  0.1773
  156SAPE  C21117369   6.431   0.392   7.133 -0.0403  0.1228  0.4904
  156SAPE  H11R17370   6.412   0.327   7.046  1.0329 -0.1891  0.4752
  156SAPE  C21217371   6.421   0.351   7.260 -0.5086  0.0732 -0.2606
  156SAPE  H12R17372   6.421   0.243   7.281  0.6319  0.0074 -0.5766
  156SAPE  C21317373   6.427   0.440   7.384 -0.1609  0.1062 -0.2772
  156SAPE  H13R17374   6.353   0.403   7.457 -1.5330 -0.7889 -2.0438
  156SAPE  H13S17375   6.395   0.544   7.361  1.3081  0.5980 -0.1768
  156SAPE  C21417376   6.567   0.444   7.445  0.0216 -0.4315  0.2713
  156SAPE  H14R17377   6.635   0.511   7.390 -0.4531 -1.7999 -2.1332
  156SAPE  C21517378   6.608   0.368   7.547 -0.4903  0.3914  0.4908
  156SAPE  H15R17379   6.712   0.368   7.581 -0.1724  0.6344 -0.4674
  156SAPE  C21617380   6.521   0.270   7.622  0.9675 -0.0252  0.9781
  156SAPE  H16R17381   6.577   0.178   7.651 -1.3578 -2.4147 -1.4655
  156SAPE  H16S17382   6.440   0.235   7.554  0.9863  1.9964 -0.1544
  156SAPE  C21717383   6.474   0.349   7.741  0.7902 -0.2895 -0.2508
  156SAPE  H17R17384   6.376   0.307   7.772  0.0589  1.5886  0.1375
  156SAPE  H17S17385   6.466   0.459   7.725 -1.2702 -0.7097 -2.8349
  156SAPE  C21817386   6.569   0.334   7.865 -0.0749  0.0779  0.7241
  156SAPE  H18R17387   6.672   0.364   7.837  0.1114 -0.4743  0.8104
  156SAPE  H18S17388   6.564   0.232   7.910  2.0211 -0.8738 -1.0349
  156SAPE  C21917389   6.521   0.411   7.985  0.6492 -0.1111 -0.2349
  156SAPE  H19R17390   6.412   0.391   7.998  0.6852  0.5833  1.5237
  156SAPE  H19S17391   6.533   0.519   7.964  0.8645 -0.3556 -1.4209
  156SAPE  C22017392   6.599   0.376   8.112  0.5246  0.5355 -0.2657
  156SAPE  H20R17393   6.572   0.458   8.183 -0.0665 -1.3964  1.8724
  156SAPE  H20S17394   6.709   0.390   8.109  0.6102 -0.2255 -0.9758
  156SAPE  H20T17395   6.572   0.280   8.161 -1.1601  0.0591 -2.0204
  156SAPE   C3317396   6.700   0.093   6.870  0.4176 -0.2767 -0.2898
  156SAPE   H3X17397   6.803   0.062   6.842 -0.0601  1.7622 -5.6239
  156SAPE   H3Y17398   6.645   0.042   6.787 -0.5355 -0.4557  0.4259
  156SAPE   C3417399   6.676   0.040   7.009  0.5540  0.2315 -0.5080
  156SAPE   H4X17400   6.664  -0.069   6.996 -0.4753  0.0753  1.4585
  156SAPE   H4Y17401   6.581   0.090   7.036  0.0302 -1.2261  0.3889
  156SAPE   C3517402   6.796   0.069   7.094  0.1106  1.1259 -0.0018
  156SAPE   H5X17403   6.800   0.176   7.123  2.2422  1.0003  0.3040
  156SAPE   H5Y17404   6.890   0.040   7.043  0.1631 -0.7470  1.0614
  156SAPE   C3617405   6.785  -0.018   7.225 -0.2595 -0.1978  0.0344
  156SAPE   H6X17406   6.877  -0.012   7.287 -0.4385 -0.0463  0.2823
  156SAPE   H6Y17407   6.783  -0.125   7.194  0.0208 -0.2888  0.3233
  156SAPE   C3717408   6.664   0.009   7.315  0.3618 -0.5794  0.2612
  156SAPE   H7X17409   6.583  -0.042   7.260  0.1782  0.5034 -0.5122
  156SAPE   H7Y17410   6.649   0.119   7.320  2.8494 -0.0572 -1.6761
  156SAPE   C3817411   6.677  -0.063   7.451 -0.4981  0.7957  0.0844
  156SAPE   H8X17412   6.691  -0.173   7.438  0.2642  0.7078  1.4319
  156SAPE   H8Y17413   6.588  -0.058   7.517  0.5210  0.8777  1.4955
  156SAPE   C3917414   6.792  -0.010   7.540 -0.5683 -0.2211 -0.2764
  156SAPE   H9X17415   6.780   0.100   7.533 -1.4032 -0.3281 -0.6465
  156SAPE   H9Y17416   6.893  -0.026   7.497 -0.7922 -0.3143 -0.7789
  156SAPE  C31017417   6.801  -0.071   7.684 -1.0571 -0.1411  1.0470
  156SAPE  H10X17418   6.896  -0.032   7.726 -1.6903  1.7110  0.8700
  156SAPE  H10Y17419   6.803  -0.182   7.677  1.0504 -0.0772 -0.0376
  156SAPE  C31117420   6.695  -0.022   7.785  0.5099  0.4672  0.0126
  156SAPE  H11X17421   6.595  -0.056   7.748  0.2112 -1.3509  2.2653
  156SAPE  H11Y17422   6.699   0.089   7.788  1.8903  0.4677 -1.0693
  156SAPE  C31217423   6.723  -0.077   7.925  0.6553 -0.2893 -0.0733
  156SAPE  H12X17424   6.805  -0.019   7.972  1.3502  0.4225 -2.0947
  156SAPE  H12Y17425   6.763  -0.179   7.904  0.3986 -0.3517 -0.2666
  156SAPE  C31317426   6.598  -0.079   8.011  0.1177  0.3043 -0.2645
  156SAPE  H13X17427   6.524  -0.146   7.964  0.6067  1.1416 -2.3554
  156SAPE  H13Y17428   6.546   0.019   8.019  0.4673  0.5421 -0.8633
  156SAPE  C31417429   6.654  -0.116   8.152 -0.4147  1.3028 -0.6583
  156SAPE  H14X17430   6.734  -0.053   8.196  0.4699 -0.2074 -0.0091
  156SAPE  H14Y17431   6.700  -0.216   8.133 -1.2190  0.3215  2.0266
  156SAPE  C31517432   6.551  -0.137   8.260 -0.1030  0.1721  0.6158
  156SAPE  H15X17433   6.605  -0.157   8.355 -0.8413  0.8613  1.1939
  156SAPE  H15Y17434   6.493  -0.230   8.241 -0.3336  0.7618 -1.9672
  156SAPE  C31617435   6.454  -0.024   8.291 -0.2136  0.1179 -0.3614
  156SAPE  H16X17436   6.394   0.008   8.203 -2.2810 -2.4566  0.0189
  156SAPE  H16Y17437   6.525   0.061   8.305 -0.5728  0.7986 -2.3065
  156SAPE  C31717438   6.360  -0.048   8.412  0.2561  0.4309 -0.3053
  156SAPE  H17X17439   6.294  -0.134   8.387  1.8967 -0.3085 -2.3859
  156SAPE  H17Y17440   6.298   0.041   8.438 -2.3105 -0.9207 -1.4199
  156SAPE  C31817441   6.442  -0.079   8.539  0.4247 -0.5761  0.1544
  156SAPE  H18X17442   6.396  -0.055   8.637 -0.7597  0.1968 -0.5687
  156SAPE  H18Y17443   6.539  -0.024   8.531  1.7158 -2.4494  1.9838
  156SAPE  H18Z17444   6.476  -0.184   8.526 -1.3067 -1.2886  1.1135
  157SAPE     N17445   3.402   5.959   5.960  1.0040  0.8356  0.7948
  157SAPE   HN117446   3.416   6.054   6.000  0.4268  0.5540  1.7065
  157SAPE   HN217447   3.493   5.911   5.969  0.1346 -0.5972  2.4578
  157SAPE   HN317448   3.382   5.975   5.859  0.6361 -0.2956  0.6713
  157SAPE   C1217449   3.289   5.884   6.022 -0.4594 -0.8562 -0.1726
  157SAPE  H12A17450   3.196   5.936   5.990 -0.1904  0.9858  1.8088
  157SAPE  H12B17451   3.296   5.896   6.133  0.9076 -0.6833 -0.2667
  157SAPE   C1117452   3.293   5.733   5.995 -0.1455  0.2705 -0.2419
  157SAPE  H11A17453   3.302   5.718   5.886 -1.5688 -3.3167  0.0143
  157SAPE  H11B17454   3.192   5.693   6.019 -1.1379  2.7405 -0.0327
  157SAPE     P17455   3.367   5.566   6.191 -0.2568 -0.3833 -0.2756
  157SAPE   O1317456   3.316   5.438   6.138 -0.6488  0.3102  0.0202
  157SAPE   O1417457   3.487   5.558   6.272 -0.2895  0.3478 -0.5976
  157SAPE   O1217458   3.402   5.670   6.068  0.6971  0.2831  1.0594
  157SAPE   O1117459   3.246   5.625   6.275  0.7985  0.3051  0.2527
  157SAPE    C117460   3.253   5.736   6.361  0.2278  0.0615  0.2514
  157SAPE    HA17461   3.359   5.761   6.385  0.3191 -0.1305  0.0510
  157SAPE    HB17462   3.213   5.822   6.304 -1.4987 -1.8216 -1.5566
  157SAPE    C217463   3.157   5.725   6.478 -0.2295  0.4679  0.3236
  157SAPE    HS17464   3.117   5.822   6.516 -0.7412  0.6242 -0.5826
  157SAPE   O2117465   3.211   5.653   6.589  0.0621 -0.1923 -0.1482
  157SAPE   C2117466   3.313   5.704   6.647 -0.8818 -0.0652  0.1105
  157SAPE   O2217467   3.368   5.812   6.629 -0.1501 -0.5211 -0.0643
  157SAPE   C2217468   3.365   5.608   6.752  0.3783  0.3383 -0.5418
  157SAPE   H2R17469   3.277   5.578   6.813  0.3976  1.0047 -0.1741
  157SAPE   H2S17470   3.413   5.527   6.694  2.2029  0.9564  0.0112
  157SAPE    C317471   3.031   5.641   6.428 -0.4026 -0.1716  1.1854
  157SAPE    HX17472   3.065   5.550   6.376 -0.4720 -0.7138  2.0728
  157SAPE    HY17473   2.987   5.702   6.346  1.1205 -0.2910  0.2371
  157SAPE   O3117474   2.942   5.619   6.534  0.3237  0.5448 -0.3212
  157SAPE   C3117475   2.955   5.498   6.602  0.0894  0.1286  0.2461
  157SAPE   O3217476   3.018   5.403   6.564  0.0632  0.3158 -0.7097
  157SAPE   C3217477   2.867   5.493   6.726  0.6083 -0.2570 -0.5208
  157SAPE   H2X17478   2.887   5.402   6.786  0.1449  1.1112  1.8534
  157SAPE   H2Y17479   2.766   5.486   6.679  0.7702  2.7199 -1.5514
  157SAPE   C2317480   3.477   5.667   6.837  0.0725 -0.2643  0.3344
  157SAPE   H3R17481   3.435   5.766   6.866 -0.5773 -0.0121 -1.3507
  157SAPE   H3S17482   3.575   5.685   6.788 -0.0753 -0.5244 -0.0546
  157SAPE   C2417483   3.510   5.573   6.962 -0.2923 -0.4614  0.3294
  157SAPE   H4R17484   3.613   5.595   6.998  0.2525  0.5997 -1.7257
  157SAPE   H4S17485   3.509   5.466   6.930 -1.7284  0.0293 -1.4094
  157SAPE   C2517486   3.406   5.592   7.077 -0.6585 -0.1806 -0.2593
  157SAPE   H5R17487   3.305   5.565   7.044 -0.9821 -1.1360  1.3799
  157SAPE   C2617488   3.422   5.664   7.193 -0.4855 -0.1345 -0.0891
  157SAPE   H6R17489   3.337   5.662   7.263  0.1472 -4.9915  0.9003
  157SAPE   C2717490   3.544   5.729   7.246  0.0921 -0.0353 -0.2859
  157SAPE   H7R17491   3.513   5.831   7.276  0.4850  1.2976 -3.9215
  157SAPE   H7S17492   3.616   5.737   7.162  0.7797 -1.8673  0.0873
  157SAPE   C2817493   3.589   5.639   7.355 -0.3491 -0.2642  0.3301
  157SAPE   H8R17494   3.622   5.541   7.318  1.9992  0.7711 -0.5518
  157SAPE   C2917495   3.596   5.668   7.488 -0.8848  0.5831 -0.1837
  157SAPE   H9R17496   3.631   5.587   7.553  0.0868  0.4890 -0.8051
  157SAPE  C21017497   3.568   5.801   7.548 -0.2399  0.5933 -0.5498
  157SAPE  H10R17498   3.497   5.865   7.492  0.1739  2.1502  0.6284
  157SAPE  H10S17499   3.663   5.859   7.549  1.3119 -1.8095 -0.2824
  157SAPE  C21117500   3.517   5.791   7.692 -0.6525 -0.2230  0.2211
  157SAPE  H11R17501   3.539   5.704   7.755  0.0045  1.1458  1.9586
  157SAPE  C21217502   3.461   5.886   7.762  0.2224  0.2637  0.4737
  157SAPE  H12R17503   3.431   5.868   7.866  0.7637 -0.8813  0.4421
  157SAPE  C21317504   3.436   6.024   7.706 -0.2311 -0.2267 -0.3892
  157SAPE  H13R17505   3.499   6.049   7.618 -0.1219  1.8616  0.2381
  157SAPE  H13S17506   3.464   6.095   7.786 -1.5331 -0.2298  0.0892
  157SAPE  C21417507   3.297   6.039   7.660 -0.3993  0.0257 -0.2380
  157SAPE  H14R17508   3.262   5.956   7.597 -0.1148 -1.5538  1.5806
  157SAPE  C21517509   3.211   6.144   7.672 -0.3075 -0.1432 -0.3862
  157SAPE  H15R17510   3.111   6.129   7.630  0.3185 -0.6162 -1.7835
  157SAPE  C21617511   3.241   6.277   7.734  0.0403 -0.0189  0.1975
  157SAPE  H16R17512   3.251   6.351   7.653  0.9303 -0.8674 -0.4961
  157SAPE  H16S17513   3.344   6.268   7.777  0.9276 -1.3854 -2.0525
  157SAPE  C21717514   3.133   6.313   7.839  0.3169 -0.6538  0.0177
  157SAPE  H17R17515   3.117   6.236   7.918 -2.1049  0.2388  0.5015
  157SAPE  H17S17516   3.040   6.330   7.780  1.4952  0.8932 -1.4891
  157SAPE  C21817517   3.157   6.444   7.927  0.0758 -0.1182 -0.2257
  157SAPE  H18R17518   3.155   6.529   7.857  1.5521 -0.4568 -0.7128
  157SAPE  H18S17519   3.259   6.425   7.968 -0.5791 -1.1940  0.9982
  157SAPE  C21917520   3.058   6.464   8.044  0.9009 -0.2155 -0.1872
  157SAPE  H19R17521   2.960   6.472   7.991  0.6131  0.1835  0.3959
  157SAPE  H19S17522   3.083   6.563   8.086  0.9359 -0.3773  0.1743
  157SAPE  C22017523   3.060   6.358   8.147 -0.9656  0.2160 -0.1030
  157SAPE  H20R17524   2.994   6.380   8.234  1.8156  0.2017  2.1601
  157SAPE  H20S17525   3.165   6.338   8.180 -0.0726  1.7261 -1.8501
  157SAPE  H20T17526   3.010   6.270   8.102 -0.2494  0.4208 -1.3456
  157SAPE   C3317527   2.871   5.625   6.814 -0.5190  0.2558  0.5346
  157SAPE   H3X17528   2.773   5.676   6.802 -0.4435  0.2466 -0.1861
  157SAPE   H3Y17529   2.950   5.699   6.789 -1.5398  2.5506  3.4949
  157SAPE   C3417530   2.891   5.598   6.965  0.2166 -0.0352 -0.0802
  157SAPE   H4X17531   2.801   5.540   6.992 -1.1290  1.6631 -0.7316
  157SAPE   H4Y17532   2.885   5.696   7.016  2.1109 -0.1734  0.4923
  157SAPE   C3517533   3.030   5.530   7.002  0.0405 -0.6237  0.5537
  157SAPE   H5X17534   3.105   5.609   6.985 -2.5923  3.2555  4.7464
  157SAPE   H5Y17535   3.047   5.442   6.935 -1.8210 -0.2201 -0.5361
  157SAPE   C3617536   3.048   5.476   7.148  0.0238  0.0012 -1.1097
  157SAPE   H6X17537   3.149   5.434   7.165 -0.3214 -0.5841 -0.4845
  157SAPE   H6Y17538   2.979   5.394   7.176  1.3300 -0.4448  1.0355
  157SAPE   C3717539   3.028   5.593   7.250 -0.2844 -0.1082  0.0447
  157SAPE   H7X17540   2.919   5.614   7.248  0.1526  2.5139 -1.9398
  157SAPE   H7Y17541   3.085   5.678   7.206  1.8653 -1.7939 -0.6279
  157SAPE   C3817542   3.064   5.552   7.391  1.0792 -0.6309  0.5860
  157SAPE   H8X17543   3.173   5.528   7.392  1.3827  0.3361 -1.8413
  157SAPE   H8Y17544   3.007   5.463   7.424  1.1642 -0.1204  2.2002
  157SAPE   C3917545   3.031   5.657   7.494 -0.7710 -0.1526 -0.7483
  157SAPE   H9X17546   2.922   5.674   7.508 -0.2754  2.6847  0.3849
  157SAPE   H9Y17547   3.068   5.750   7.445 -1.8023  1.1651  0.8338
  157SAPE  C31017548   3.091   5.623   7.638  0.2011 -0.2694 -0.1607
  157SAPE  H10X17549   3.200   5.605   7.626 -0.1121 -2.2186 -0.2780
  157SAPE  H10Y17550   3.045   5.526   7.667 -0.3405 -0.5531 -1.8853
  157SAPE  C31117551   3.045   5.727   7.739 -0.8617  0.4101 -0.2218
  157SAPE  H11X17552   2.939   5.762   7.741 -0.7313  0.8012 -0.1641
  157SAPE  H11Y17553   3.112   5.815   7.728 -2.2498  1.9507  2.4463
  157SAPE  C31217554   3.097   5.680   7.877  0.3007  0.0767 -0.2412
  157SAPE  H12X17555   3.203   5.650   7.875 -0.3301 -2.7791  2.1139
  157SAPE  H12Y17556   3.029   5.595   7.902  0.9452 -1.3625 -2.9794
  157SAPE  C31317557   3.070   5.783   7.989 -0.3696  0.5428  0.4152
  157SAPE  H13X17558   2.970   5.774   8.038 -0.1361  1.5443  1.0978
  157SAPE  H13Y17559   3.073   5.885   7.946  0.8945  0.7484  0.9641
  157SAPE  C31417560   3.180   5.769   8.091 -0.0471  0.3019 -0.6108
  157SAPE  H14X17561   3.276   5.805   8.049  0.2959  0.2776  0.1493
  157SAPE  H14Y17562   3.199   5.667   8.132  3.2098  1.4105  0.9569
  157SAPE  C31517563   3.179   5.869   8.205 -0.1198  0.6974 -0.0315
  157SAPE  H15X17564   3.159   5.973   8.173  1.0772  0.7180 -0.7829
  157SAPE  H15Y17565   3.278   5.863   8.256  0.9932  1.4713 -1.9743
  157SAPE  C31617566   3.068   5.838   8.312 -0.3438 -0.0016  0.4366
  157SAPE  H16X17567   3.092   5.746   8.369  0.6805  0.7866  1.3365
  157SAPE  H16Y17568   2.967   5.827   8.268  0.0663  0.0141 -0.5459
  157SAPE  C31717569   3.066   5.957   8.415  0.3992 -0.1287 -0.6302
  157SAPE  H17X17570   2.968   5.953   8.467 -0.2201  0.2777 -1.7238
  157SAPE  H17Y17571   3.063   6.047   8.350  0.0757 -0.8949 -1.7203
  157SAPE  C31817572   3.167   5.949   8.528  0.0131  0.9636 -0.1751
  157SAPE  H18X17573   3.140   5.862   8.592 -0.2738  1.0766 -0.1425
  157SAPE  H18Y17574   3.161   6.042   8.587 -0.5483  0.3291  0.8004
  157SAPE  H18Z17575   3.266   5.927   8.482  0.4838 -0.3878  1.3534
  158SAPE     N17576   5.137   1.200   6.073 -0.1316  0.0925 -0.1312
  158SAPE   HN117577   5.176   1.166   6.163 -0.1729 -2.4230 -1.0006
  158SAPE   HN217578   5.081   1.116   6.050 -0.3190 -0.0573  0.8643
  158SAPE   HN317579   5.219   1.219   6.011 -1.3669  2.2166 -1.2453
  158SAPE   C1217580   5.056   1.328   6.098 -0.5888  0.2873 -0.2617
  158SAPE  H12A17581   5.066   1.381   6.001  2.6183  0.5035  0.0943
  158SAPE  H12B17582   5.117   1.385   6.170  0.9001 -2.0665  0.4458
  158SAPE   C1117583   4.915   1.310   6.149  0.1672  0.6257 -0.1433
  158SAPE  H11A17584   4.929   1.262   6.248 -1.4207  0.4590  0.0293
  158SAPE  H11B17585   4.856   1.243   6.082  0.3232 -0.2955  0.6185
  158SAPE     P17586   4.704   1.439   6.225 -0.1353  0.4157 -0.1273
  158SAPE   O1317587   4.653   1.576   6.193  0.1942  0.0241  0.5451
  158SAPE   O1417588   4.631   1.317   6.197  0.3302  0.2834  0.0352
  158SAPE   O1217589   4.854   1.435   6.162  0.7126 -0.8594 -0.0985
  158SAPE   O1117590   4.737   1.439   6.381 -0.1394 -0.1967 -0.1721
  158SAPE    C117591   4.836   1.527   6.447  0.9950  0.7001  0.1805
  158SAPE    HA17592   4.937   1.490   6.421  1.4232  2.8679 -1.6167
  158SAPE    HB17593   4.833   1.629   6.401  1.3585  0.8321  0.4392
  158SAPE    C217594   4.824   1.524   6.598  0.4812 -0.1902  0.1633
  158SAPE    HS17595   4.816   1.415   6.620  1.1396 -0.7499 -2.0651
  158SAPE   O2117596   4.705   1.590   6.648  0.3591  0.1885  0.3080
  158SAPE   C2117597   4.707   1.724   6.654 -0.5776 -0.1065 -0.4659
  158SAPE   O2217598   4.780   1.799   6.592 -0.7333  0.1332 -0.5919
  158SAPE   C2217599   4.605   1.779   6.748  0.3548  0.6683 -0.0244
  158SAPE   H2R17600   4.639   1.879   6.783  2.3130  0.5645 -1.4407
  158SAPE   H2S17601   4.519   1.807   6.683  1.2353  0.7005 -1.2184
  158SAPE    C317602   4.953   1.573   6.673 -0.0619  1.1372  0.1655
  158SAPE    HX17603   4.985   1.674   6.637 -0.3680  0.4425 -2.2726
  158SAPE    HY17604   5.039   1.505   6.654 -0.7132  0.1486  0.6849
  158SAPE   O3117605   4.929   1.572   6.818 -0.4703  0.7563 -0.4828
  158SAPE   C3117606   4.929   1.456   6.876 -0.2895 -0.3869  0.4389
  158SAPE   O3217607   4.947   1.349   6.824 -0.3774  0.7302  0.0242
  158SAPE   C3217608   4.896   1.472   7.025 -0.0803  0.4613  0.4156
  158SAPE   H2X17609   4.802   1.412   7.025 -1.1283  2.0170 -1.0320
  158SAPE   H2Y17610   4.866   1.579   7.026 -5.2902 -0.7136  2.4294
  158SAPE   C2317611   4.574   1.680   6.859  0.4407 -0.4109  0.2549
  158SAPE   H3R17612   4.655   1.658   6.931 -1.0897 -2.0243  1.5924
  158SAPE   H3S17613   4.569   1.576   6.819 -2.2293  0.3215 -1.6697
  158SAPE   C2417614   4.439   1.701   6.924 -0.8787 -0.1048 -0.3985
  158SAPE   H4R17615   4.422   1.616   6.992 -1.2900  0.6258  0.4263
  158SAPE   H4S17616   4.363   1.699   6.843  0.2447 -0.8792 -1.4831
  158SAPE   C2517617   4.429   1.836   6.991  0.6953  0.1593  0.7740
  158SAPE   H5R17618   4.410   1.919   6.922  1.7701  0.6890  1.1057
  158SAPE   C2617619   4.456   1.853   7.117  0.2709 -0.5630  0.0140
  158SAPE   H6R17620   4.430   1.954   7.151 -1.0990 -0.9194  0.0956
  158SAPE   C2717621   4.498   1.743   7.214  0.7428  0.2069  0.4049
  158SAPE   H7R17622   4.588   1.767   7.275 -0.2389 -1.2248  2.5187
  158SAPE   H7S17623   4.531   1.651   7.161 -0.8784  1.6481 -3.4417
  158SAPE   C2817624   4.387   1.726   7.308 -0.4991  0.3235 -0.4529
  158SAPE   H8R17625   4.302   1.674   7.262  1.2119 -2.7687 -0.3994
  158SAPE   C2917626   4.368   1.757   7.431 -0.0211 -0.4035 -0.4734
  158SAPE   H9R17627   4.270   1.725   7.470 -0.6350 -1.1656 -2.4904
  158SAPE  C21017628   4.474   1.816   7.518  0.3503  0.0977  0.2538
  158SAPE  H10R17629   4.420   1.880   7.591  0.2958 -1.7790  1.9427
  158SAPE  H10S17630   4.534   1.883   7.453  0.0222  0.7770  0.6372
  158SAPE  C21117631   4.562   1.718   7.587  0.5703  0.1578 -0.6251
  158SAPE  H11R17632   4.635   1.672   7.519  1.4443  1.3933 -0.5512
  158SAPE  C21217633   4.544   1.678   7.716 -0.5433 -0.1451 -1.1376
  158SAPE  H12R17634   4.614   1.607   7.763 -1.4840  0.9758  2.2259
  158SAPE  C21317635   4.432   1.729   7.806 -0.5652 -0.2783 -0.2648
  158SAPE  H13R17636   4.366   1.644   7.833  2.9765 -2.8204  1.0526
  158SAPE  H13S17637   4.364   1.801   7.756 -2.5064 -0.2888  2.1811
  158SAPE  C21417638   4.489   1.805   7.919 -0.3648 -0.2460 -0.3490
  158SAPE  H14R17639   4.580   1.864   7.900 -1.0402  0.5684 -1.0880
  158SAPE  C21517640   4.439   1.798   8.042 -0.0117  0.1350  0.6042
  158SAPE  H15R17641   4.492   1.842   8.128 -0.4530  0.9499  0.4672
  158SAPE  C21617642   4.310   1.725   8.077  0.7069  0.0434 -0.5032
  158SAPE  H16R17643   4.329   1.668   8.170  2.2899  0.5655 -0.4758
  158SAPE  H16S17644   4.278   1.650   8.002 -2.4793  1.9029 -1.2257
  158SAPE  C21717645   4.186   1.819   8.097  0.3134 -0.2504  0.3483
  158SAPE  H17R17646   4.156   1.872   8.004  2.3442 -1.6984 -1.2205
  158SAPE  H17S17647   4.222   1.888   8.177  0.5647  0.0616 -0.0298
  158SAPE  C21817648   4.066   1.743   8.153  0.3865 -1.5010 -0.0975
  158SAPE  H18R17649   4.091   1.709   8.256  0.1647  0.1397  0.5360
  158SAPE  H18S17650   4.050   1.667   8.074  0.7388 -2.3557  0.6399
  158SAPE  C21917651   3.946   1.841   8.152  0.1916  0.7710 -0.2301
  158SAPE  H19R17652   3.856   1.787   8.189  0.8485 -0.0629  0.1758
  158SAPE  H19S17653   3.935   1.869   8.045  0.2299  0.5568 -0.2888
  158SAPE  C22017654   3.959   1.967   8.238 -0.3128 -0.1992  0.2350
  158SAPE  H20R17655   3.862   2.020   8.250 -0.0277  0.1275  1.2500
  158SAPE  H20S17656   4.032   2.033   8.186  1.2011 -1.0133  1.2417
  158SAPE  H20T17657   3.991   1.943   8.342  0.4730  0.2918  0.1130
  158SAPE   C3317658   5.023   1.436   7.099 -0.5003  0.0632 -0.3049
  158SAPE   H3X17659   5.013   1.486   7.198  0.4631 -1.7630  0.7600
  158SAPE   H3Y17660   5.114   1.482   7.054 -0.1425  0.1283  0.4821
  158SAPE   C3417661   5.051   1.292   7.127  0.1473  0.6327 -0.6843
  158SAPE   H4X17662   5.054   1.224   7.039  2.0158 -0.2628  0.0196
  158SAPE   H4Y17663   4.973   1.247   7.191  1.4988  0.1318  0.6792
  158SAPE   C3517664   5.194   1.281   7.194 -0.6552  0.0107  0.0535
  158SAPE   H5X17665   5.278   1.313   7.130  0.0056  1.0867  1.4170
  158SAPE   H5Y17666   5.195   1.172   7.217 -2.2419 -0.0114  0.1612
  158SAPE   C3617667   5.215   1.352   7.326 -0.3844 -0.0032  0.5164
  158SAPE   H6X17668   5.129   1.339   7.396 -1.0285 -0.0294 -0.2725
  158SAPE   H6Y17669   5.230   1.458   7.298  1.8600 -0.9171 -2.3105
  158SAPE   C3717670   5.346   1.313   7.398  0.4544  0.5517  0.1028
  158SAPE   H7X17671   5.334   1.206   7.427  1.9312  0.5963  0.9731
  158SAPE   H7Y17672   5.422   1.332   7.319 -0.2183 -1.9472 -1.2505
  158SAPE   C3817673   5.379   1.382   7.535  0.1222  0.1378 -0.1769
  158SAPE   H8X17674   5.283   1.378   7.592 -0.4850  0.4414 -1.1508
  158SAPE   H8Y17675   5.403   1.490   7.518  1.2163 -0.1723 -0.7005
  158SAPE   C3917676   5.504   1.334   7.608  0.2151 -0.6313  0.0659
  158SAPE   H9X17677   5.591   1.371   7.550  1.9339 -1.7144  1.8240
  158SAPE   H9Y17678   5.509   1.223   7.614 -1.0574 -0.7586 -0.8194
  158SAPE  C31017679   5.511   1.375   7.753 -1.0976 -0.2614  0.1683
  158SAPE  H10X17680   5.454   1.470   7.765  0.3242  0.6988 -0.4903
  158SAPE  H10Y17681   5.617   1.404   7.772 -0.4502 -2.1354 -0.3967
  158SAPE  C31117682   5.470   1.271   7.856  1.0616  0.1484  0.0602
  158SAPE  H11X17683   5.523   1.174   7.841  0.0060 -0.1702 -2.0043
  158SAPE  H11Y17684   5.363   1.256   7.829  1.1070 -0.6445  0.3010
  158SAPE  C31217685   5.480   1.319   8.006 -0.0061 -0.0057  0.5797
  158SAPE  H12X17686   5.427   1.415   8.026 -0.7641  0.0640 -1.4602
  158SAPE  H12Y17687   5.587   1.343   8.020  0.4400 -0.2609 -1.8642
  158SAPE  C31317688   5.436   1.209   8.100 -0.1960 -0.0577 -0.8395
  158SAPE  H13X17689   5.465   1.109   8.061 -0.1648 -0.3464 -0.0916
  158SAPE  H13Y17690   5.326   1.217   8.116 -0.1924  0.9912 -1.2771
  158SAPE  C31417691   5.512   1.233   8.238 -0.1309  0.0102  0.8019
  158SAPE  H14X17692   5.485   1.337   8.268 -2.2588  0.4012 -2.1038
  158SAPE  H14Y17693   5.619   1.212   8.220 -0.6918 -2.1626 -0.3010
  158SAPE  C31517694   5.468   1.125   8.334 -0.9078 -0.4281  0.5029
  158SAPE  H15X17695   5.484   1.024   8.289  1.4892  0.8295 -1.6961
  158SAPE  H15Y17696   5.362   1.142   8.361 -1.5607 -3.2526  0.0977
  158SAPE  C31617697   5.559   1.130   8.453  0.0802  0.3950 -0.0230
  158SAPE  H16X17698   5.595   1.233   8.473 -0.5101  0.6427 -0.2025
  158SAPE  H16Y17699   5.653   1.079   8.425  0.7419  1.9966 -0.8614
  158SAPE  C31717700   5.508   1.083   8.588  0.3647 -0.0045 -0.1800
  158SAPE  H17X17701   5.464   0.982   8.572 -0.6570  0.2712  0.8047
  158SAPE  H17Y17702   5.436   1.158   8.625 -0.5976 -0.3519 -1.2783
  158SAPE  C31817703   5.616   1.077   8.697  0.2064  0.0392  0.3158
  158SAPE  H18X17704   5.690   0.995   8.685 -0.3559 -0.3409 -0.6579
  158SAPE  H18Y17705   5.574   1.058   8.797 -2.1235 -0.8007 -0.7682
  158SAPE  H18Z17706   5.663   1.178   8.700 -0.6650  0.5131 -1.0527
  159SAPE     N17707   2.031   5.104   6.072 -0.1401 -0.5391 -0.3925
  159SAPE   HN117708   1.973   5.178   6.115  0.9407  0.3481 -0.4029
  159SAPE   HN217709   1.992   5.062   5.985 -1.1351 -1.7075  0.5838
  159SAPE   HN317710   2.025   5.030   6.144  2.2765 -0.0874  0.3802
  159SAPE   C1217711   2.177   5.139   6.032  0.7242  0.6554  0.0428
  159SAPE  H12A17712   2.229   5.171   6.124  1.7526 -1.1994  0.1609
  159SAPE  H12B17713   2.173   5.224   5.960 -0.3159  1.1996  0.7274
  159SAPE   C1117714   2.247   5.017   5.970  1.0338 -0.0331  0.0957
  159SAPE  H11A17715   2.344   5.050   5.926  1.0910  0.9239  0.9286
  159SAPE  H11B17716   2.173   4.984   5.893  0.5392 -0.0517  0.5729
  159SAPE     P17717   2.410   4.882   6.134  0.1928 -0.2207 -0.3523
  159SAPE   O1317718   2.406   4.746   6.189 -0.3943  0.5469  0.1084
  159SAPE   O1417719   2.521   4.917   6.043 -0.6842  0.7373 -0.4558
  159SAPE   O1217720   2.266   4.910   6.058 -0.3309  0.5936 -0.6895
  159SAPE   O1117721   2.405   4.994   6.242 -0.2976  0.1033  0.4045
  159SAPE    C117722   2.310   4.971   6.346 -0.3998 -0.1749 -0.1976
  159SAPE    HA17723   2.209   5.007   6.315 -0.1451  0.0252 -0.8120
  159SAPE    HB17724   2.305   4.868   6.386  1.8226 -0.0056  0.6433
  159SAPE    C217725   2.357   5.054   6.469  0.4367  0.0022  0.1439
  159SAPE    HS17726   2.360   5.158   6.432 -1.5285  0.4910  1.1867
  159SAPE   O2117727   2.481   5.009   6.503  0.2132 -0.1046 -0.5743
  159SAPE   C2117728   2.575   5.094   6.521 -0.2758 -0.1761 -0.3989
  159SAPE   O2217729   2.588   5.209   6.474 -0.0409  0.0232 -0.1698
  159SAPE   C2217730   2.685   5.032   6.616  0.5036 -0.8342 -0.2526
  159SAPE   H2R17731   2.644   5.049   6.717 -0.6151 -3.0588 -0.2548
  159SAPE   H2S17732   2.706   4.926   6.588  2.0539 -0.0579 -2.2429
  159SAPE    C317733   2.257   5.049   6.594 -0.6399 -0.2899  0.1823
  159SAPE    HX17734   2.159   5.073   6.548 -1.3067 -3.1174 -0.0195
  159SAPE    HY17735   2.282   5.129   6.668 -0.3336 -1.2092  1.1012
  159SAPE   O3117736   2.251   4.921   6.652 -0.3662  0.2532  0.1692
  159SAPE   C3117737   2.323   4.898   6.762  0.3187 -0.2983 -0.4242
  159SAPE   O3217738   2.403   4.976   6.809 -0.6400  0.7088  1.1652
  159SAPE   C3217739   2.277   4.768   6.830 -0.2833 -0.2896  0.3103
  159SAPE   H2X17740   2.342   4.689   6.788 -0.0129  0.5291 -0.8661
  159SAPE   H2Y17741   2.178   4.738   6.789  0.6201 -3.7808  0.4035
  159SAPE   C2317742   2.815   5.098   6.600 -1.0419  0.1442 -0.5605
  159SAPE   H3R17743   2.812   5.209   6.600 -1.9087  0.1326 -1.7433
  159SAPE   H3S17744   2.864   5.072   6.504  1.3468  0.8544  0.3813
  159SAPE   C2417745   2.917   5.058   6.703 -0.5837  0.7624 -0.3973
  159SAPE   H4R17746   3.012   5.101   6.664 -0.1743  0.3599  0.1489
  159SAPE   H4S17747   2.933   4.948   6.705 -1.0610  0.5781 -2.8788
  159SAPE   C2517748   2.876   5.114   6.842  0.6955 -0.1771 -0.4574
  159SAPE   H5R17749   2.771   5.139   6.861  0.8724 -0.2627  0.7145
  159SAPE   C2617750   2.967   5.141   6.937 -1.0541  0.2879  0.3582
  159SAPE   H6R17751   2.941   5.187   7.033 -0.2861  1.5625 -0.0189
  159SAPE   C2717752   3.112   5.095   6.933 -0.5011  0.5599  0.1060
  159SAPE   H7R17753   3.130   5.008   6.866 -0.5782  1.4328 -1.0818
  159SAPE   H7S17754   3.144   5.056   7.032 -2.4563  1.0827  0.9742
  159SAPE   C2817755   3.209   5.199   6.882  0.9338  0.2197 -0.1901
  159SAPE   H8R17756   3.179   5.241   6.785 -1.4125 -0.6200  0.1197
  159SAPE   C2917757   3.333   5.227   6.931  0.6948  0.0842  0.4430
  159SAPE   H9R17758   3.390   5.297   6.867  1.2019 -0.2429  0.5254
  159SAPE  C21017759   3.400   5.167   7.052 -0.2158  0.1260  0.2272
  159SAPE  H10R17760   3.509   5.163   7.032 -0.0422  3.1323  0.1272
  159SAPE  H10S17761   3.362   5.063   7.066  3.2898 -1.0190  2.5358
  159SAPE  C21117762   3.379   5.249   7.179  1.0319 -0.7564 -0.3778
  159SAPE  H11R17763   3.421   5.351   7.181 -0.3806 -0.1657  0.0746
  159SAPE  C21217764   3.319   5.197   7.289 -0.2636 -0.2417 -0.0908
  159SAPE  H12R17765   3.313   5.266   7.374  1.7070  0.1213 -0.2033
  159SAPE  C21317766   3.251   5.063   7.313 -0.2474  0.3987 -0.3034
  159SAPE  H13R17767   3.311   5.011   7.391 -1.3373 -0.2710  0.1036
  159SAPE  H13S17768   3.266   4.994   7.228  0.3043  0.9400 -0.6530
  159SAPE  C21417769   3.108   5.067   7.346  0.5125  0.3278 -0.4387
  159SAPE  H14R17770   3.040   5.105   7.269 -1.6674 -1.0308  0.7204
  159SAPE  C21517771   3.048   5.023   7.457 -0.7506 -0.2992 -0.6175
  159SAPE  H15R17772   2.945   5.061   7.471 -1.0095 -0.3152 -2.2960
  159SAPE  C21617773   3.116   4.960   7.573  0.7093  0.3059 -0.2551
  159SAPE  H16R17774   3.223   4.942   7.549  0.4629 -1.5116 -0.1288
  159SAPE  H16S17775   3.067   4.863   7.595  1.1947 -0.2434 -1.5156
  159SAPE  C21717776   3.100   5.051   7.695  0.9132 -0.6601  0.0795
  159SAPE  H17R17777   3.134   5.000   7.787 -0.2159  2.6538  2.5232
  159SAPE  H17S17778   2.993   5.067   7.720  1.0538  0.6293 -0.0455
  159SAPE  C21817779   3.181   5.184   7.686  0.0266  0.6438 -0.1725
  159SAPE  H18R17780   3.129   5.247   7.611 -2.7692 -0.7541  0.4808
  159SAPE  H18S17781   3.287   5.160   7.662  0.1159 -0.5518  1.2822
  159SAPE  C21917782   3.172   5.258   7.820  0.3058 -0.3653 -0.2176
  159SAPE  H19R17783   3.206   5.187   7.898  0.2166  2.0277  2.1567
  159SAPE  H19S17784   3.075   5.297   7.855  0.2187  0.3537 -1.2045
  159SAPE  C22017785   3.284   5.367   7.814 -0.1636 -0.0483 -0.1440
  159SAPE  H20R17786   3.282   5.427   7.907  1.6851  0.1938 -0.2277
  159SAPE  H20S17787   3.272   5.440   7.731 -3.4298  0.2032  0.4106
  159SAPE  H20T17788   3.384   5.319   7.810 -0.2722 -0.3013  0.1740
  159SAPE   C3317789   2.280   4.773   6.989  0.4480 -0.0962  0.5830
  159SAPE   H3X17790   2.363   4.831   7.034  1.3945 -0.2351 -0.9129
  159SAPE   H3Y17791   2.297   4.667   7.017  0.8081 -0.1081  0.3270
  159SAPE   C3417792   2.151   4.806   7.058 -0.4698 -0.5046 -0.4678
  159SAPE   H4X17793   2.086   4.719   7.078 -2.9726  1.2866 -0.2597
  159SAPE   H4Y17794   2.080   4.873   7.004 -1.3804 -0.9166  0.1876
  159SAPE   C3517795   2.165   4.885   7.191  0.3600 -0.1215  0.2519
  159SAPE   H5X17796   2.071   4.920   7.239  0.8263  2.2116 -0.4008
  159SAPE   H5Y17797   2.220   4.977   7.163 -1.0574  1.3093  1.8728
  159SAPE   C3617798   2.241   4.802   7.291 -0.7699  0.2998 -0.5710
  159SAPE   H6X17799   2.333   4.757   7.248  1.2257  1.6663  1.9899
  159SAPE   H6Y17800   2.192   4.706   7.319 -0.5462  0.2485 -0.3524
  159SAPE   C3717801   2.267   4.882   7.424  0.5919  0.2858 -0.3541
  159SAPE   H7X17802   2.330   4.965   7.387  2.3498 -0.9115 -0.2283
  159SAPE   H7Y17803   2.333   4.832   7.499  0.2790  0.9087  0.3536
  159SAPE   C3817804   2.141   4.922   7.498 -0.4651  0.5775 -0.2372
  159SAPE   H8X17805   2.076   4.982   7.431  0.9095  1.3855 -0.8913
  159SAPE   H8Y17806   2.178   5.000   7.568  1.7636  0.6487 -1.4028
  159SAPE   C3917807   2.073   4.801   7.567 -0.4207  0.0638 -0.2229
  159SAPE   H9X17808   2.139   4.735   7.627  0.0972 -0.3062 -1.1654
  159SAPE   H9Y17809   2.039   4.733   7.486 -2.3867 -0.5310  1.0237
  159SAPE  C31017810   1.964   4.848   7.667 -1.3057  0.5206 -0.3599
  159SAPE  H10X17811   1.876   4.881   7.607 -1.8850 -0.5278 -0.1188
  159SAPE  H10Y17812   2.001   4.934   7.727  2.4464 -0.5195 -0.9500
  159SAPE  C31117813   1.912   4.736   7.761 -0.3391  0.4799 -0.1614
  159SAPE  H11X17814   1.995   4.670   7.794  0.4998  2.2058  1.3611
  159SAPE  H11Y17815   1.842   4.669   7.707 -0.6117 -2.1771  3.1851
  159SAPE  C31217816   1.848   4.790   7.895 -0.0958  0.0721  0.2727
  159SAPE  H12X17817   1.742   4.800   7.864 -0.0468 -0.2494 -0.0004
  159SAPE  H12Y17818   1.895   4.886   7.927  0.7175 -0.0465 -0.5360
  159SAPE  C31317819   1.856   4.696   8.016  0.7335 -0.1716  0.1969
  159SAPE  H13X17820   1.962   4.689   8.047  1.1394  1.2493 -0.7932
  159SAPE  H13Y17821   1.819   4.595   7.988  1.2218 -0.9364  2.1892
  159SAPE  C31417822   1.778   4.752   8.140  0.2703 -0.5764 -0.5032
  159SAPE  H14X17823   1.673   4.775   8.114 -0.2704 -0.0000  1.9270
  159SAPE  H14Y17824   1.834   4.843   8.170 -1.5255 -0.7826  4.3987
  159SAPE  C31517825   1.777   4.656   8.255 -0.1503 -0.1804 -0.0144
  159SAPE  H15X17826   1.880   4.623   8.281 -0.1401  0.7367  1.1561
  159SAPE  H15Y17827   1.723   4.562   8.227  1.0200 -0.0083 -3.2896
  159SAPE  C31617828   1.707   4.734   8.373  0.6690  0.4618 -0.1375
  159SAPE  H16X17829   1.610   4.764   8.327  0.5463  2.0911  1.1183
  159SAPE  H16Y17830   1.765   4.828   8.383  0.7434  0.1930  2.9885
  159SAPE  C31717831   1.681   4.666   8.507 -0.3549 -0.3265  0.1261
  159SAPE  H17X17832   1.779   4.629   8.544 -0.7263 -2.6662 -1.0629
  159SAPE  H17Y17833   1.614   4.580   8.491 -0.2120 -0.6009  0.9709
  159SAPE  C31817834   1.623   4.770   8.606  0.2947  0.3760 -0.0006
  159SAPE  H18X17835   1.526   4.812   8.573  0.7059  1.3257 -0.0616
  159SAPE  H18Y17836   1.705   4.845   8.607 -1.2734  2.2276  2.2553
  159SAPE  H18Z17837   1.615   4.738   8.712  1.5115  1.4697  0.4620
  160SAPE     N17838   0.185   1.717   6.142  0.1573 -0.1588  0.2565
  160SAPE   HN117839   0.086   1.740   6.121  0.5352  2.0205  0.5247
  160SAPE   HN217840   0.231   1.811   6.134 -1.8273  0.9775  1.3860
  160SAPE   HN317841   0.226   1.640   6.085  1.6040 -0.7174  1.9546
  160SAPE   C1217842   0.198   1.684   6.288 -0.8006 -0.1533 -0.2325
  160SAPE  H12A17843   0.306   1.686   6.313 -1.2213  0.2496  1.7306
  160SAPE  H12B17844   0.161   1.580   6.296  3.2552 -1.7190  1.0916
  160SAPE   C1117845   0.107   1.785   6.369 -0.0558 -0.2428  0.5949
  160SAPE  H11A17846   0.135   1.890   6.348  0.3344 -0.4023  0.3032
  160SAPE  H11B17847   0.132   1.761   6.475  1.9323 -0.0785  0.1976
  160SAPE     P17848  -0.135   1.867   6.419  0.0936  0.3179 -0.3682
  160SAPE   O1317849  -0.114   2.011   6.412 -0.6908 -0.7816 -0.4761
  160SAPE   O1417850  -0.264   1.810   6.386  0.0947 -0.6706  0.6997
  160SAPE   O1217851  -0.035   1.768   6.343  0.2681 -0.5976 -0.1856
  160SAPE   O1117852  -0.097   1.831   6.572 -1.0870 -0.0101 -0.1774
  160SAPE    C117853  -0.141   1.709   6.625 -0.3027 -0.2720 -0.5852
  160SAPE    HA17854  -0.251   1.717   6.638 -0.4106  0.2151 -1.6220
  160SAPE    HB17855  -0.131   1.620   6.559  1.0708 -0.1270 -0.5905
  160SAPE    C217856  -0.094   1.688   6.770  0.0504  0.2886  0.2508
  160SAPE    HS17857  -0.166   1.625   6.827 -0.9549  2.4240  1.4917
  160SAPE   O2117858  -0.066   1.808   6.844  0.1700 -0.2536 -0.8969
  160SAPE   C2117859  -0.174   1.868   6.887  0.0806  0.8974  0.0511
  160SAPE   O2217860  -0.288   1.840   6.862  0.3880  0.0139  0.4557
  160SAPE   C2217861  -0.136   1.973   6.979 -0.0777 -0.3253 -0.5254
  160SAPE   H2R17862  -0.027   1.989   6.970  0.0146 -0.8394 -0.3760
  160SAPE   H2S17863  -0.196   2.064   6.959 -0.8556 -0.9910 -1.3533
  160SAPE    C317864   0.042   1.604   6.774 -0.5842  0.6212  0.0354
  160SAPE    HX17865   0.090   1.669   6.698 -1.5597  2.0463  0.5854
  160SAPE    HY17866   0.023   1.503   6.734  1.0058  0.3540 -0.1146
  160SAPE   O3117867   0.109   1.597   6.899  0.4363 -0.4151 -0.4721
  160SAPE   C3117868   0.064   1.493   6.978  0.1873 -0.2741  0.4677
  160SAPE   O3217869  -0.031   1.424   6.949  0.8635  0.5363 -0.1698
  160SAPE   C3217870   0.153   1.469   7.095 -0.2406 -0.2765  0.8951
  160SAPE   H2X17871   0.109   1.537   7.171  3.1114  1.6817  1.3243
  160SAPE   H2Y17872   0.253   1.510   7.068 -2.0498  1.9631 -3.5596
  160SAPE   C2317873  -0.163   1.939   7.139  0.0483 -0.1696  0.3409
  160SAPE   H3R17874  -0.271   1.915   7.142  0.0457 -0.6193 -1.9698
  160SAPE   H3S17875  -0.148   2.031   7.199 -1.0873  0.4254 -0.2619
  160SAPE   C2417876  -0.074   1.819   7.176 -0.9669 -0.3691 -1.0376
  160SAPE   H4R17877  -0.068   1.744   7.094  2.7670 -1.2758 -0.1239
  160SAPE   H4S17878  -0.115   1.767   7.266  1.1141 -0.0571  0.1610
  160SAPE   C2517879   0.064   1.867   7.207  0.0774 -0.1599 -0.4155
  160SAPE   H5R17880   0.117   1.931   7.134 -0.1364  0.2764 -0.1942
  160SAPE   C2617881   0.120   1.837   7.330  0.4949 -0.4334  0.2643
  160SAPE   H6R17882   0.219   1.880   7.351 -0.9252  3.1360  0.4120
  160SAPE   C2717883   0.063   1.758   7.448  0.2071 -0.4494  0.1680
  160SAPE   H7R17884   0.143   1.736   7.522  0.3625 -0.5567 -0.0342
  160SAPE   H7S17885   0.032   1.656   7.417 -0.3697 -0.4576  0.7419
  160SAPE   C2817886  -0.056   1.822   7.519  0.0139  0.5547  0.5720
  160SAPE   H8R17887  -0.161   1.818   7.485  0.1190 -2.5999  0.3501
  160SAPE   C2917888  -0.044   1.877   7.639  0.3555  0.0667  0.0359
  160SAPE   H9R17889  -0.134   1.909   7.693  0.3628 -0.0407  0.1102
  160SAPE  C21017890   0.082   1.888   7.731 -0.1640  0.5200 -0.2258
  160SAPE  H10R17891   0.147   1.968   7.689 -0.1639  0.1078 -1.0290
  160SAPE  H10S17892   0.139   1.793   7.725  2.5534  2.0249  0.0493
  160SAPE  C21117893   0.044   1.925   7.871 -0.7054  0.0778 -0.1054
  160SAPE  H11R17894   0.002   2.026   7.885  1.6927  0.9990  0.8813
  160SAPE  C21217895   0.052   1.853   7.985  0.8209 -0.2405  0.0590
  160SAPE  H12R17896   0.021   1.898   8.081  3.4969 -0.9543  1.3578
  160SAPE  C21317897   0.098   1.711   7.995  0.1960 -0.2979 -0.2337
  160SAPE  H13R17898   0.203   1.700   8.033  0.0472 -1.8998 -0.2216
  160SAPE  H13S17899   0.101   1.662   7.895 -0.8966 -0.6530 -0.1059
  160SAPE  C21417900   0.018   1.625   8.095 -0.3939  0.1326 -0.0558
  160SAPE  H14R17901  -0.043   1.548   8.044 -1.4771  1.2922 -0.5761
  160SAPE  C21517902   0.022   1.613   8.226  0.4467  0.2796 -0.2173
  160SAPE  H15R17903  -0.036   1.532   8.274 -2.5868  2.8429  0.7921
  160SAPE  C21617904   0.106   1.699   8.320  0.7579 -0.8307 -0.3219
  160SAPE  H16R17905   0.148   1.774   8.249 -0.0213 -1.0434 -1.0148
  160SAPE  H16S17906   0.192   1.635   8.349 -0.4383 -1.6526  1.5237
  160SAPE  C21717907   0.029   1.733   8.445 -0.5195 -0.4562 -0.5616
  160SAPE  H17R17908   0.000   1.642   8.501 -0.3823  0.5105  1.1451
  160SAPE  H17S17909  -0.069   1.783   8.428 -0.9298 -0.5573  1.3292
  160SAPE  C21817910   0.118   1.832   8.536 -0.5550 -0.0772 -0.1336
  160SAPE  H18R17911   0.148   1.921   8.477 -1.1700 -0.0558 -0.4256
  160SAPE  H18S17912   0.199   1.776   8.588 -0.4468  0.6450  0.5004
  160SAPE  C21917913   0.037   1.895   8.648 -0.3508  0.5777 -0.3974
  160SAPE  H19R17914   0.094   1.919   8.741  3.8324 -1.9394 -2.0367
  160SAPE  H19S17915  -0.028   1.809   8.672  0.2228  0.2414 -0.0178
  160SAPE  C22017916  -0.041   2.014   8.589 -0.0618 -1.2624  0.4595
  160SAPE  H20R17917   0.034   2.088   8.552  0.3585 -2.4335 -1.1257
  160SAPE  H20S17918  -0.094   2.062   8.675  2.3665 -0.9831  1.9014
  160SAPE  H20T17919  -0.100   1.997   8.497 -0.4259  1.3578  0.1332
  160SAPE   C3317920   0.161   1.320   7.128  0.1500  0.4150  0.5451
  160SAPE   H3X17921   0.220   1.271   7.047  0.3729  0.9172  0.4021
  160SAPE   H3Y17922   0.059   1.277   7.139 -0.3897  1.2512 -0.8734
  160SAPE   C3417923   0.227   1.307   7.265 -0.0020  0.4440  0.4889
  160SAPE   H4X17924   0.165   1.362   7.338  1.3501 -1.0279  2.8809
  160SAPE   H4Y17925   0.324   1.360   7.260 -0.5490  1.3793 -0.6900
  160SAPE   C3517926   0.240   1.161   7.321 -0.0155 -0.4576 -0.1241
  160SAPE   H5X17927   0.326   1.175   7.390  1.3055  0.5372 -1.8733
  160SAPE   H5Y17928   0.272   1.096   7.237 -1.0429 -1.5329  0.2935
  160SAPE   C3617929   0.107   1.102   7.373 -0.3209 -0.3157  0.0595
  160SAPE   H6X17930   0.043   1.086   7.284 -0.4504 -0.1029  0.1141
  160SAPE   H6Y17931   0.064   1.182   7.438  0.1426  0.8661 -1.0506
  160SAPE   C3717932   0.124   0.970   7.450  0.2339  0.0273 -0.1767
  160SAPE   H7X17933   0.196   0.986   7.533  0.5700 -1.3502 -0.1732
  160SAPE   H7Y17934   0.166   0.903   7.372 -2.0128 -0.7447 -0.8048
  160SAPE   C3817935  -0.014   0.917   7.504  0.3651 -0.0888 -0.4338
  160SAPE   H8X17936  -0.081   0.888   7.421 -2.8047  0.1401  1.8905
  160SAPE   H8Y17937  -0.062   1.007   7.549  0.1900 -0.0575 -0.6824
  160SAPE   C3917938   0.006   0.808   7.606 -0.1119 -0.1159  0.9934
  160SAPE   H9X17939   0.100   0.756   7.575  0.2414  1.3637 -0.6049
  160SAPE   H9Y17940  -0.084   0.743   7.600 -0.0429 -0.0759 -2.1581
  160SAPE  C31017941   0.023   0.864   7.744 -0.4650 -0.1156  0.2045
  160SAPE  H10X17942  -0.077   0.904   7.770 -0.9526 -2.5730  2.5696
  160SAPE  H10Y17943   0.101   0.943   7.736  0.6935 -1.2898 -0.5182
  160SAPE  C31117944   0.058   0.758   7.855  0.9046  0.4893 -0.3682
  160SAPE  H11X17945   0.152   0.706   7.828  0.1367 -0.5405 -1.0971
  160SAPE  H11Y17946  -0.029   0.691   7.864  0.2558  1.1430 -1.5627
  160SAPE  C31217947   0.081   0.825   7.998  0.6837  0.1594 -0.3917
  160SAPE  H12X17948  -0.020   0.858   8.032  0.9439 -0.0441  0.6026
  160SAPE  H12Y17949   0.146   0.915   7.996  3.9547 -2.0684 -1.2939
  160SAPE  C31317950   0.142   0.728   8.098  0.6711 -0.0595 -0.1900
  160SAPE  H13X17951   0.250   0.717   8.073  1.0347  1.2358  0.6963
  160SAPE  H13Y17952   0.090   0.630   8.107  2.2223 -0.8073  1.4534
  160SAPE  C31417953   0.134   0.779   8.243  0.2970 -0.0804 -0.4834
  160SAPE  H14X17954   0.028   0.807   8.260  0.3612  1.1488 -1.9160
  160SAPE  H14Y17955   0.182   0.879   8.255 -0.2985  0.0286  1.3601
  160SAPE  C31517956   0.191   0.682   8.349  0.0797  0.3051  0.6364
  160SAPE  H15X17957   0.204   0.735   8.446  0.6249  1.5665 -0.1115
  160SAPE  H15Y17958   0.295   0.652   8.326 -0.0811 -1.5825  2.0888
  160SAPE  C31617959   0.104   0.555   8.359  0.4983 -0.2046  0.5794
  160SAPE  H16X17960   0.122   0.485   8.274 -1.8792 -2.1324  1.5677
  160SAPE  H16Y17961  -0.002   0.586   8.351  1.0383  2.1192  1.4701
  160SAPE  C31717962   0.116   0.480   8.497 -0.2628 -0.3224 -0.4494
  160SAPE  H17X17963   0.075   0.550   8.573 -1.3674  1.0232 -2.2289
  160SAPE  H17Y17964   0.222   0.453   8.518 -0.4548 -1.9281 -1.3872
  160SAPE  C31817965   0.041   0.349   8.492 -0.4152  0.4074 -0.5753
  160SAPE  H18X17966   0.088   0.287   8.571 -0.5130 -0.1532 -0.9535
  160SAPE  H18Y17967   0.048   0.299   8.393 -2.6143 -0.0689 -0.5438
  160SAPE  H18Z17968  -0.066   0.372   8.511 -0.6116 -1.0132  0.1510
  161SOPE     N17969   3.181   0.630  11.064  0.1644  0.0985  0.1364
  161SOPE   HN117970   3.126   0.574  11.132 -1.8681  1.7425 -0.0582
  161SOPE   HN217971   3.146   0.727  11.049 -1.0406 -0.2877  0.3050
  161SOPE   HN317972   3.174   0.575  10.976  0.2367 -2.5470  1.6834
  161SOPE   C1217973   3.320   0.636  11.081 -0.0166  0.3202 -0.9711
  161SOPE  H12A17974   3.357   0.534  11.106 -0.4660  1.0754  3.7639
  161SOPE  H12B17975   3.342   0.701  11.169 -0.1447 -0.6667 -0.1947
  161SOPE   C1117976   3.400   0.694  10.968  0.3123 -0.1018 -0.2382
  161SOPE  H11A17977   3.509   0.680  10.982  0.2352  0.4775  1.1254
  161SOPE  H11B17978   3.378   0.803  10.965  0.4944 -0.0486  0.2509
  161SOPE     P17979   3.436   0.667  10.709  0.5784 -0.1711 -0.1478
  161SOPE   O1317980   3.491   0.535  10.666  0.3233  0.3235 -0.2458
  161SOPE   O1417981   3.530   0.787  10.707  0.7432 -0.3808  0.2076
  161SOPE   O1217982   3.360   0.647  10.844  0.2561  0.2309  0.5706
  161SOPE   O1117983   3.322   0.711  10.617 -0.0920  0.2265 -0.3834
  161SOPE    C117984   3.225   0.622  10.563  0.7272  0.0711  0.2719
  161SOPE    HA17985   3.129   0.674  10.544 -0.0332 -1.7240 -1.0711
  161SOPE    HB17986   3.208   0.540  10.637 -1.3037  1.2531  1.2102
  161SOPE    C217987   3.279   0.574  10.427 -0.4155  0.4470  0.2455
  161SOPE    HS17988   3.378   0.528  10.447 -1.0567 -0.7917  0.6569
  161SOPE   O2117989   3.285   0.689  10.335 -0.2433  0.4929 -0.4145
  161SOPE   C2117990   3.359   0.675  10.232 -0.3238 -0.6414  0.2872
  161SOPE   O2217991   3.448   0.594  10.204  0.0718  0.1545 -0.4957
  161SOPE   C2217992   3.315   0.792  10.135 -0.5268  0.2489 -0.7663
  161SOPE   H2R17993   3.367   0.882  10.174 -0.0369 -0.8801  1.3305
  161SOPE   H2S17994   3.207   0.818  10.144 -0.4344  0.5746 -0.5872
  161SOPE    C317995   3.200   0.453  10.362  0.0455 -0.2787  0.2900
  161SOPE    HX17996   3.098   0.488  10.335  0.6143 -1.8664 -5.4782
  161SOPE    HY17997   3.187   0.396  10.456 -1.5230 -0.0844  0.2082
  161SOPE   O3117998   3.261   0.375  10.256  0.1128  0.1176 -0.3921
  161SOPE   C3117999   3.345   0.283  10.306 -0.2734 -0.1172 -0.4848
  161SOPE   O3218000   3.377   0.276  10.421  0.3223 -0.4473 -0.2812
  161SOPE   C3218001   3.400   0.189  10.201 -0.0709  0.1325 -0.6049
  161SOPE   H2X18002   3.329   0.104  10.204 -1.5160  1.3314  1.5061
  161SOPE   H2Y18003   3.486   0.133  10.244  1.1216  0.1459 -2.7969
  161SOPE   C2318004   3.361   0.755   9.996  0.0588 -0.0091 -0.0874
  161SOPE   H3R18005   3.314   0.659   9.965  1.3574 -1.1208  1.2482
  161SOPE   H3S18006   3.471   0.743   9.988  0.1835  1.0818 -0.2078
  161SOPE   C2418007   3.306   0.840   9.889  0.1331  0.1257  0.0993
  161SOPE   H4R18008   3.199   0.867   9.903  0.2414  1.5074 -1.4031
  161SOPE   H4S18009   3.349   0.940   9.910  0.6260 -0.4263  1.9005
  161SOPE   C2518010   3.347   0.788   9.749 -0.0769 -0.2090 -0.1327
  161SOPE   H5R18011   3.457   0.791   9.738  0.0954 -0.4330  1.2662
  161SOPE   H5S18012   3.313   0.686   9.723  0.2811  0.3889 -3.3837
  161SOPE   C2618013   3.286   0.876   9.637 -0.1950  0.3881 -1.0078
  161SOPE   H6R18014   3.176   0.882   9.655 -0.3126  0.1590 -1.6206
  161SOPE   H6S18015   3.324   0.980   9.639 -0.1307  0.3589  0.0656
  161SOPE   C2718016   3.324   0.826   9.501  0.0317  0.6567 -0.5928
  161SOPE   H7R18017   3.432   0.800   9.502 -0.8741 -4.1866  1.0247
  161SOPE   H7S18018   3.275   0.726   9.497  1.4099 -0.0121 -1.5244
  161SOPE   C2818019   3.274   0.915   9.383 -0.5226  0.2464 -0.3338
  161SOPE   H8R18020   3.163   0.916   9.385 -0.5961 -1.5127 -1.5511
  161SOPE   H8S18021   3.316   1.016   9.397 -0.4291  0.1370  0.1885
  161SOPE   C2918022   3.313   0.849   9.254 -0.0760 -0.7095  0.1203
  161SOPE   H9118023   3.364   0.752   9.252 -3.1252 -2.4403 -0.0288
  161SOPE  C21018024   3.276   0.895   9.130  0.3496 -0.7478 -0.5483
  161SOPE  H10118025   3.309   0.842   9.040  1.2353 -1.0045 -0.0902
  161SOPE  C21118026   3.183   1.015   9.111  0.5189 -0.1885  0.6493
  161SOPE  H11R18027   3.110   1.032   9.194  0.3484 -1.3191  0.7582
  161SOPE  H11S18028   3.117   0.987   9.026  0.5982  2.4768 -0.3610
  161SOPE  C21218029   3.256   1.146   9.072 -0.6748 -0.8338 -0.2720
  161SOPE  H12R18030   3.338   1.128   8.999  1.5711  0.5727  1.7310
  161SOPE  H12S18031   3.308   1.167   9.168 -1.8645 -2.3025  0.7562
  161SOPE  C21318032   3.167   1.256   9.026 -0.0839 -0.4442 -0.3901
  161SOPE  H13R18033   3.178   1.344   9.093 -2.4668  0.6880 -1.3482
  161SOPE  H13S18034   3.059   1.236   9.042 -0.7015  1.8093 -1.3338
  161SOPE  C21418035   3.183   1.295   8.874 -0.0709  0.4333 -0.1085
  161SOPE  H14R18036   3.287   1.272   8.844 -0.1206 -1.2549  0.8742
  161SOPE  H14S18037   3.174   1.405   8.865 -2.4561  0.2449 -0.7470
  161SOPE  C21518038   3.081   1.210   8.788  0.2152  0.0470  0.1483
  161SOPE  H15R18039   2.973   1.210   8.815  0.1759  3.2976  0.3626
  161SOPE  H15S18040   3.114   1.108   8.818  2.1457  1.0988  1.8106
  161SOPE  C21618041   3.101   1.232   8.638 -0.0755  0.3691 -0.0759
  161SOPE  H16R18042   3.206   1.208   8.609 -0.3309  1.0523 -1.6127
  161SOPE  H16S18043   3.078   1.338   8.615 -0.3597  0.1608 -0.7627
  161SOPE  C21718044   3.013   1.144   8.563  0.3522 -0.3912  0.2584
  161SOPE  H17R18045   2.909   1.163   8.599  0.2171 -1.1382  0.2706
  161SOPE  H17S18046   3.041   1.040   8.589  0.9294 -0.4419 -0.5362
  161SOPE  C21818047   3.031   1.162   8.407  0.2876 -0.4238 -0.6962
  161SOPE  H18R18048   2.987   1.071   8.360  1.0271 -0.0222 -2.2486
  161SOPE  H18S18049   3.135   1.157   8.370  0.6351 -1.6004  0.3655
  161SOPE  H18T18050   2.979   1.251   8.365  0.6283  0.2398  0.2716
  161SOPE   C3318051   3.424   0.253  10.064 -0.5210  0.1668  0.0743
  161SOPE   H3X18052   3.469   0.355  10.064 -1.4105  0.5989 -1.7512
  161SOPE   H3Y18053   3.322   0.265  10.023 -1.0049 -3.6404 -0.2281
  161SOPE   C3418054   3.511   0.156   9.975  0.2331 -0.1921 -0.5639
  161SOPE   H4X18055   3.474   0.053   9.995 -0.1534 -0.2940 -1.7107
  161SOPE   H4Y18056   3.615   0.154  10.015  1.0577 -2.3035 -2.5491
  161SOPE   C3518057   3.512   0.203   9.833 -0.2183  0.4514 -0.8254
  161SOPE   H5X18058   3.597   0.155   9.780  0.2006 -1.3683  1.3691
  161SOPE   H5Y18059   3.512   0.314   9.831 -2.4860  0.5269 -0.2566
  161SOPE   C3618060   3.389   0.155   9.750  0.8642 -0.4233  0.0723
  161SOPE   H6X18061   3.301   0.207   9.793  1.8165  0.3002  1.2065
  161SOPE   H6Y18062   3.368   0.046   9.764 -0.9455 -0.5079 -2.5042
  161SOPE   C3718063   3.413   0.164   9.593  0.0819 -0.4490 -0.4576
  161SOPE   H7X18064   3.336   0.108   9.536  0.0763  0.1346 -1.0445
  161SOPE   H7Y18065   3.511   0.121   9.563 -0.7639 -1.7741 -1.4187
  161SOPE   C3818066   3.427   0.305   9.533 -0.1868 -1.2697 -0.4909
  161SOPE   H8X18067   3.493   0.367   9.597 -0.6655 -0.1598 -1.0647
  161SOPE   H8Y18068   3.327   0.347   9.553  0.3517 -0.1597 -0.0547
  161SOPE   C3918069   3.448   0.304   9.383 -0.3346 -0.0914 -0.5339
  161SOPE   H9X18070   3.360   0.256   9.335  1.4639 -2.8544 -1.3018
  161SOPE   H9Y18071   3.528   0.236   9.349  0.1599 -0.6598  1.6378
  161SOPE  C31018072   3.485   0.441   9.314  0.2710  0.0284 -1.1333
  161SOPE  H10X18073   3.564   0.495   9.371  1.7297  0.0134 -3.0389
  161SOPE  H10Y18074   3.392   0.500   9.302 -0.0173  0.1494  1.2185
  161SOPE  C31118075   3.552   0.425   9.178  0.3112  0.0834  0.4982
  161SOPE  H11X18076   3.634   0.351   9.193  2.0423  1.2573 -2.3894
  161SOPE  H11Y18077   3.596   0.522   9.145  0.3419 -0.0724  0.0699
  161SOPE  C31218078   3.469   0.356   9.075 -0.0967  0.2079  0.1553
  161SOPE  H12X18079   3.373   0.410   9.059 -0.0834  0.1445 -0.1423
  161SOPE  H12Y18080   3.433   0.257   9.112 -1.3102  1.1199  1.5258
  161SOPE  C31318081   3.540   0.347   8.936 -0.2960  0.0102 -0.4264
  161SOPE  H13X18082   3.465   0.295   8.871  0.0071  0.4269 -1.1244
  161SOPE  H13Y18083   3.633   0.287   8.940  0.1702  0.6942 -0.8287
  161SOPE  C31418084   3.570   0.480   8.868  0.5493 -0.0879  0.3327
  161SOPE  H14X18085   3.628   0.466   8.775  1.1816  4.2776 -0.1506
  161SOPE  H14Y18086   3.647   0.530   8.931  1.5799  0.2112 -1.1114
  161SOPE  C31518087   3.441   0.566   8.847 -0.1388 -0.4761  0.4406
  161SOPE  H15X18088   3.411   0.595   8.950  1.8430 -1.5140  1.3849
  161SOPE  H15Y18089   3.367   0.501   8.796  0.7118 -1.5409  0.5126
  161SOPE  C31618090   3.457   0.689   8.761  0.1612 -1.0071  0.3753
  161SOPE  H16X18091   3.515   0.660   8.671  0.7502 -2.5418  1.2104
  161SOPE  H16Y18092   3.530   0.759   8.808  1.3356 -1.5689 -0.5809
  161SOPE  C31718093   3.329   0.769   8.735  0.0792  0.3226 -0.0048
  161SOPE  H17X18094   3.270   0.786   8.828 -1.1897 -0.9208 -0.5362
  161SOPE  H17Y18095   3.251   0.703   8.691  0.3366 -0.2265  0.3575
  161SOPE  C31818096   3.333   0.898   8.655 -0.2108  0.0078  0.3891
  161SOPE  H18X18097   3.432   0.949   8.662 -0.1169  0.0334 -0.8530
  161SOPE  H18Y18098   3.255   0.972   8.684  0.5040  2.3028 -2.9177
  161SOPE  H18Z18099   3.298   0.875   8.552  0.1393 -2.6675  0.8118
  162SOPE     N18100   0.777   6.230  11.430 -0.1473 -0.0587  0.7567
  162SOPE   HN118101   0.722   6.268  11.510 -1.3234  0.0817 -0.1024
  162SOPE   HN218102   0.749   6.130  11.424 -0.4053  0.1004 -1.1808
  162SOPE   HN318103   0.880   6.222  11.439 -0.2288 -2.1774  0.1863
  162SOPE   C1218104   0.749   6.318  11.310 -0.4667  0.0409 -0.2525
  162SOPE  H12A18105   0.806   6.278  11.224  0.4064  1.4243 -0.3528
  162SOPE  H12B18106   0.787   6.418  11.340 -2.4808  0.6825  0.2830
  162SOPE   C1118107   0.603   6.321  11.276 -1.0514 -0.3558  0.0606
  162SOPE  H11A18108   0.588   6.391  11.191 -1.5669  1.3275  1.4784
  162SOPE  H11B18109   0.531   6.366  11.348 -0.3457 -2.2340  2.0751
  162SOPE     P18110   0.469   6.152  11.122 -0.3759  0.0202 -0.3789
  162SOPE   O1318111   0.328   6.154  11.172 -0.4253  0.3314 -0.2114
  162SOPE   O1418112   0.518   6.024  11.055 -0.1526  0.1014  0.3603
  162SOPE   O1218113   0.560   6.189  11.248 -0.2437  0.2227  0.3036
  162SOPE   O1118114   0.490   6.275  11.030 -0.1205 -0.1625 -0.2695
  162SOPE    C118115   0.391   6.328  10.943  0.2648 -1.0293 -0.1014
  162SOPE    HA18116   0.421   6.434  10.929 -0.0972 -0.9604 -0.3735
  162SOPE    HB18117   0.289   6.330  10.987 -0.3009  1.6482 -1.3819
  162SOPE    C218118   0.390   6.261  10.808 -0.4634 -0.3327 -0.2785
  162SOPE    HS18119   0.360   6.155  10.821 -3.1902  0.5406  1.5346
  162SOPE   O2118120   0.517   6.292  10.752  0.1429  0.3408  0.1061
  162SOPE   C2118121   0.563   6.207  10.670 -0.5697  0.1138  0.2515
  162SOPE   O2218122   0.535   6.090  10.659  0.2809  0.0772 -1.3568
  162SOPE   C2218123   0.672   6.266  10.585  0.0302  0.3195  0.0422
  162SOPE   H2R18124   0.767   6.283  10.639  0.4768  1.1426 -0.9421
  162SOPE   H2S18125   0.630   6.361  10.543 -0.2497  0.9446  1.6462
  162SOPE    C318126   0.288   6.328  10.710  0.2284 -0.4793  1.1586
  162SOPE    HX18127   0.309   6.437  10.717 -1.7737  0.1333 -0.9620
  162SOPE    HY18128   0.184   6.316  10.747 -0.3402 -2.5044 -0.8612
  162SOPE   O3118129   0.309   6.293  10.572  0.2259  0.2701 -0.4315
  162SOPE   C3118130   0.222   6.196  10.517  0.0089 -0.2567 -0.4191
  162SOPE   O3218131   0.123   6.146  10.574 -0.6878  0.1422 -0.0728
  162SOPE   C3218132   0.265   6.170  10.384 -0.4792  0.0879  0.8010
  162SOPE   H2X18133   0.376   6.160  10.377 -0.4763  0.8595 -0.6197
  162SOPE   H2Y18134   0.241   6.266  10.333  1.4637  0.7529  1.0684
  162SOPE   C2318135   0.702   6.173  10.463 -0.1329  0.0908 -0.2002
  162SOPE   H3R18136   0.613   6.170  10.397 -1.0431  2.9864  0.7339
  162SOPE   H3S18137   0.717   6.068  10.495  0.3891  0.0257 -0.6433
  162SOPE   C2418138   0.829   6.210  10.377  1.0454  0.2993  0.1168
  162SOPE   H4R18139   0.840   6.156  10.281 -0.2741  0.8025 -0.3436
  162SOPE   H4S18140   0.817   6.316  10.346  2.9949  0.4289 -0.3178
  162SOPE   C2518141   0.958   6.213  10.459 -0.4557 -0.6423 -0.2697
  162SOPE   H5R18142   0.951   6.301  10.526  2.0242  1.4275 -2.4994
  162SOPE   H5S18143   0.957   6.122  10.523 -0.9184  0.4689  1.3589
  162SOPE   C2618144   1.087   6.221  10.378  0.5497 -0.9380 -0.2796
  162SOPE   H6R18145   1.068   6.151  10.294  0.6555 -0.1851 -0.9326
  162SOPE   H6S18146   1.079   6.325  10.341 -1.0937 -0.9634 -0.0928
  162SOPE   C2718147   1.213   6.210  10.460  0.6787 -0.2777  0.1254
  162SOPE   H7R18148   1.198   6.275  10.549  2.6121  0.8005 -0.2844
  162SOPE   H7S18149   1.219   6.100  10.480 -1.8974 -0.9057 -1.9144
  162SOPE   C2818150   1.347   6.249  10.397  0.2657  0.3560 -0.3565
  162SOPE   H8R18151   1.350   6.359  10.385 -1.5800  0.4640 -0.1619
  162SOPE   H8S18152   1.420   6.228  10.478 -0.6673  3.2467  1.4036
  162SOPE   C2918153   1.360   6.165  10.271  0.1699 -0.3146 -0.3638
  162SOPE   H9118154   1.294   6.077  10.264 -0.2836  0.1259 -2.5759
  162SOPE  C21018155   1.438   6.205  10.170  0.0841  0.8075  0.7813
  162SOPE  H10118156   1.440   6.140  10.081  3.3260  0.6878  0.8220
  162SOPE  C21118157   1.536   6.319  10.171  0.5517 -0.3490 -0.6867
  162SOPE  H11R18158   1.550   6.343  10.278 -0.5843 -1.3880 -0.2887
  162SOPE  H11S18159   1.493   6.402  10.111 -0.5297 -1.6921 -1.8125
  162SOPE  C21218160   1.674   6.286  10.117 -0.1480  0.8820 -0.3382
  162SOPE  H12R18161   1.655   6.252  10.013 -1.9215  2.0057 -0.4219
  162SOPE  H12S18162   1.708   6.194  10.168 -2.3314  0.2685  0.1184
  162SOPE  C21318163   1.774   6.404  10.130  0.9651  0.4525 -0.0689
  162SOPE  H13R18164   1.876   6.362  10.116  0.5864 -0.5613  0.0777
  162SOPE  H13S18165   1.754   6.445  10.232 -2.7763  1.0616 -0.8970
  162SOPE  C21418166   1.757   6.521  10.048  0.2744  0.3021  0.8811
  162SOPE  H14R18167   1.656   6.565  10.061  0.6474  0.4563  3.8081
  162SOPE  H14S18168   1.775   6.499   9.940 -1.4251 -0.8374  0.7801
  162SOPE  C21518169   1.864   6.622  10.084  0.1658 -0.8663  0.1328
  162SOPE  H15R18170   1.968   6.582  10.082  1.5468  1.9332  3.5665
  162SOPE  H15S18171   1.845   6.657  10.188 -2.3055 -1.3829 -0.0819
  162SOPE  C21618172   1.857   6.753  10.001  0.4543 -0.4320  0.1244
  162SOPE  H16R18173   1.759   6.800  10.022  1.1618  0.5949  1.2173
  162SOPE  H16S18174   1.873   6.731   9.893  0.1773 -0.2892  0.0536
  162SOPE  C21718175   1.968   6.857  10.036  0.8316  0.4130  0.2398
  162SOPE  H17R18176   2.072   6.818  10.043 -0.0296 -2.4977 -1.2384
  162SOPE  H17S18177   1.946   6.891  10.140  1.3974  2.2409 -0.2095
  162SOPE  C21818178   1.972   6.983   9.954  0.5537 -0.0489  0.4510
  162SOPE  H18R18179   2.065   7.038   9.981  0.0684  0.6154  0.7975
  162SOPE  H18S18180   1.880   7.041   9.976  0.5334  0.6433 -1.3135
  162SOPE  H18T18181   1.983   6.969   9.844  0.8059  0.3672  0.4216
  162SOPE   C3318182   0.172   6.067  10.316 -0.3708 -0.1027 -0.1876
  162SOPE   H3X18183   0.063   6.086  10.333  0.0165  1.1736  1.0393
  162SOPE   H3Y18184   0.207   5.969  10.355  1.6248 -0.6876 -3.1096
  162SOPE   C3418185   0.195   6.067  10.163  0.5489  0.4331  0.5007
  162SOPE   H4X18186   0.303   6.058  10.139  0.3359 -2.4698  0.2408
  162SOPE   H4Y18187   0.156   6.155  10.107  1.0962 -0.3700 -1.2137
  162SOPE   C3518188   0.146   5.948  10.083  0.9386  0.7342 -0.1388
  162SOPE   H5X18189   0.177   5.865  10.150  0.5124  0.9966  0.3890
  162SOPE   H5Y18190   0.191   5.938   9.982 -1.2256  2.1066 -1.3239
  162SOPE   C3618191  -0.002   5.956  10.042  0.0320  0.0329 -0.7888
  162SOPE   H6X18192  -0.070   5.966  10.130  0.5201 -2.7214  0.0117
  162SOPE   H6Y18193  -0.030   5.856  10.003  1.1609 -1.9450  2.9761
  162SOPE   C3718194  -0.015   6.054   9.920  0.0101  0.1563 -0.0659
  162SOPE   H7X18195   0.071   6.049   9.850 -0.6686  0.0457 -0.9076
  162SOPE   H7Y18196  -0.017   6.158   9.959 -1.8937 -0.4955  1.8276
  162SOPE   C3818197  -0.141   6.039   9.838  0.0493 -0.4538  0.0349
  162SOPE   H8X18198  -0.224   6.041   9.913  1.9891  1.8407  2.2925
  162SOPE   H8Y18199  -0.152   5.942   9.785 -0.1650  0.5942 -1.8966
  162SOPE   C3918200  -0.150   6.145   9.726  0.6792 -0.5005 -0.5003
  162SOPE   H9X18201  -0.163   6.239   9.784  2.4657  0.1574 -1.0708
  162SOPE   H9Y18202  -0.240   6.116   9.668  1.9136 -0.4514 -2.5387
  162SOPE  C31018203  -0.039   6.146   9.624 -0.9876  0.8050  0.0728
  162SOPE  H10X18204  -0.016   6.047   9.581  0.3699  1.8715 -1.8106
  162SOPE  H10Y18205   0.056   6.175   9.673 -0.8525  0.4603  0.0155
  162SOPE  C31118206  -0.051   6.240   9.505 -0.3023  0.3519  0.2265
  162SOPE  H11X18207  -0.038   6.344   9.541  0.4099  0.6145 -0.7453
  162SOPE  H11Y18208  -0.150   6.222   9.458  0.2602 -1.4262 -0.3660
  162SOPE  C31218209   0.056   6.199   9.399  0.6980  0.2032  0.0072
  162SOPE  H12X18210   0.058   6.093   9.367  3.1595 -0.0836  0.8747
  162SOPE  H12Y18211   0.152   6.213   9.454  1.2421 -0.9695 -0.6171
  162SOPE  C31318212   0.059   6.284   9.277 -0.5211 -0.2629  0.1110
  162SOPE  H13X18213   0.149   6.258   9.217 -0.9651 -1.0915 -0.2114
  162SOPE  H13Y18214   0.073   6.392   9.301 -0.6261 -0.0271 -0.8142
  162SOPE  C31418215  -0.064   6.261   9.189  0.6854 -0.6379 -0.4943
  162SOPE  H14X18216  -0.166   6.286   9.226  0.1313  0.6079 -2.6591
  162SOPE  H14Y18217  -0.054   6.150   9.184 -1.2598 -0.8723  0.0471
  162SOPE  C31518218  -0.043   6.308   9.042  0.8231 -0.0640  0.1923
  162SOPE  H15X18219   0.033   6.236   9.003 -1.6410 -2.2148 -0.9187
  162SOPE  H15Y18220  -0.007   6.413   9.050 -1.0308  0.6436 -0.3972
  162SOPE  C31618221  -0.169   6.297   8.956  0.0642  0.3952  0.2489
  162SOPE  H16X18222  -0.159   6.366   8.869  1.2398  1.6666  1.3460
  162SOPE  H16Y18223  -0.246   6.343   9.021 -0.8457 -1.9369  0.9333
  162SOPE  C31718224  -0.216   6.159   8.897  0.0689  0.2902  0.1986
  162SOPE  H17X18225  -0.248   6.085   8.974 -1.9970 -2.7458 -3.2172
  162SOPE  H17Y18226  -0.138   6.107   8.835 -1.3663  1.4381 -2.7681
  162SOPE  C31818227  -0.332   6.179   8.798 -0.1020  0.0296 -0.2923
  162SOPE  H18X18228  -0.306   6.248   8.716  0.3442 -1.3930 -1.3851
  162SOPE  H18Y18229  -0.422   6.208   8.856 -1.0460 -0.9907 -1.2096
  162SOPE  H18Z18230  -0.352   6.081   8.750  4.4604 -2.1475  1.6437
  163SOPE     N18231   3.833   5.557  11.015  0.8890 -0.2721 -0.3606
  163SOPE   HN118232   3.757   5.500  10.971  2.4555 -1.4685 -1.6606
  163SOPE   HN218233   3.923   5.536  10.967  1.9395 -0.1945  1.4987
  163SOPE   HN318234   3.848   5.526  11.113 -0.5730 -0.5080 -0.1849
  163SOPE   C1218235   3.806   5.703  11.023 -0.1774 -1.0854  0.9733
  163SOPE  H12A18236   3.884   5.749  11.087 -0.6412  0.0617  0.7447
  163SOPE  H12B18237   3.706   5.725  11.067  1.1350  1.4448  2.9800
  163SOPE   C1118238   3.828   5.762  10.882 -0.7527 -0.3578 -0.2123
  163SOPE  H11A18239   3.925   5.716  10.852  0.1200  0.7183  0.8520
  163SOPE  H11B18240   3.826   5.873  10.873 -2.8981 -0.2900  0.4107
  163SOPE     P18241   3.583   5.741  10.782 -0.4156 -0.0878 -0.0813
  163SOPE   O1318242   3.559   5.887  10.807 -0.1778  0.5721 -0.3886
  163SOPE   O1418243   3.522   5.639  10.866  0.2143 -0.2310 -0.7698
  163SOPE   O1218244   3.738   5.712  10.788  0.1457 -0.4871 -0.1875
  163SOPE   O1118245   3.533   5.725  10.631  0.1708  0.3072 -0.2621
  163SOPE    C118246   3.618   5.661  10.525  0.3770  0.8298 -0.1289
  163SOPE    HA18247   3.559   5.614  10.443  3.0227 -3.7421  0.2626
  163SOPE    HB18248   3.673   5.571  10.558  0.4145  0.5938 -0.8154
  163SOPE    C218249   3.721   5.763  10.466  0.0424 -0.6918  0.0461
  163SOPE    HS18250   3.782   5.805  10.548  1.1689 -2.2148  0.0139
  163SOPE   O2118251   3.641   5.871  10.403 -0.0285 -0.2344  0.0716
  163SOPE   C2118252   3.723   5.975  10.376  0.0181 -0.4107  0.1762
  163SOPE   O2218253   3.842   5.977  10.401  0.2903  0.1984 -0.3198
  163SOPE   C2218254   3.631   6.083  10.312 -0.0963  0.5653 -0.4755
  163SOPE   H2R18255   3.688   6.150  10.244  0.7392 -0.6000 -0.9545
  163SOPE   H2S18256   3.589   6.137  10.400 -0.8418  1.1966 -1.1985
  163SOPE    C318257   3.806   5.693  10.357  0.1319 -0.0934  0.0064
  163SOPE    HX18258   3.877   5.616  10.394  0.2291 -1.0411 -2.0418
  163SOPE    HY18259   3.879   5.772  10.329 -1.5435  1.5716  0.1136
  163SOPE   O3118260   3.734   5.661  10.238  0.5033 -0.0023 -0.5936
  163SOPE   C3118261   3.718   5.528  10.222  0.2557  0.3015  0.0986
  163SOPE   O3218262   3.747   5.435  10.296  0.2979  0.9586 -0.5564
  163SOPE   C3218263   3.620   5.512  10.103  0.1875 -0.0164 -0.2900
  163SOPE   H2X18264   3.679   5.526  10.010 -0.5603  1.0341 -0.6217
  163SOPE   H2Y18265   3.552   5.599  10.111  0.5381  0.1711  0.8874
  163SOPE   C2318266   3.519   6.026  10.219 -0.3653  0.6066  0.3060
  163SOPE   H3R18267   3.456   6.113  10.189 -0.2171  0.5602 -0.1486
  163SOPE   H3S18268   3.461   5.949  10.276  1.8111 -1.9368 -0.6954
  163SOPE   C2418269   3.582   5.980  10.093 -0.6322  0.2747 -0.4079
  163SOPE   H4R18270   3.648   6.062  10.058  1.6080 -0.5251  1.6798
  163SOPE   H4S18271   3.632   5.884  10.118 -1.3426 -0.2646 -0.9650
  163SOPE   C2518272   3.468   5.966   9.988 -0.3921  0.1251 -0.3575
  163SOPE   H5R18273   3.382   5.902  10.017 -2.0196  1.3048 -2.3471
  163SOPE   H5S18274   3.424   6.068   9.983 -0.4321  0.1312  0.0542
  163SOPE   C2618275   3.515   5.925   9.853 -0.6515 -0.1717  0.6052
  163SOPE   H6R18276   3.536   5.817   9.859 -0.0670  0.0332  4.2881
  163SOPE   H6S18277   3.430   5.923   9.781 -0.6955 -3.0326  0.6521
  163SOPE   C2718278   3.620   6.015   9.798  0.0807  0.5839  0.8098
  163SOPE   H7R18279   3.715   6.010   9.854  0.2274  2.1322  0.7339
  163SOPE   H7S18280   3.636   5.977   9.695  1.3283  0.2123  1.1306
  163SOPE   C2818281   3.580   6.164   9.775 -0.1350 -0.2710 -0.0352
  163SOPE   H8R18282   3.558   6.209   9.874 -2.7989 -1.1364 -0.1542
  163SOPE   H8S18283   3.669   6.215   9.733  0.6506 -1.7941 -0.2960
  163SOPE   C2918284   3.448   6.189   9.708 -0.3106 -0.2922  0.1245
  163SOPE   H9118285   3.360   6.189   9.775  0.1972 -0.8635  0.8160
  163SOPE  C21018286   3.430   6.212   9.577  0.3016  0.2852 -0.3002
  163SOPE  H10118287   3.327   6.229   9.543  0.6893  2.2276 -0.6004
  163SOPE  C21118288   3.539   6.210   9.470  0.3365 -0.1941  0.4645
  163SOPE  H11R18289   3.628   6.152   9.504 -1.3111 -1.5882  2.6583
  163SOPE  H11S18290   3.572   6.314   9.451 -0.8345  0.1932  0.4681
  163SOPE  C21218291   3.518   6.144   9.328 -0.0081  0.6958 -0.3254
  163SOPE  H12R18292   3.615   6.140   9.275 -0.4132  2.2266 -1.2450
  163SOPE  H12S18293   3.445   6.198   9.263 -1.2657 -0.4945  0.0434
  163SOPE  C21318294   3.469   5.994   9.339  0.2408  1.2405  0.0931
  163SOPE  H13R18295   3.376   5.975   9.398 -0.3617 -0.9345 -1.4245
  163SOPE  H13S18296   3.546   5.934   9.392 -3.1122 -2.7070  1.1122
  163SOPE  C21418297   3.434   5.940   9.195  0.0699 -0.3699  0.1402
  163SOPE  H14R18298   3.357   6.009   9.155 -0.5024 -1.1336 -0.1104
  163SOPE  H14S18299   3.387   5.840   9.209 -3.0468  0.5816 -2.2475
  163SOPE  C21518300   3.552   5.938   9.093 -0.0292 -0.1583 -0.6224
  163SOPE  H15R18301   3.642   5.901   9.146 -0.4549  1.8038  1.6584
  163SOPE  H15S18302   3.582   6.038   9.056  0.9817 -0.9613 -2.0822
  163SOPE  C21618303   3.517   5.852   8.975  0.3795  0.3027 -0.9027
  163SOPE  H16R18304   3.414   5.889   8.957  0.3555  1.3261  1.0548
  163SOPE  H16S18305   3.516   5.743   8.995  3.6372  0.5385  1.3301
  163SOPE  C21718306   3.592   5.872   8.841  0.0361  0.2810 -0.4953
  163SOPE  H17R18307   3.684   5.810   8.833 -0.4407 -0.2476 -2.3686
  163SOPE  H17S18308   3.605   5.979   8.815  1.2086  0.1829 -0.3548
  163SOPE  C21818309   3.505   5.823   8.726  0.0288  0.3149  0.4389
  163SOPE  H18R18310   3.558   5.818   8.629 -1.2843  0.0962 -0.2800
  163SOPE  H18S18311   3.419   5.892   8.720  0.1792  0.3772 -1.5708
  163SOPE  H18T18312   3.471   5.721   8.756  0.4103 -0.4649 -1.6583
  163SOPE   C3318313   3.536   5.380  10.086  1.0266 -0.1207 -0.0375
  163SOPE   H3X18314   3.488   5.355  10.183 -1.0045  1.0865 -0.6859
  163SOPE   H3Y18315   3.606   5.297  10.061 -0.7908 -2.1963  1.3871
  163SOPE   C3418316   3.442   5.391   9.975 -0.1078  0.2478  0.1030
  163SOPE   H4X18317   3.417   5.495   9.943 -1.7392 -0.4646 -1.1205
  163SOPE   H4Y18318   3.352   5.339  10.014  0.2008 -1.9339 -1.9081
  163SOPE   C3518319   3.481   5.299   9.852  0.4902 -0.2502 -0.2379
  163SOPE   H5X18320   3.491   5.196   9.894  4.3230  0.2033  0.3894
  163SOPE   H5Y18321   3.580   5.338   9.819  0.7408 -0.9673 -0.3689
  163SOPE   C3618322   3.395   5.301   9.728 -0.5802 -0.0516  0.4345
  163SOPE   H6X18323   3.389   5.407   9.694 -1.5041 -0.8387 -2.0941
  163SOPE   H6Y18324   3.289   5.274   9.747 -1.5125  2.3606 -0.8339
  163SOPE   C3718325   3.460   5.217   9.623 -0.0460 -0.2883  0.7039
  163SOPE   H7X18326   3.465   5.109   9.651 -1.1540 -1.0518 -1.7916
  163SOPE   H7Y18327   3.564   5.256   9.611 -0.6769  1.4662  0.6488
  163SOPE   C3818328   3.380   5.232   9.490  0.6144 -0.3594 -0.1229
  163SOPE   H8X18329   3.388   5.340   9.464 -1.6640  1.0791  4.1982
  163SOPE   H8Y18330   3.271   5.215   9.503  0.2791 -0.5484 -2.6739
  163SOPE   C3918331   3.434   5.149   9.372  0.0997 -0.3361  0.5715
  163SOPE   H9X18332   3.426   5.039   9.389  2.0890 -0.4293  1.1999
  163SOPE   H9Y18333   3.542   5.176   9.362 -0.1666  0.1184 -1.3342
  163SOPE  C31018334   3.355   5.191   9.250 -0.0972  0.2373  0.3743
  163SOPE  H10X18335   3.379   5.298   9.232 -0.1794 -0.1475 -2.4681
  163SOPE  H10Y18336   3.246   5.185   9.269 -0.3126 -0.0829 -0.8751
  163SOPE  C31118337   3.380   5.104   9.126  0.1320 -0.1072  0.5122
  163SOPE  H11X18338   3.367   4.998   9.159 -1.2786 -0.7977 -1.9888
  163SOPE  H11Y18339   3.482   5.114   9.082  0.4317 -0.4190  1.1209
  163SOPE  C31218340   3.284   5.122   9.010 -0.1678  0.6693 -0.6549
  163SOPE  H12X18341   3.300   5.227   8.979  1.4940  0.7805  0.4387
  163SOPE  H12Y18342   3.178   5.103   9.038 -0.1460 -0.8186 -1.4725
  163SOPE  C31318343   3.313   5.028   8.897 -0.5871  0.3855  0.0199
  163SOPE  H13X18344   3.305   4.926   8.940 -2.7869  1.4130  2.3344
  163SOPE  H13Y18345   3.417   5.048   8.864 -1.0903 -1.0322 -2.7474
  163SOPE  C31418346   3.222   5.046   8.780  0.5062  0.4974 -0.0717
  163SOPE  H14X18347   3.212   5.155   8.764 -0.5533  0.4087 -0.0822
  163SOPE  H14Y18348   3.124   5.012   8.819  1.6035  1.4314  3.9769
  163SOPE  C31518349   3.274   4.976   8.652 -0.7274  0.2439  0.9709
  163SOPE  H15X18350   3.374   5.021   8.634 -0.1547 -1.3660  0.0321
  163SOPE  H15Y18351   3.204   4.994   8.568 -1.9419  1.7178  2.2281
  163SOPE  C31618352   3.302   4.828   8.671  0.3811  0.5694 -0.6172
  163SOPE  H16X18353   3.212   4.771   8.701 -0.5837  2.2458 -0.2258
  163SOPE  H16Y18354   3.372   4.814   8.756 -0.5169 -1.4816 -0.1459
  163SOPE  C31718355   3.362   4.768   8.542 -0.9551  0.2096  0.1640
  163SOPE  H17X18356   3.299   4.776   8.451 -0.1104  1.4532 -0.3586
  163SOPE  H17Y18357   3.394   4.664   8.561  0.2711  0.8062  1.5835
  163SOPE  C31818358   3.489   4.843   8.498 -0.1868  0.2309 -0.1195
  163SOPE  H18X18359   3.549   4.875   8.586 -0.4800 -0.5075  0.3552
  163SOPE  H18Y18360   3.478   4.928   8.427 -0.1862 -0.0619 -0.4706
  163SOPE  H18Z18361   3.560   4.775   8.446 -0.0140  1.0926 -1.0374
  164SOPE     N18362   6.365   1.996  10.633  0.3558 -0.2329 -0.3958
  164SOPE   HN118363   6.276   1.960  10.674 -0.2192  2.1488  0.6536
  164SOPE   HN218364   6.417   2.058  10.698 -0.2841  1.5284 -1.4829
  164SOPE   HN318365   6.351   2.060  10.552 -0.9075 -0.9979 -0.8094
  164SOPE   C1218366   6.447   1.878  10.619 -0.0633 -1.2278  0.6839
  164SOPE  H12A18367   6.415   1.825  10.711 -0.4738  1.2800  2.0520
  164SOPE  H12B18368   6.555   1.903  10.631 -0.6383  2.2977 -0.5097
  164SOPE   C1118369   6.417   1.809  10.483 -0.2373 -0.3772  0.4483
  164SOPE  H11A18370   6.463   1.872  10.404 -2.3968 -0.9245 -1.3738
  164SOPE  H11B18371   6.306   1.806  10.472 -0.3217  0.3391  1.0027
  164SOPE     P18372   6.431   1.558  10.551  0.1922 -0.2567 -0.3888
  164SOPE   O1318373   6.411   1.581  10.698 -0.3403 -0.9684 -0.2623
  164SOPE   O1418374   6.513   1.435  10.522 -0.2721  0.3239 -0.3505
  164SOPE   O1218375   6.490   1.684  10.483  0.4893  0.0494 -0.3562
  164SOPE   O1118376   6.285   1.553  10.497  0.7360 -0.3510 -0.2315
  164SOPE    C118377   6.234   1.443  10.421  0.2996 -0.5894  0.1938
  164SOPE    HA18378   6.124   1.440  10.430  0.3416 -0.0864  0.9372
  164SOPE    HB18379   6.277   1.346  10.454  1.5450  0.0079  0.3925
  164SOPE    C218380   6.272   1.466  10.265  0.0321  0.0014  0.0296
  164SOPE    HS18381   6.381   1.446  10.262 -0.1680 -1.2941  0.7622
  164SOPE   O2118382   6.232   1.601  10.222 -0.0010  0.1186  0.1805
  164SOPE   C2118383   6.315   1.651  10.132 -0.0623 -0.0370 -0.2943
  164SOPE   O2218384   6.417   1.597  10.096  0.2683  0.3047 -0.1112
  164SOPE   C2218385   6.258   1.783  10.071 -0.1076  0.2404 -0.0576
  164SOPE   H2R18386   6.295   1.869  10.131  2.3454 -0.9279  0.2280
  164SOPE   H2S18387   6.147   1.783  10.079 -0.0763 -1.3649  0.6291
  164SOPE    C318388   6.192   1.366  10.180 -0.5154 -0.4553  0.0859
  164SOPE    HX18389   6.085   1.398  10.185 -0.1432  0.7329  0.6557
  164SOPE    HY18390   6.189   1.260  10.214 -3.3722 -0.8546 -1.0794
  164SOPE   O3118391   6.231   1.366  10.041  0.4169  0.2497  0.7982
  164SOPE   C3118392   6.311   1.269   9.996 -0.6106 -0.5733 -0.0107
  164SOPE   O3218393   6.373   1.193  10.070  0.3420 -0.6907 -0.8510
  164SOPE   C3218394   6.328   1.274   9.840 -0.1871 -0.2771  0.1015
  164SOPE   H2X18395   6.388   1.367   9.829 -1.0199  0.6420  2.6676
  164SOPE   H2Y18396   6.227   1.291   9.797  0.7976  1.9114 -1.5494
  164SOPE   C2318397   6.284   1.800   9.918  0.1009  0.1885 -0.3306
  164SOPE   H3R18398   6.391   1.772   9.902 -0.1067 -0.8090 -0.0632
  164SOPE   H3S18399   6.286   1.899   9.868  1.7382 -0.0071 -0.7325
  164SOPE   C2418400   6.198   1.715   9.827 -0.2064 -0.3208  0.3756
  164SOPE   H4R18401   6.208   1.607   9.851  1.5428 -0.0698  0.9263
  164SOPE   H4S18402   6.095   1.754   9.839 -1.1057 -2.4877  0.2030
  164SOPE   C2518403   6.248   1.716   9.686  0.1320  0.4043 -0.6313
  164SOPE   H5R18404   6.257   1.820   9.647 -0.7994  0.4334 -0.7737
  164SOPE   H5S18405   6.349   1.675   9.708 -0.8130 -0.2511  3.0608
  164SOPE   C2618406   6.160   1.626   9.605 -0.2245 -0.2354 -0.0898
  164SOPE   H6R18407   6.135   1.529   9.654  0.6505 -0.6518 -0.4395
  164SOPE   H6S18408   6.070   1.691   9.598 -0.4865 -0.6526 -0.6760
  164SOPE   C2718409   6.205   1.593   9.466 -0.6076  0.1318  0.0847
  164SOPE   H7R18410   6.309   1.561   9.484 -0.7890 -0.7221 -0.3170
  164SOPE   H7S18411   6.144   1.507   9.430  0.3424  0.3077 -2.0735
  164SOPE   C2818412   6.198   1.708   9.364 -0.2534  0.1072 -1.0939
  164SOPE   H8R18413   6.203   1.807   9.413 -1.7229  0.2280 -1.1654
  164SOPE   H8S18414   6.294   1.709   9.308 -1.3215 -1.7589 -3.0785
  164SOPE   C2918415   6.074   1.704   9.283 -0.3339 -0.1159 -0.2994
  164SOPE   H9118416   5.980   1.688   9.337 -1.0019 -0.6232 -1.5547
  164SOPE  C21018417   6.067   1.711   9.154 -0.5842  0.4895  0.5504
  164SOPE  H10118418   5.965   1.710   9.112 -0.3770 -1.7985 -0.0167
  164SOPE  C21118419   6.181   1.715   9.055 -0.6893 -0.7531  0.2623
  164SOPE  H11R18420   6.272   1.658   9.086  0.3497  1.5253  1.6797
  164SOPE  H11S18421   6.228   1.815   9.056 -1.6976 -0.2499 -0.7199
  164SOPE  C21218422   6.135   1.662   8.917  0.1373 -0.0338  0.0379
  164SOPE  H12R18423   6.081   1.565   8.924  0.4415 -0.1337  1.2924
  164SOPE  H12S18424   6.228   1.654   8.858  0.7103 -0.1222  0.9323
  164SOPE  C21318425   6.039   1.762   8.848 -0.0177  0.0192  0.0510
  164SOPE  H13R18426   6.089   1.861   8.845 -0.4244  0.2012 -1.7240
  164SOPE  H13S18427   5.943   1.778   8.901 -1.5106 -1.0403 -2.1953
  164SOPE  C21418428   6.016   1.726   8.704 -0.4184  0.2926 -0.6239
  164SOPE  H14R18429   5.972   1.624   8.701 -1.3993  0.6908 -0.2698
  164SOPE  H14S18430   6.113   1.717   8.649  0.3790 -0.3688  0.8249
  164SOPE  C21518431   5.923   1.825   8.629 -0.0445 -0.4780 -1.1275
  164SOPE  H15R18432   5.956   1.931   8.636  0.8363 -0.8492  1.4228
  164SOPE  H15S18433   5.823   1.810   8.675 -0.9367 -1.2068 -3.2057
  164SOPE  C21618434   5.915   1.796   8.476  0.0972 -0.2376 -0.6217
  164SOPE  H16R18435   5.875   1.695   8.452  2.9283 -1.5931  0.0202
  164SOPE  H16S18436   6.022   1.796   8.449  0.4321  2.5918  0.4452
  164SOPE  C21718437   5.827   1.899   8.413  0.4905 -0.2624 -0.9358
  164SOPE  H17R18438   5.890   1.990   8.423 -0.5822  0.4885 -0.7523
  164SOPE  H17S18439   5.736   1.913   8.476  0.9008 -0.4645 -0.2901
  164SOPE  C21818440   5.795   1.871   8.269 -0.2921 -0.2096 -0.1580
  164SOPE  H18R18441   5.744   1.777   8.239  0.8205 -1.2716  1.1606
  164SOPE  H18S18442   5.888   1.890   8.211 -0.5811 -0.5842 -0.7572
  164SOPE  H18T18443   5.732   1.949   8.221  1.1920  0.9110 -0.3587
  164SOPE   C3318444   6.411   1.155   9.788 -0.4508 -0.0765  0.1989
  164SOPE   H3X18445   6.351   1.062   9.779 -0.6461 -0.1707  2.0554
  164SOPE   H3Y18446   6.489   1.119   9.859 -2.1681 -2.3033  1.0546
  164SOPE   C3418447   6.479   1.196   9.656  0.1869 -0.2415 -0.2237
  164SOPE   H4X18448   6.539   1.107   9.625 -0.2858 -0.4747 -0.4666
  164SOPE   H4Y18449   6.558   1.274   9.664 -0.1319  0.0002  0.7356
  164SOPE   C3518450   6.381   1.221   9.543  0.1629  0.3074  0.0480
  164SOPE   H5X18451   6.330   1.318   9.562 -2.7491 -0.7808 -1.4503
  164SOPE   H5Y18452   6.307   1.137   9.544 -2.2722  2.3113  1.3599
  164SOPE   C3618453   6.445   1.232   9.406  0.3339  0.1376  0.2992
  164SOPE   H6X18454   6.515   1.146   9.398  1.2616  0.8033  1.0790
  164SOPE   H6Y18455   6.507   1.324   9.400  0.4719  0.0125 -0.2129
  164SOPE   C3718456   6.345   1.223   9.287 -0.5424 -0.8157  0.3588
  164SOPE   H7X18457   6.266   1.300   9.299  0.0277 -0.2197  0.3609
  164SOPE   H7Y18458   6.296   1.123   9.289 -0.4685 -0.8419  0.9495
  164SOPE   C3818459   6.422   1.243   9.150 -0.5854  0.1760  0.3210
  164SOPE   H8X18460   6.500   1.165   9.139 -1.0877 -0.0165 -2.8268
  164SOPE   H8Y18461   6.477   1.340   9.148 -3.2119  1.7633 -0.6215
  164SOPE   C3918462   6.327   1.246   9.029 -0.2009 -0.0865 -0.0007
  164SOPE   H9X18463   6.252   1.328   9.042  0.5294  0.5877  0.0582
  164SOPE   H9Y18464   6.269   1.152   9.019  0.0265 -0.1727 -0.5556
  164SOPE  C31018465   6.411   1.273   8.900  0.5909  0.8594 -0.2517
  164SOPE  H10X18466   6.341   1.228   8.827  0.7994  0.2304 -0.0696
  164SOPE  H10Y18467   6.510   1.224   8.886  0.2577 -0.1779  0.8400
  164SOPE  C31118468   6.413   1.419   8.859  0.1709 -0.2325 -0.4287
  164SOPE  H11X18469   6.479   1.471   8.933 -1.2938  1.8584 -0.4979
  164SOPE  H11Y18470   6.311   1.463   8.859  0.5465  0.6624 -0.3872
  164SOPE  C31218471   6.465   1.428   8.716  0.0899 -0.4056  0.0316
  164SOPE  H12X18472   6.412   1.353   8.653  0.5646 -0.2360 -0.5819
  164SOPE  H12Y18473   6.573   1.400   8.721  0.6000  1.3510 -0.4829
  164SOPE  C31318474   6.446   1.567   8.653 -0.0644  0.0673 -0.3665
  164SOPE  H13X18475   6.515   1.642   8.698 -0.0258  0.4236 -1.0120
  164SOPE  H13Y18476   6.341   1.601   8.669  0.5931  3.0036 -1.6788
  164SOPE  C31418477   6.464   1.569   8.509  0.2889  0.7810 -0.0352
  164SOPE  H14X18478   6.387   1.502   8.463  0.1341  2.1881 -1.9494
  164SOPE  H14Y18479   6.560   1.518   8.486 -0.0520  0.2872 -0.3997
  164SOPE  C31518480   6.467   1.695   8.428  0.5340  0.0649  0.2748
  164SOPE  H15X18481   6.504   1.687   8.323 -2.9137 -0.6687 -1.0083
  164SOPE  H15Y18482   6.536   1.767   8.478 -0.1575  1.6308 -0.9164
  164SOPE  C31618483   6.330   1.773   8.435 -0.8154  0.2282  0.3889
  164SOPE  H16X18484   6.303   1.795   8.540  0.1865  0.1047  0.6808
  164SOPE  H16Y18485   6.250   1.703   8.401 -2.6196  2.1299  0.5698
  164SOPE  C31718486   6.339   1.903   8.356  0.0988 -0.1155 -0.4486
  164SOPE  H17X18487   6.361   1.884   8.249  2.0301 -0.1416 -0.0952
  164SOPE  H17Y18488   6.420   1.965   8.399  1.3737 -0.7223 -1.8734
  164SOPE  C31818489   6.200   1.975   8.355 -0.2762 -1.0098  0.0525
  164SOPE  H18X18490   6.175   2.001   8.461  0.0701 -1.5591  0.2740
  164SOPE  H18Y18491   6.124   1.912   8.303 -0.9262  0.1508 -0.4336
  164SOPE  H18Z18492   6.205   2.067   8.294  2.3124 -0.3494  1.1316
  165SOPE     N18493   5.273   3.745  10.730 -0.0326  0.3539  0.3946
  165SOPE   HN118494   5.289   3.679  10.809 -0.0753 -0.8587 -0.5815
  165SOPE   HN218495   5.261   3.683  10.648 -2.2306  1.4484 -0.1876
  165SOPE   HN318496   5.364   3.794  10.715  0.4433 -0.9327 -1.1394
  165SOPE   C1218497   5.156   3.837  10.754  0.4382 -0.7164 -0.3857
  165SOPE  H12A18498   5.057   3.791  10.732  0.1010  0.6988 -2.1616
  165SOPE  H12B18499   5.178   3.926  10.691 -0.0953  0.8786  1.5797
  165SOPE   C1118500   5.141   3.880  10.909 -0.7547 -1.1757 -1.1772
  165SOPE  H11A18501   5.096   3.793  10.961  1.0481 -1.3212  0.2462
  165SOPE  H11B18502   5.076   3.970  10.920 -0.5165 -1.1555  0.2125
  165SOPE     P18503   5.339   4.038  10.986  0.6084  0.0290 -0.0571
  165SOPE   O1318504   5.484   4.031  10.964 -0.0085  0.7709  0.1557
  165SOPE   O1418505   5.290   4.099  11.112  0.0820  0.2968 -0.0167
  165SOPE   O1218506   5.270   3.893  10.978 -0.3366 -0.5830  0.0312
  165SOPE   O1118507   5.283   4.119  10.857  0.2540  0.6673 -0.1060
  165SOPE    C118508   5.262   4.254  10.853 -0.0652 -0.7460  0.7930
  165SOPE    HA18509   5.349   4.300  10.801 -0.9752 -0.2124 -0.3087
  165SOPE    HB18510   5.248   4.304  10.952  0.9475 -1.0059  1.0773
  165SOPE    C218511   5.134   4.284  10.774  0.5173  0.4751 -0.4890
  165SOPE    HS18512   5.050   4.226  10.818  0.1178 -0.5148 -2.4520
  165SOPE   O2118513   5.136   4.229  10.642  0.5286  0.3174 -0.4133
  165SOPE   C2118514   5.021   4.222  10.574 -0.0406 -0.3893 -0.4169
  165SOPE   O2218515   4.911   4.234  10.621 -0.1031 -0.1925  0.3336
  165SOPE   C2218516   5.045   4.190  10.431 -0.4219 -0.2682 -0.2512
  165SOPE   H2R18517   4.948   4.164  10.384 -0.5352  0.2756 -0.3278
  165SOPE   H2S18518   5.115   4.105  10.418  0.3826  0.2172  0.6903
  165SOPE    C318519   5.090   4.444  10.770 -0.2023  0.1681 -0.2742
  165SOPE    HX18520   5.098   4.490  10.872 -1.0380  2.2525 -1.0862
  165SOPE    HY18521   4.982   4.448  10.744  0.0881  2.5068 -1.3959
  165SOPE   O3118522   5.164   4.523  10.675 -0.2204  0.0728  0.6322
  165SOPE   C3118523   5.273   4.578  10.720  0.0978 -0.9820 -0.2105
  165SOPE   O3218524   5.324   4.566  10.830  0.1461 -0.1618 -0.0232
  165SOPE   C3218525   5.337   4.657  10.607 -0.0053 -0.2354  0.4299
  165SOPE   H2X18526   5.441   4.675  10.642 -0.0788 -0.6602  0.8823
  165SOPE   H2Y18527   5.293   4.757  10.594 -0.4980 -0.5408 -0.3239
  165SOPE   C2318528   5.103   4.310  10.349 -0.3792  0.5579 -0.1400
  165SOPE   H3R18529   5.129   4.271  10.249  1.6097  2.2847 -0.3555
  165SOPE   H3S18530   5.189   4.364  10.393 -0.2171 -0.3656  0.7222
  165SOPE   C2418531   4.999   4.421  10.333 -0.0336 -0.2935 -0.1732
  165SOPE   H4R18532   4.989   4.458  10.437  0.0610 -1.2624  0.1957
  165SOPE   H4S18533   5.045   4.497  10.266 -0.8709 -0.2956 -0.7721
  165SOPE   C2518534   4.866   4.381  10.266 -0.2223  0.6359  0.7490
  165SOPE   H5R18535   4.882   4.324  10.172  0.8409  2.2389 -0.0953
  165SOPE   H5S18536   4.806   4.316  10.333 -1.5770  2.7667  1.7179
  165SOPE   C2618537   4.788   4.509  10.259  0.0588 -0.0022 -0.1267
  165SOPE   H6R18538   4.732   4.523  10.354  0.3746 -1.4242  0.2935
  165SOPE   H6S18539   4.857   4.596  10.247  2.3967 -0.9665  4.1624
  165SOPE   C2718540   4.695   4.507  10.138 -0.2601  0.0254  0.7387
  165SOPE   H7R18541   4.753   4.497  10.044  1.0459 -1.6005  1.6596
  165SOPE   H7S18542   4.615   4.431  10.142  0.5100 -1.0758 -2.2670
  165SOPE   C2818543   4.611   4.632  10.127 -0.1567 -0.3731 -0.2677
  165SOPE   H8R18544   4.532   4.604  10.055 -0.3000  0.4651 -0.4527
  165SOPE   H8S18545   4.566   4.661  10.224  1.7370  0.4795  0.4081
  165SOPE   C2918546   4.682   4.759  10.079  0.0400 -0.5429  0.0822
  165SOPE   H9118547   4.696   4.838  10.154 -2.3463  2.0470 -1.9688
  165SOPE  C21018548   4.719   4.782   9.951 -0.4801 -0.2015 -1.1373
  165SOPE  H10118549   4.762   4.880   9.926 -0.6848 -0.1485 -1.2934
  165SOPE  C21118550   4.708   4.687   9.827 -0.1628 -0.2833 -0.5170
  165SOPE  H11R18551   4.632   4.725   9.756 -0.5739  2.7427  1.3620
  165SOPE  H11S18552   4.668   4.588   9.856  0.2084  0.2305  1.9755
  165SOPE  C21218553   4.842   4.667   9.750  0.3965 -0.5287 -0.6794
  165SOPE  H12R18554   4.888   4.767   9.738 -1.2860  0.5119  0.8839
  165SOPE  H12S18555   4.816   4.626   9.650 -1.2197 -0.3154 -0.3717
  165SOPE  C21318556   4.934   4.568   9.815 -0.1209  0.2033  0.6593
  165SOPE  H13R18557   4.896   4.465   9.796 -1.0762  0.5051  0.8990
  165SOPE  H13S18558   4.940   4.594   9.923  0.1206 -0.8485  0.9137
  165SOPE  C21418559   5.073   4.559   9.757 -0.3390  0.4305  0.3187
  165SOPE  H14R18560   5.150   4.505   9.817 -1.0626 -1.6991 -0.5986
  165SOPE  H14S18561   5.113   4.661   9.740 -0.6517  0.5902  0.5405
  165SOPE  C21518562   5.082   4.494   9.621  0.0888 -0.1007 -0.2934
  165SOPE  H15R18563   5.018   4.540   9.542 -0.4321 -1.3159 -0.6164
  165SOPE  H15S18564   5.044   4.389   9.619  1.9787 -0.9062  1.8496
  165SOPE  C21618565   5.232   4.477   9.579 -0.6177 -0.6172  0.4250
  165SOPE  H16R18566   5.288   4.410   9.647 -1.2722  0.1855  1.7982
  165SOPE  H16S18567   5.276   4.578   9.591 -0.2561 -0.8527  1.1204
  165SOPE  C21718568   5.253   4.419   9.437 -0.1277  0.1465 -0.3852
  165SOPE  H17R18569   5.178   4.338   9.424 -1.1339  0.8698  0.6676
  165SOPE  H17S18570   5.357   4.382   9.421 -0.6130 -2.4485  1.6968
  165SOPE  C21818571   5.230   4.521   9.323 -0.2211 -0.3946 -0.0572
  165SOPE  H18R18572   5.126   4.559   9.331  0.0740  0.2610  1.0781
  165SOPE  H18S18573   5.235   4.479   9.221 -0.0141 -0.3816 -0.0538
  165SOPE  H18T18574   5.295   4.611   9.329 -0.8042 -0.0327  1.3091
  165SOPE   C3318575   5.329   4.584  10.478  0.5350 -0.5728  0.4745
  165SOPE   H3X18576   5.224   4.582  10.443  1.0778 -1.9753 -1.2295
  165SOPE   H3Y18577   5.351   4.475  10.478 -0.8456 -0.8681  0.2530
  165SOPE   C3418578   5.412   4.647  10.364  0.1215 -0.0365 -0.6501
  165SOPE   H4X18579   5.515   4.638  10.404 -1.0096 -1.2005  2.3099
  165SOPE   H4Y18580   5.386   4.755  10.360  0.2810  0.0124 -0.4281
  165SOPE   C3518581   5.413   4.566  10.232 -0.3571  0.0548 -0.0918
  165SOPE   H5X18582   5.319   4.572  10.173  0.6861  0.4510 -1.7932
  165SOPE   H5Y18583   5.429   4.463  10.268  0.6542 -0.6570 -2.4298
  165SOPE   C3618584   5.526   4.599  10.143  0.0900 -0.5635 -0.3481
  165SOPE   H6X18585   5.622   4.566  10.188 -2.4816 -2.4592  4.5312
  165SOPE   H6Y18586   5.536   4.707  10.118  2.1170 -0.4952  0.5712
  165SOPE   C3718587   5.508   4.526  10.009  0.3214  0.2289  0.0352
  165SOPE   H7X18588   5.399   4.525   9.984  0.9034 -0.2417 -2.8312
  165SOPE   H7Y18589   5.546   4.421  10.007  0.5168  0.2803  0.6374
  165SOPE   C3818590   5.573   4.598   9.887 -0.0905 -1.1325 -0.2104
  165SOPE   H8X18591   5.667   4.649   9.917 -3.0136  4.2178  1.1464
  165SOPE   H8Y18592   5.515   4.691   9.873  1.4714  0.6525  3.7082
  165SOPE   C3918593   5.582   4.517   9.756 -0.4357 -0.1426 -0.0792
  165SOPE   H9X18594   5.485   4.463   9.757 -0.8307  0.5040  1.9992
  165SOPE   H9Y18595   5.660   4.440   9.771 -1.3986 -1.1640 -0.1319
  165SOPE  C31018596   5.601   4.597   9.624 -0.4753  0.0640 -0.0388
  165SOPE  H10X18597   5.519   4.672   9.618  0.5994  1.1890 -1.4994
  165SOPE  H10Y18598   5.589   4.524   9.541 -0.6451  0.7963 -0.6772
  165SOPE  C31118599   5.733   4.678   9.610  0.0224 -0.2713 -0.1786
  165SOPE  H11X18600   5.821   4.612   9.630  1.2700  1.2532 -0.4517
  165SOPE  H11Y18601   5.740   4.751   9.693  4.2596 -0.2287 -0.3646
  165SOPE  C31218602   5.747   4.758   9.476 -0.0134  0.0274 -1.0282
  165SOPE  H12X18603   5.854   4.785   9.485 -0.5003  1.6283  0.3094
  165SOPE  H12Y18604   5.693   4.853   9.495 -1.2589 -1.2168  2.5662
  165SOPE  C31318605   5.723   4.688   9.338  0.4398 -0.2741 -0.0618
  165SOPE  H13X18606   5.616   4.697   9.311  1.2368  4.4231 -2.6531
  165SOPE  H13Y18607   5.742   4.580   9.359  0.1715 -0.6113 -1.4588
  165SOPE  C31418608   5.798   4.746   9.215 -0.4309  0.8360  0.5412
  165SOPE  H14X18609   5.776   4.673   9.134 -0.2180 -0.4480  1.6054
  165SOPE  H14Y18610   5.906   4.738   9.241 -0.2201  2.1100  0.1398
  165SOPE  C31518611   5.757   4.890   9.191  0.1409 -0.0618 -0.0629
  165SOPE  H15X18612   5.836   4.936   9.127  0.8373  1.7395  1.9758
  165SOPE  H15Y18613   5.749   4.950   9.284 -0.6252  2.9768 -1.9392
  165SOPE  C31618614   5.624   4.902   9.126  0.0405 -0.2698 -0.2027
  165SOPE  H16X18615   5.569   4.998   9.131  2.0081  0.8726  0.9818
  165SOPE  H16Y18616   5.551   4.839   9.181 -0.3583 -1.2760 -1.7882
  165SOPE  C31718617   5.632   4.855   8.980  0.5746  0.3899 -0.2314
  165SOPE  H17X18618   5.678   4.754   8.973  0.2830  0.3121 -1.1563
  165SOPE  H17Y18619   5.697   4.924   8.922  0.1370 -1.6193 -3.3955
  165SOPE  C31818620   5.494   4.847   8.912 -0.7626 -0.1942 -0.0946
  165SOPE  H18X18621   5.453   4.946   8.881 -1.0407  0.2633  1.6686
  165SOPE  H18Y18622   5.427   4.804   8.989  0.9578 -0.0213  1.5669
  165SOPE  H18Z18623   5.495   4.771   8.830 -0.2692 -0.6664  0.3445
  166SOPE     N18624   3.563   2.601  10.770  0.2861 -0.6550 -0.4663
  166SOPE   HN118625   3.665   2.615  10.754  0.8565 -0.2132  2.8403
  166SOPE   HN218626   3.551   2.646  10.863  1.5130 -1.2518  0.0119
  166SOPE   HN318627   3.543   2.499  10.771 -2.5108 -0.1849 -0.2748
  166SOPE   C1218628   3.491   2.657  10.648 -0.1121  0.0622 -0.2368
  166SOPE  H12A18629   3.387   2.618  10.647 -1.3265  2.9988 -2.4184
  166SOPE  H12B18630   3.549   2.622  10.560  0.7775 -0.4840  0.5445
  166SOPE   C1118631   3.482   2.806  10.648 -0.0655  0.1642  0.2121
  166SOPE  H11A18632   3.425   2.835  10.557 -0.6250 -1.7311 -0.0754
  166SOPE  H11B18633   3.574   2.863  10.624  0.9656 -1.0695  1.1041
  166SOPE     P18634   3.261   2.859  10.777  0.0529 -0.0042  0.5848
  166SOPE   O1318635   3.235   2.914  10.912  0.2455 -0.3163 -0.0024
  166SOPE   O1418636   3.207   2.724  10.750  0.1956  0.5428  0.0313
  166SOPE   O1218637   3.418   2.857  10.763 -0.0387 -0.3671  0.2283
  166SOPE   O1118638   3.215   2.965  10.664 -0.1478 -0.1183  0.3053
  166SOPE    C118639   3.282   3.094  10.656 -0.6219  0.7699 -0.5545
  166SOPE    HA18640   3.391   3.077  10.671 -1.0414 -0.7162  1.1574
  166SOPE    HB18641   3.252   3.161  10.739 -1.1798  1.7682 -1.5418
  166SOPE    C218642   3.254   3.175  10.531  0.2289 -0.0658 -0.3022
  166SOPE    HS18643   3.275   3.279  10.563 -0.9706 -0.0395  0.4727
  166SOPE   O2118644   3.113   3.178  10.512  0.2845  0.3844  0.7046
  166SOPE   C2118645   3.076   3.279  10.427  0.2305  1.0162  0.8594
  166SOPE   O2218646   3.148   3.373  10.408  0.0823 -0.6289 -0.0983
  166SOPE   C2218647   2.936   3.249  10.362  0.5673  1.0949  0.2828
  166SOPE   H2R18648   2.859   3.254  10.442  2.1960 -0.0817  1.9901
  166SOPE   H2S18649   2.945   3.146  10.323 -0.2416  0.6509  1.2498
  166SOPE    C318650   3.348   3.141  10.405 -0.1569  0.7494  0.7773
  166SOPE    HX18651   3.450   3.157  10.447 -0.0786 -1.7376  1.6979
  166SOPE    HY18652   3.345   3.220  10.328  1.5360  1.8092  1.7419
  166SOPE   O3118653   3.339   3.000  10.364 -0.3798 -0.0645 -0.0951
  166SOPE   C3118654   3.244   2.978  10.271  0.1851  0.3049  0.4083
  166SOPE   O3218655   3.180   3.062  10.213  0.1187  0.6355  0.4536
  166SOPE   C3218656   3.240   2.824  10.233 -0.5180 -0.3888 -0.2155
  166SOPE   H2X18657   3.156   2.822  10.161  0.1143 -2.4214 -0.9538
  166SOPE   H2Y18658   3.206   2.771  10.324 -3.2848  1.3072 -0.1356
  166SOPE   C2318659   2.904   3.346  10.239  0.1613  0.2843 -0.6073
  166SOPE   H3R18660   2.824   3.302  10.176  0.2217 -1.8745  0.7359
  166SOPE   H3S18661   3.002   3.358  10.189 -0.0260  0.1512 -1.0139
  166SOPE   C2418662   2.844   3.475  10.290  0.3551  0.2040  0.2864
  166SOPE   H4R18663   2.733   3.473  10.297  0.3745 -2.8071  1.0112
  166SOPE   H4S18664   2.873   3.494  10.396 -1.0343 -1.5007  1.0194
  166SOPE   C2518665   2.899   3.604  10.219 -0.0792  0.5882  0.0488
  166SOPE   H5R18666   2.858   3.686  10.281  1.8047  0.4800  1.5494
  166SOPE   H5S18667   3.010   3.599  10.213 -0.1806 -2.0108 -1.1751
  166SOPE   C2618668   2.849   3.625  10.077  0.2339  0.3542  0.3397
  166SOPE   H6R18669   2.886   3.539  10.017 -4.1135 -1.7180  0.1897
  166SOPE   H6S18670   2.738   3.620  10.077  0.2272 -0.7761 -1.6649
  166SOPE   C2718671   2.893   3.754  10.015 -0.3877  0.4838 -1.2814
  166SOPE   H7R18672   2.839   3.842  10.056 -0.0802 -0.8718  2.3835
  166SOPE   H7S18673   3.002   3.763  10.035 -0.6179  0.0061  0.3103
  166SOPE   C2818674   2.883   3.757   9.865  0.1211  0.6026  0.3774
  166SOPE   H8R18675   2.947   3.838   9.825 -0.5854  0.4234 -1.1496
  166SOPE   H8S18676   2.932   3.661   9.837 -0.7047  0.8305 -2.0220
  166SOPE   C2918677   2.750   3.759   9.796 -0.0263  0.4142  0.1045
  166SOPE   H9118678   2.668   3.791   9.862 -1.5957 -2.7538 -0.1109
  166SOPE  C21018679   2.718   3.714   9.673  0.8002 -0.4546 -0.6114
  166SOPE  H10118680   2.615   3.730   9.637  0.6239 -3.4274 -1.7173
  166SOPE  C21118681   2.808   3.658   9.569 -0.5605 -0.0262  0.2966
  166SOPE  H11R18682   2.769   3.558   9.540  0.9035 -0.2488 -1.0058
  166SOPE  H11S18683   2.913   3.643   9.603 -0.5984 -0.2625  0.3049
  166SOPE  C21218684   2.824   3.747   9.443  0.0382  1.1400 -1.0115
  166SOPE  H12R18685   2.874   3.698   9.356 -1.4923 -1.2029 -0.6830
  166SOPE  H12S18686   2.889   3.833   9.470 -0.0189  0.9926 -0.3903
  166SOPE  C21318687   2.695   3.788   9.364 -0.3659 -0.0004 -0.7349
  166SOPE  H13R18688   2.719   3.845   9.272 -3.0605  2.2815 -0.1605
  166SOPE  H13S18689   2.642   3.862   9.428 -1.3306 -0.8572 -0.5134
  166SOPE  C21418690   2.623   3.663   9.320 -0.0214 -0.1359  0.0532
  166SOPE  H14R18691   2.586   3.599   9.403  1.9890 -1.9597 -0.3405
  166SOPE  H14S18692   2.675   3.597   9.247 -0.4336  0.0514 -0.4091
  166SOPE  C21518693   2.500   3.693   9.232  0.4119  0.1097  0.1543
  166SOPE  H15R18694   2.528   3.783   9.173 -1.0428  0.5358  0.0706
  166SOPE  H15S18695   2.417   3.736   9.293 -1.1539 -2.8494  0.2698
  166SOPE  C21618696   2.435   3.583   9.150  0.8062 -0.3285  0.3506
  166SOPE  H16R18697   2.343   3.622   9.103  0.9830  0.8523  0.9507
  166SOPE  H16S18698   2.402   3.496   9.211 -1.7449 -1.2349 -2.1241
  166SOPE  C21718699   2.529   3.523   9.039  0.3026 -0.8047  0.3978
  166SOPE  H17R18700   2.618   3.479   9.089  0.2080 -1.8566 -0.3474
  166SOPE  H17S18701   2.562   3.613   8.982 -0.1253  0.5113  2.1058
  166SOPE  C21818702   2.461   3.433   8.948 -0.0638  0.1184 -0.1537
  166SOPE  H18R18703   2.391   3.362   8.998 -0.6218  2.0005  1.8928
  166SOPE  H18S18704   2.548   3.385   8.898  2.1012  1.7926  1.7719
  166SOPE  H18T18705   2.392   3.488   8.880 -0.9509 -0.5196  0.2134
  166SOPE   C3318706   3.376   2.773  10.179 -0.3136  0.1880 -0.5982
  166SOPE   H3X18707   3.371   2.662  10.173  1.8300 -0.0907  1.4164
  166SOPE   H3Y18708   3.450   2.796  10.259 -1.1984  2.0055 -0.2397
  166SOPE   C3418709   3.416   2.832  10.045 -0.3806  0.0831 -0.0480
  166SOPE   H4X18710   3.520   2.810  10.013 -0.7493  0.6762 -1.7246
  166SOPE   H4Y18711   3.406   2.942  10.054 -1.2929 -0.1460  2.9727
  166SOPE   C3518712   3.329   2.782   9.928  0.4223 -0.3551 -0.3577
  166SOPE   H5X18713   3.220   2.795   9.948  0.6958  0.3691  0.7370
  166SOPE   H5Y18714   3.354   2.675   9.910  0.3085 -0.4472  0.0190
  166SOPE   C3618715   3.352   2.867   9.802 -0.0770 -0.2218 -0.0445
  166SOPE   H6X18716   3.460   2.853   9.777 -0.1980 -2.1912  0.3843
  166SOPE   H6Y18717   3.316   2.966   9.838 -3.8700 -1.2582 -0.5622
  166SOPE   C3718718   3.259   2.806   9.688 -0.6252 -0.4142 -0.6534
  166SOPE   H7X18719   3.152   2.808   9.717 -0.5338 -1.7273 -0.1549
  166SOPE   H7Y18720   3.279   2.697   9.677  0.5757 -0.0466 -2.5388
  166SOPE   C3818721   3.285   2.866   9.551  0.5228 -0.1870  0.2989
  166SOPE   H8X18722   3.388   2.856   9.512 -0.4031 -0.2858 -2.3367
  166SOPE   H8Y18723   3.258   2.974   9.552  0.6247 -0.1186 -1.6149
  166SOPE   C3918724   3.189   2.800   9.450  0.0480  0.6308  0.4837
  166SOPE   H9X18725   3.088   2.793   9.495  0.4341  1.1433  1.4650
  166SOPE   H9Y18726   3.219   2.696   9.426  1.1257  0.8994  0.6355
  166SOPE  C31018727   3.186   2.877   9.311  0.3897  0.7617  0.2422
  166SOPE  H10X18728   3.285   2.876   9.262 -0.4363  1.0347 -1.4827
  166SOPE  H10Y18729   3.156   2.980   9.339 -1.1925  0.2524  0.5125
  166SOPE  C31118730   3.073   2.819   9.225 -0.0756 -0.1694  0.4318
  166SOPE  H11X18731   2.974   2.830   9.274 -0.4801 -0.0225 -0.4076
  166SOPE  H11Y18732   3.077   2.708   9.218 -0.7010 -0.2641  1.3553
  166SOPE  C31218733   3.066   2.872   9.085  0.4120  1.1608  0.4191
  166SOPE  H12X18734   3.156   2.840   9.028 -0.1181 -0.5050  0.4577
  166SOPE  H12Y18735   3.067   2.981   9.103  1.8734  1.2418 -0.0918
  166SOPE  C31318736   2.932   2.827   9.018  0.3289 -0.0103  0.1751
  166SOPE  H13X18737   2.846   2.881   9.063  0.3085  0.5691 -0.5329
  166SOPE  H13Y18738   2.918   2.720   9.045 -1.2670  0.2387  0.4879
  166SOPE  C31418739   2.920   2.838   8.864 -0.3434  0.2940 -0.2824
  166SOPE  H14X18740   2.826   2.798   8.821 -0.4502  1.1658 -0.8940
  166SOPE  H14Y18741   3.003   2.775   8.823  1.2459  0.2183  2.7588
  166SOPE  C31518742   2.946   2.983   8.822 -0.2932 -0.9837  0.3852
  166SOPE  H15X18743   3.039   3.008   8.878 -0.7424  0.3204  0.5830
  166SOPE  H15Y18744   2.861   3.051   8.843 -0.9157 -0.9450 -2.0066
  166SOPE  C31618745   2.990   3.000   8.677 -0.0179 -0.1455  0.0956
  166SOPE  H16X18746   3.091   2.954   8.673  0.8291  1.2824  2.5453
  166SOPE  H16Y18747   3.002   3.107   8.651  1.6488 -0.7690 -1.9525
  166SOPE  C31718748   2.905   2.932   8.573 -0.2307 -0.2204  1.0287
  166SOPE  H17X18749   2.817   2.996   8.551 -0.0268  0.7084  2.7586
  166SOPE  H17Y18750   2.872   2.831   8.607  1.2574 -1.6975 -1.5460
  166SOPE  C31818751   2.974   2.908   8.436 -0.6768  1.0727  0.2147
  166SOPE  H18X18752   3.067   2.851   8.455 -0.9239  0.6835  0.2732
  166SOPE  H18Y18753   3.002   3.004   8.389 -2.2217  1.5165  0.1434
  166SOPE  H18Z18754   2.913   2.847   8.366  1.0521 -1.6920  0.9304
  167SOPE     N18755   2.353   6.544   6.076  0.0453 -0.3035 -0.2164
  167SOPE   HN118756   2.365   6.507   5.979 -0.8440  0.1258 -0.5021
  167SOPE   HN218757   2.444   6.584   6.107 -0.1210  0.8779 -1.1377
  167SOPE   HN318758   2.324   6.465   6.137  2.9197  0.5535  2.5118
  167SOPE   C1218759   2.253   6.655   6.071  0.1795  0.2241  0.0244
  167SOPE  H12A18760   2.161   6.600   6.043  0.1299  0.0820  0.4580
  167SOPE  H12B18761   2.276   6.729   5.991  0.1512 -0.9573 -1.1061
  167SOPE   C1118762   2.239   6.707   6.215 -0.7395 -0.0125  0.4620
  167SOPE  H11A18763   2.336   6.746   6.252 -0.8263 -0.6446  1.4071
  167SOPE  H11B18764   2.198   6.624   6.277 -4.1330  0.4419 -0.9534
  167SOPE     P18765   2.185   6.954   6.180  0.2789 -0.1670 -0.2172
  167SOPE   O1318766   2.067   7.035   6.197 -0.1010  0.1006 -0.2993
  167SOPE   O1418767   2.251   6.978   6.043 -0.5247 -0.1050 -0.7283
  167SOPE   O1218768   2.140   6.804   6.198  0.1919 -0.0785 -0.1039
  167SOPE   O1118769   2.286   6.985   6.299 -0.0914 -0.1877  0.0714
  167SOPE    C118770   2.228   6.955   6.437 -0.3019 -0.3662  0.9618
  167SOPE    HA18771   2.309   6.904   6.494  0.3380 -0.7007 -0.2089
  167SOPE    HB18772   2.144   6.883   6.438 -2.3701  1.7558 -1.6837
  167SOPE    C218773   2.202   7.082   6.507  0.0172 -0.0625 -0.3364
  167SOPE    HS18774   2.148   7.153   6.441 -2.3041 -1.5824 -0.1788
  167SOPE   O2118775   2.327   7.132   6.557  0.2747  0.5335  0.3649
  167SOPE   C2118776   2.356   7.264   6.554  0.2857  0.2043 -0.1535
  167SOPE   O2218777   2.289   7.352   6.509  0.3309 -0.3576  0.2427
  167SOPE   C2218778   2.490   7.293   6.617  0.3848 -0.4137 -0.3369
  167SOPE   H2R18779   2.559   7.306   6.531  0.5667  2.0494  0.1222
  167SOPE   H2S18780   2.534   7.225   6.693  1.2081 -1.7084 -1.9100
  167SOPE    C318781   2.106   7.063   6.625  0.2139  0.4035  0.4239
  167SOPE    HX18782   2.146   6.969   6.668  1.1579 -0.4180 -2.0547
  167SOPE    HY18783   2.007   7.036   6.583  0.9046  0.6691 -1.4908
  167SOPE   O3118784   2.109   7.167   6.724 -0.2261 -0.6318  0.1247
  167SOPE   C3118785   2.014   7.250   6.713  0.2242 -0.2818 -0.2180
  167SOPE   O3218786   1.936   7.251   6.619  0.2536 -0.1753 -0.3012
  167SOPE   C3218787   2.005   7.337   6.839  0.5008  0.4340 -0.6025
  167SOPE   H2X18788   1.989   7.443   6.808  1.4620  0.7796  0.0292
  167SOPE   H2Y18789   2.106   7.336   6.886  0.7829 -1.1648 -1.1765
  167SOPE   C2318790   2.488   7.424   6.697  0.6547  0.1973  0.8796
  167SOPE   H3R18791   2.447   7.504   6.631 -0.2952 -0.4146  0.6995
  167SOPE   H3S18792   2.590   7.454   6.727  0.4894  1.3827  0.2911
  167SOPE   C2418793   2.397   7.419   6.823 -0.4657  0.1660  0.1534
  167SOPE   H4R18794   2.398   7.519   6.873  0.9594 -0.7406  2.0820
  167SOPE   H4S18795   2.290   7.398   6.802 -0.1481 -1.0556 -0.3565
  167SOPE   C2518796   2.446   7.324   6.938 -0.3908 -0.4182  0.1129
  167SOPE   H5R18797   2.427   7.222   6.897  0.1261  0.2741 -1.9344
  167SOPE   H5S18798   2.555   7.330   6.960 -1.0894  0.4459  4.0665
  167SOPE   C2618799   2.369   7.340   7.067 -0.1429  0.2489  0.2515
  167SOPE   H6R18800   2.267   7.377   7.041  0.0938  0.0417 -1.0129
  167SOPE   H6S18801   2.348   7.238   7.107  2.0939 -0.7153 -0.8476
  167SOPE   C2718802   2.440   7.432   7.172  0.0612  0.0413  0.0976
  167SOPE   H7R18803   2.502   7.507   7.118 -0.6031  0.5386  0.0061
  167SOPE   H7S18804   2.364   7.485   7.232 -1.5182 -1.1096 -0.8127
  167SOPE   C2818805   2.524   7.350   7.273 -0.1993  0.3975 -0.1184
  167SOPE   H8R18806   2.595   7.288   7.214 -0.2247 -1.1861  1.4321
  167SOPE   H8S18807   2.584   7.423   7.331 -2.8972 -0.1590  3.7144
  167SOPE   C2918808   2.445   7.257   7.358  0.3398  0.1791 -0.7430
  167SOPE   H9118809   2.427   7.158   7.313  2.9657 -1.2107  0.9943
  167SOPE  C21018810   2.402   7.293   7.483 -0.1182  0.2730  0.6066
  167SOPE  H10118811   2.344   7.215   7.534 -1.0666 -0.0523 -0.8802
  167SOPE  C21118812   2.425   7.416   7.568 -0.0395  0.4758  0.6991
  167SOPE  H11R18813   2.329   7.448   7.614  0.6202  0.2003  2.3373
  167SOPE  H11S18814   2.468   7.491   7.499 -0.3707  0.2831  0.2779
  167SOPE  C21218815   2.525   7.384   7.683  0.3856  0.1694 -0.6880
  167SOPE  H12R18816   2.624   7.353   7.642  1.6870 -0.3559  2.5775
  167SOPE  H12S18817   2.490   7.306   7.754 -0.7285  0.6042 -0.7365
  167SOPE  C21318818   2.567   7.505   7.775  0.5675 -0.2245  0.0923
  167SOPE  H13R18819   2.477   7.541   7.829  1.9495  1.3744  1.4280
  167SOPE  H13S18820   2.605   7.577   7.699 -1.7561 -1.3635 -2.3222
  167SOPE  C21418821   2.668   7.468   7.882 -0.2490 -0.7619 -0.5678
  167SOPE  H14R18822   2.763   7.446   7.828 -0.8382  0.7214 -2.3169
  167SOPE  H14S18823   2.650   7.373   7.936 -0.1662 -0.7006 -0.4323
  167SOPE  C21518824   2.697   7.592   7.969 -0.5766 -0.8857 -1.0714
  167SOPE  H15R18825   2.616   7.617   8.041  1.9905  0.8827  1.4439
  167SOPE  H15S18826   2.703   7.672   7.892 -2.3901 -0.4616 -0.8235
  167SOPE  C21618827   2.840   7.586   8.027  0.2927 -0.0964  0.9409
  167SOPE  H16R18828   2.912   7.576   7.943  1.4438  0.4163  1.8388
  167SOPE  H16S18829   2.836   7.493   8.087  0.6141 -0.7634 -0.0518
  167SOPE  C21718830   2.883   7.703   8.116  0.6557  0.0838  0.2853
  167SOPE  H17R18831   2.890   7.792   8.049 -1.1602  0.2185  0.2314
  167SOPE  H17S18832   2.986   7.692   8.155  0.7789  2.4125  0.7462
  167SOPE  C21818833   2.788   7.733   8.235  0.2433  0.6854  0.2687
  167SOPE  H18R18834   2.684   7.737   8.195  0.5730 -0.1458 -0.7299
  167SOPE  H18S18835   2.814   7.828   8.286 -0.9551  1.2271 -0.0864
  167SOPE  H18T18836   2.778   7.653   8.312  0.2280  0.4167 -0.0091
  167SOPE   C3318837   1.882   7.289   6.916 -0.2197  0.1987  0.2035
  167SOPE   H3X18838   1.899   7.180   6.931  0.2229  0.3398  0.7539
  167SOPE   H3Y18839   1.792   7.308   6.854  0.1541  1.3039 -0.0353
  167SOPE   C3418840   1.855   7.357   7.058  0.3018  0.5022 -0.0307
  167SOPE   H4X18841   1.750   7.326   7.077  1.0382 -2.6596 -0.5934
  167SOPE   H4Y18842   1.868   7.466   7.042 -1.8749  0.6053 -1.4102
  167SOPE   C3518843   1.938   7.312   7.181 -0.5240  0.6009 -0.6589
  167SOPE   H5X18844   2.030   7.374   7.180 -0.6506  0.7875 -0.5899
  167SOPE   H5Y18845   1.969   7.207   7.158 -1.4769  0.6480 -2.3078
  167SOPE   C3618846   1.866   7.328   7.315  0.0362 -0.2514  0.1420
  167SOPE   H6X18847   1.789   7.248   7.324 -0.6290  0.4829  1.2481
  167SOPE   H6Y18848   1.825   7.431   7.320 -0.1100 -0.3024  0.0075
  167SOPE   C3718849   1.969   7.309   7.427 -0.3096 -0.4977 -0.6041
  167SOPE   H7X18850   2.064   7.364   7.410  1.1825 -1.7701  2.6332
  167SOPE   H7Y18851   1.999   7.203   7.440  3.1562  0.4717  0.5494
  167SOPE   C3818852   1.910   7.356   7.562 -0.2871  0.0010  0.4961
  167SOPE   H8X18853   1.810   7.308   7.572  0.5612 -1.5087  2.3269
  167SOPE   H8Y18854   1.906   7.467   7.572 -0.1949  0.0843 -0.3176
  167SOPE   C3918855   2.007   7.314   7.677  0.7582 -0.1269  0.4093
  167SOPE   H9X18856   2.106   7.358   7.653  0.8168 -0.0358  0.8111
  167SOPE   H9Y18857   2.034   7.207   7.664  0.8555  0.0237 -0.7407
  167SOPE  C31018858   1.963   7.363   7.815  0.1026  0.2118 -0.0427
  167SOPE  H10X18859   1.865   7.319   7.846  0.9098  1.3895  5.0469
  167SOPE  H10Y18860   1.940   7.471   7.811  0.2276  0.2584  0.4115
  167SOPE  C31118861   2.072   7.351   7.925  0.5588 -0.2303  1.0569
  167SOPE  H11X18862   2.165   7.403   7.895 -0.1802  1.3297  1.3623
  167SOPE  H11Y18863   2.092   7.243   7.940  0.6376 -0.4541 -0.5115
  167SOPE  C31218864   2.025   7.413   8.053 -0.5932 -0.2464  0.0976
  167SOPE  H12X18865   1.934   7.364   8.095 -0.4268 -0.3288  0.3696
  167SOPE  H12Y18866   2.005   7.520   8.031  0.9979  0.0288 -0.1540
  167SOPE  C31318867   2.139   7.420   8.163  0.4557  0.3978  0.1830
  167SOPE  H13X18868   2.222   7.482   8.123 -0.1924  1.2478  0.1179
  167SOPE  H13Y18869   2.171   7.315   8.178 -1.2800 -0.9160 -3.8525
  167SOPE  C31418870   2.091   7.488   8.288  0.3843 -0.3383 -0.7985
  167SOPE  H14X18871   2.023   7.567   8.251 -1.2543 -1.9489 -1.3618
  167SOPE  H14Y18872   2.176   7.526   8.349 -0.0684 -1.3849  0.5453
  167SOPE  C31518873   2.002   7.397   8.378  0.7177 -0.6174 -0.3046
  167SOPE  H15X18874   1.915   7.366   8.316 -0.2843  0.9063  0.2781
  167SOPE  H15Y18875   1.967   7.460   8.462  3.2357 -0.9256  1.0629
  167SOPE  C31618876   2.063   7.268   8.439 -0.5735  0.6319 -0.2838
  167SOPE  H16X18877   2.156   7.292   8.495  0.2313  1.1951 -1.8132
  167SOPE  H16Y18878   2.093   7.200   8.357 -1.8985  0.3444 -0.5666
  167SOPE  C31718879   1.960   7.211   8.537 -0.1339  0.1342  0.0020
  167SOPE  H17X18880   1.873   7.167   8.483  0.6323 -2.1007  0.4725
  167SOPE  H17Y18881   1.920   7.289   8.605 -2.2114 -1.1001  0.2962
  167SOPE  C31818882   2.000   7.081   8.619 -0.7174  0.3734  0.4153
  167SOPE  H18X18883   2.083   7.118   8.683 -1.4090 -0.4965  1.8599
  167SOPE  H18Y18884   2.029   7.005   8.543 -1.1492  1.5488 -0.9786
  167SOPE  H18Z18885   1.922   7.036   8.683  0.1898  0.0374  1.3211
  168SOPE     N18886   3.472   4.687   6.657  0.8583  0.3833 -0.2007
  168SOPE   HN118887   3.478   4.791   6.663 -0.0563  0.5549 -1.7816
  168SOPE   HN218888   3.381   4.661   6.702 -1.1525  3.0661 -2.3484
  168SOPE   HN318889   3.552   4.659   6.717  1.9888  0.8464 -1.4574
  168SOPE   C1218890   3.501   4.625   6.522  0.1494  0.1574 -0.2409
  168SOPE  H12A18891   3.607   4.651   6.499  0.1073  1.0726  0.5138
  168SOPE  H12B18892   3.432   4.674   6.449  0.0580  4.3879  2.3221
  168SOPE   C1118893   3.493   4.470   6.510 -0.0218 -0.2594  0.2581
  168SOPE  H11A18894   3.548   4.431   6.598  4.0443  0.3529 -1.7632
  168SOPE  H11B18895   3.552   4.437   6.421 -0.7708 -0.8844 -0.0180
  168SOPE     P18896   3.274   4.400   6.387 -0.2142  0.3317  0.0717
  168SOPE   O1318897   3.313   4.263   6.347 -0.3572 -0.7344  0.1051
  168SOPE   O1418898   3.305   4.496   6.286  0.0168 -0.3196  0.4105
  168SOPE   O1218899   3.359   4.432   6.519 -0.2176  0.1477  0.2795
  168SOPE   O1118900   3.119   4.406   6.425  0.2223 -0.2385 -0.2434
  168SOPE    C118901   3.051   4.520   6.477 -0.3053  0.4194  0.3167
  168SOPE    HA18902   2.945   4.521   6.443 -0.2985  1.6599  0.2799
  168SOPE    HB18903   3.107   4.613   6.454 -0.6701  1.2504  2.4880
  168SOPE    C218904   3.044   4.512   6.632 -0.5279 -0.4875  0.4456
  168SOPE    HS18905   3.147   4.496   6.670 -1.5879 -0.1776  3.8134
  168SOPE   O2118906   2.950   4.402   6.650  0.0648 -0.2446 -0.3535
  168SOPE   C2118907   3.009   4.301   6.720  0.2279  0.1027  0.2920
  168SOPE   O2218908   3.120   4.288   6.754 -0.1759 -0.3467  0.2608
  168SOPE   C2218909   2.890   4.212   6.777 -0.0309  0.2025  0.8432
  168SOPE   H2R18910   2.894   4.120   6.716 -0.7892  1.5734 -1.3716
  168SOPE   H2S18911   2.792   4.263   6.760 -0.3140 -0.8991 -1.1017
  168SOPE    C318912   2.993   4.647   6.684 -0.1080 -0.2421 -0.8406
  168SOPE    HX18913   2.885   4.651   6.656 -0.5824  0.0395  0.9063
  168SOPE    HY18914   3.043   4.729   6.629 -2.5672  0.9792 -1.4000
  168SOPE   O3118915   3.009   4.666   6.826 -0.0850  0.1537 -0.5275
  168SOPE   C3118916   3.141   4.680   6.862 -0.1460  0.4664  0.2765
  168SOPE   O3218917   3.232   4.707   6.788 -0.5643  0.5902 -0.3783
  168SOPE   C3218918   3.145   4.693   7.014  0.6528  0.3155 -0.1660
  168SOPE   H2X18919   3.048   4.651   7.048 -0.1049  2.6418  0.7476
  168SOPE   H2Y18920   3.148   4.802   7.032 -0.1983  0.2599  0.3703
  168SOPE   C2318921   2.915   4.179   6.925 -0.6633 -0.4467 -0.2419
  168SOPE   H3R18922   3.010   4.131   6.958 -0.7147  0.1578  0.8279
  168SOPE   H3S18923   2.833   4.115   6.965 -0.5494  1.2662  3.0481
  168SOPE   C2418924   2.915   4.310   7.007  0.2677 -0.1200  0.1227
  168SOPE   H4R18925   3.018   4.351   6.994  0.9704 -1.7547  0.2328
  168SOPE   H4S18926   2.832   4.381   6.989 -0.1265 -0.3032  1.1533
  168SOPE   C2518927   2.925   4.292   7.164 -0.0783 -0.1763  0.1713
  168SOPE   H5R18928   2.848   4.224   7.207 -2.7270  2.5817  0.2196
  168SOPE   H5S18929   3.027   4.253   7.185 -0.2901  0.3285  2.3786
  168SOPE   C2618930   2.920   4.419   7.256  0.1547  0.0513  0.4162
  168SOPE   H6R18931   2.976   4.501   7.205  1.9015 -1.1105  0.3881
  168SOPE   H6S18932   2.815   4.454   7.246 -0.1991 -1.3579 -1.2200
  168SOPE   C2718933   2.980   4.396   7.392  0.0608 -0.5281 -0.0586
  168SOPE   H7R18934   3.083   4.363   7.368  0.2510  0.6305 -0.9598
  168SOPE   H7S18935   2.981   4.497   7.439 -1.0367 -0.8558  0.7094
  168SOPE   C2818936   2.906   4.301   7.481 -0.0117 -0.1381  0.4330
  168SOPE   H8R18937   2.897   4.202   7.431  1.2860 -0.9414  1.7019
  168SOPE   H8S18938   2.966   4.267   7.568  0.6326  0.1134  0.0945
  168SOPE   C2918939   2.770   4.346   7.522 -0.2633  0.0604 -0.0139
  168SOPE   H9118940   2.690   4.322   7.451 -1.7274  2.9400  0.5073
  168SOPE  C21018941   2.743   4.419   7.631  0.1635 -0.6999 -0.2200
  168SOPE  H10118942   2.640   4.443   7.661  1.4374  0.9695  3.4248
  168SOPE  C21118943   2.852   4.464   7.724 -0.3318 -0.0968  0.4451
  168SOPE  H11R18944   2.853   4.575   7.733 -0.0626 -0.0730  0.1492
  168SOPE  H11S18945   2.950   4.440   7.678  0.3267  1.5597  0.9041
  168SOPE  C21218946   2.843   4.401   7.860 -0.7967  0.0607  0.5547
  168SOPE  H12R18947   2.928   4.448   7.913  0.8757  0.5767 -2.3589
  168SOPE  H12S18948   2.856   4.290   7.857 -0.9986 -0.0352  2.2214
  168SOPE  C21318949   2.716   4.444   7.939 -0.1442  0.5446  0.0532
  168SOPE  H13R18950   2.622   4.438   7.881  0.0232 -0.0092 -0.1654
  168SOPE  H13S18951   2.744   4.549   7.962  2.4604  0.5343 -2.5068
  168SOPE  C21418952   2.696   4.367   8.074 -0.9465 -1.0023  0.3971
  168SOPE  H14R18953   2.794   4.361   8.126  0.9487  0.0042 -2.7891
  168SOPE  H14S18954   2.649   4.269   8.052 -1.6000 -0.5145 -0.4456
  168SOPE  C21518955   2.604   4.455   8.159  0.4580 -0.0922 -0.2697
  168SOPE  H15R18956   2.524   4.496   8.094  0.8528 -0.8050 -1.2402
  168SOPE  H15S18957   2.665   4.537   8.200  2.7696 -1.2238 -1.2226
  168SOPE  C21618958   2.546   4.377   8.279  0.1031  0.5303 -0.2317
  168SOPE  H16R18959   2.621   4.313   8.332 -1.2051 -1.4484 -0.6595
  168SOPE  H16S18960   2.468   4.306   8.245 -0.3256  1.6114 -1.5608
  168SOPE  C21718961   2.464   4.451   8.387  0.5578 -0.7722  0.0918
  168SOPE  H17R18962   2.394   4.514   8.327  1.6727 -1.8153 -2.4869
  168SOPE  H17S18963   2.524   4.522   8.446  0.3193  0.6146 -1.2679
  168SOPE  C21818964   2.395   4.352   8.475 -0.0490 -0.6102 -0.1741
  168SOPE  H18R18965   2.464   4.294   8.540  0.5030 -0.4178 -0.5749
  168SOPE  H18S18966   2.325   4.296   8.410 -0.7894  0.3980 -0.2546
  168SOPE  H18T18967   2.328   4.409   8.542 -0.7620 -2.1248  0.4470
  168SOPE   C3318968   3.261   4.636   7.089  0.3210 -0.6800 -0.4551
  168SOPE   H3X18969   3.352   4.692   7.058  0.9973 -2.0876 -1.0796
  168SOPE   H3Y18970   3.264   4.528   7.063  1.3739 -0.4049 -1.5821
  168SOPE   C3418971   3.242   4.658   7.243 -0.4022 -0.0348 -0.7817
  168SOPE   H4X18972   3.152   4.608   7.286  0.1697 -0.6023 -0.2237
  168SOPE   H4Y18973   3.234   4.767   7.268  2.9582  0.1817 -0.1388
  168SOPE   C3518974   3.358   4.595   7.319  0.0918 -0.4060  0.4129
  168SOPE   H5X18975   3.443   4.644   7.266 -0.1655  0.4460  0.7750
  168SOPE   H5Y18976   3.366   4.485   7.312 -0.2332 -0.5248  1.7422
  168SOPE   C3618977   3.372   4.634   7.469 -0.2005 -1.6135 -0.3724
  168SOPE   H6X18978   3.332   4.737   7.480  0.9982 -1.0727 -0.8678
  168SOPE   H6Y18979   3.481   4.648   7.482 -0.1583  0.6270 -2.2843
  168SOPE   C3718980   3.310   4.545   7.573  0.1937  0.0519  0.4393
  168SOPE   H7X18981   3.343   4.441   7.551 -1.7468 -0.5275  0.0302
  168SOPE   H7Y18982   3.199   4.538   7.571 -0.1293  1.0561  4.7896
  168SOPE   C3818983   3.349   4.580   7.717  0.3070 -0.1076 -0.2422
  168SOPE   H8X18984   3.318   4.685   7.738  0.6213  0.1752 -1.1264
  168SOPE   H8Y18985   3.459   4.574   7.732  0.2144 -2.2920 -0.2174
  168SOPE   C3918986   3.293   4.479   7.824 -0.4976 -0.6802 -0.0735
  168SOPE   H9X18987   3.361   4.391   7.819  0.3776  0.0648 -2.1703
  168SOPE   H9Y18988   3.185   4.455   7.813 -1.0881  1.7356 -0.0024
  168SOPE  C31018989   3.316   4.530   7.970  0.2548 -0.1583  0.0998
  168SOPE  H10X18990   3.400   4.601   7.961 -0.6159  0.7393 -1.3892
  168SOPE  H10Y18991   3.329   4.445   8.040  3.0661 -0.4374 -0.6374
  168SOPE  C31118992   3.205   4.626   8.013  0.0801 -0.2713  0.2737
  168SOPE  H11X18993   3.105   4.579   8.000 -0.3914  0.5031  1.0379
  168SOPE  H11Y18994   3.207   4.718   7.951 -0.4519 -1.0364 -0.9219
  168SOPE  C31218995   3.210   4.659   8.165  0.3683 -0.0150 -0.3554
  168SOPE  H12X18996   3.319   4.671   8.181  0.4697  0.9128 -1.6201
  168SOPE  H12Y18997   3.184   4.568   8.224  2.1442  0.5186  1.3597
  168SOPE  C31318998   3.120   4.781   8.201 -0.3228  0.2940  0.5018
  168SOPE  H13X18999   3.168   4.865   8.148  1.3097 -0.6764  0.3909
  168SOPE  H13Y19000   3.125   4.780   8.312  0.0024  2.6057  0.5523
  168SOPE  C31419001   2.968   4.773   8.159 -0.5351 -0.2810 -0.3635
  168SOPE  H14X19002   2.940   4.685   8.221 -0.8791 -1.3962 -2.0287
  168SOPE  H14Y19003   2.953   4.749   8.051  2.6124 -0.6167 -0.8260
  168SOPE  C31519004   2.894   4.902   8.192 -0.0055 -0.1881 -0.1584
  168SOPE  H15X19005   2.921   4.935   8.294 -0.5119  0.5555 -0.2537
  168SOPE  H15Y19006   2.785   4.881   8.203  0.1160  0.0074  1.7324
  168SOPE  C31619007   2.921   5.019   8.109  0.1549  0.0625  0.2328
  168SOPE  H16X19008   2.875   5.011   8.008 -1.2024 -0.2995  0.8529
  168SOPE  H16Y19009   3.031   5.025   8.092  0.2333 -2.1559 -0.4905
  168SOPE  C31719010   2.859   5.149   8.164 -0.5279 -0.2131  0.0192
  168SOPE  H17X19011   2.917   5.171   8.257 -0.9416 -0.0731  0.2440
  168SOPE  H17Y19012   2.752   5.128   8.184 -0.8914 -0.7407 -2.2151
  168SOPE  C31819013   2.866   5.256   8.063 -0.0100 -0.1476  0.1855
  168SOPE  H18X19014   2.787   5.238   7.986 -0.6005 -1.8348  1.1283
  168SOPE  H18Y19015   2.964   5.282   8.018 -1.0683  2.0146 -1.0720
  168SOPE  H18Z19016   2.826   5.347   8.113 -0.4118 -0.1827 -0.0675
  169SOPE     N19017   5.814   5.176   6.320  0.0799  0.9720  0.7648
  169SOPE   HN119018   5.914   5.199   6.302 -0.3127  1.1941 -1.3320
  169SOPE   HN219019   5.753   5.218   6.247  0.1577  0.4353  0.3886
  169SOPE   HN319020   5.781   5.220   6.408  0.7106  0.9321  1.0261
  169SOPE   C1219021   5.802   5.028   6.350 -0.3709  0.3374  0.0423
  169SOPE  H12A19022   5.895   5.006   6.407  0.9776  3.3502 -0.8427
  169SOPE  H12B19023   5.792   4.972   6.254  0.6293  0.4909 -0.1560
  169SOPE   C1119024   5.679   5.005   6.428  0.3072 -0.3608 -0.0141
  169SOPE  H11A19025   5.680   5.065   6.522 -0.8113 -0.9239  0.3704
  169SOPE  H11B19026   5.681   4.897   6.451 -1.2105 -0.3269  0.3890
  169SOPE     P19027   5.460   4.951   6.274  0.4741 -0.0202  0.3044
  169SOPE   O1319028   5.548   4.864   6.195  0.1782 -0.5091 -0.1255
  169SOPE   O1419029   5.380   5.044   6.193 -0.3535 -0.2271 -0.2769
  169SOPE   O1219030   5.558   5.037   6.361  0.6082 -0.4946  0.6449
  169SOPE   O1119031   5.371   4.870   6.379 -0.9943 -0.4606  0.4650
  169SOPE    C119032   5.292   4.930   6.481  0.3519  0.1184  1.1822
  169SOPE    HA19033   5.200   4.969   6.432  0.4074  0.0404  1.0126
  169SOPE    HB19034   5.335   5.026   6.518  0.0530  0.2991  1.0656
  169SOPE    C219035   5.257   4.834   6.594  0.0625 -0.0052 -0.4663
  169SOPE    HS19036   5.186   4.879   6.666 -1.1932 -0.9071 -1.0845
  169SOPE   O2119037   5.387   4.789   6.647 -0.0589  0.8953  0.8425
  169SOPE   C2119038   5.440   4.877   6.727 -0.4413 -0.0069  0.2091
  169SOPE   O2219039   5.399   4.990   6.758 -0.4262 -0.0743  0.2363
  169SOPE   C2219040   5.582   4.824   6.776  1.0199 -0.7623 -0.0950
  169SOPE   H2R19041   5.648   4.913   6.769  0.4870 -0.3882 -0.5066
  169SOPE   H2S19042   5.608   4.739   6.710  2.8724 -1.8585  1.9130
  169SOPE    C319043   5.173   4.710   6.539 -0.2387 -0.5705 -0.8266
  169SOPE    HX19044   5.208   4.685   6.437  2.5539 -3.9273  0.7405
  169SOPE    HY19045   5.064   4.732   6.536 -0.3825 -0.8837  0.9605
  169SOPE   O3119046   5.185   4.598   6.627 -0.3184 -0.0603  0.7679
  169SOPE   C3119047   5.266   4.497   6.582 -0.0666  0.9412 -0.5479
  169SOPE   O3219048   5.333   4.494   6.477 -0.3486 -0.4199 -0.2122
  169SOPE   C3219049   5.251   4.392   6.681 -0.5069  0.1175  0.3558
  169SOPE   H2X19050   5.297   4.300   6.639  1.9199  0.7360  1.5169
  169SOPE   H2Y19051   5.143   4.368   6.693 -0.6860 -0.3280 -1.7321
  169SOPE   C2319052   5.569   4.791   6.926 -0.2741 -0.0277  0.2835
  169SOPE   H3R19053   5.509   4.698   6.935 -0.0986 -0.2885 -1.0642
  169SOPE   H3S19054   5.510   4.869   6.980 -0.1386  1.0211 -1.0325
  169SOPE   C2419055   5.706   4.764   6.983 -0.1554  0.3720  0.1893
  169SOPE   H4R19056   5.689   4.724   7.085  0.5535  1.1246  0.6066
  169SOPE   H4S19057   5.762   4.692   6.918  1.2855  1.7289 -0.1312
  169SOPE   C2519058   5.800   4.892   6.992  0.6728  0.2876 -0.2687
  169SOPE   H5R19059   5.849   4.913   6.895 -0.9790  0.8051 -1.0403
  169SOPE   H5S19060   5.726   4.971   7.016  1.7336  0.2261  3.9372
  169SOPE   C2619061   5.914   4.875   7.103  0.2685 -0.0698  0.6953
  169SOPE   H6R19062   5.979   4.965   7.110 -1.8108  1.4493  1.6289
  169SOPE   H6S19063   5.861   4.847   7.196 -1.4937  0.2594 -0.1558
  169SOPE   C2719064   6.005   4.760   7.052 -0.5326  0.1173  0.0027
  169SOPE   H7R19065   5.958   4.661   7.034 -0.1686 -0.9032  3.9145
  169SOPE   H7S19066   6.051   4.787   6.954 -0.6280  0.1388 -0.0360
  169SOPE   C2819067   6.119   4.727   7.143  0.3524 -0.1570 -0.0051
  169SOPE   H8R19068   6.187   4.648   7.103  0.4840  0.3501 -0.8142
  169SOPE   H8S19069   6.190   4.812   7.143  0.1584  0.0246 -1.4176
  169SOPE   C2919070   6.087   4.694   7.291 -0.0461 -0.3429  0.0639
  169SOPE   H9119071   6.037   4.597   7.302  0.8570 -0.7709  0.4607
  169SOPE  C21019072   6.115   4.763   7.400  0.0938  0.0167  0.3334
  169SOPE  H10119073   6.096   4.720   7.499  0.7958  0.0707  0.5008
  169SOPE  C21119074   6.183   4.895   7.413 -0.4448 -0.1200 -0.0221
  169SOPE  H11R19075   6.106   4.971   7.390 -1.1751 -1.0871 -0.8655
  169SOPE  H11S19076   6.251   4.906   7.325 -0.4047  0.9140  0.1282
  169SOPE  C21219077   6.258   4.916   7.542 -0.3374 -0.1984 -0.4633
  169SOPE  H12R19078   6.303   5.018   7.541  1.1675 -0.8396 -0.4737
  169SOPE  H12S19079   6.343   4.845   7.540  0.5937  0.8717 -0.0673
  169SOPE  C21319080   6.163   4.911   7.661  0.1720  0.2426 -0.5141
  169SOPE  H13R19081   6.103   4.819   7.680  0.4228  0.2677  0.4763
  169SOPE  H13S19082   6.082   4.985   7.644 -0.2498  0.1768  1.0564
  169SOPE  C21419083   6.238   4.943   7.784 -0.1907  0.0598  0.2650
  169SOPE  H14R19084   6.281   5.045   7.778 -0.6880  0.3188  0.9445
  169SOPE  H14S19085   6.336   4.890   7.788 -0.1198 -0.0087 -1.5706
  169SOPE  C21519086   6.152   4.925   7.907  0.0239 -0.2762 -0.0863
  169SOPE  H15R19087   6.123   4.818   7.917  0.0462 -0.4386 -1.5928
  169SOPE  H15S19088   6.055   4.977   7.890  0.4511  1.1715  1.6208
  169SOPE  C21619089   6.211   4.981   8.037 -0.2058  0.6679 -0.5443
  169SOPE  H16R19090   6.247   5.086   8.027 -0.2355  0.6567 -0.7918
  169SOPE  H16S19091   6.293   4.915   8.073  0.6358  0.6541 -2.3434
  169SOPE  C21719092   6.116   4.984   8.159 -0.1105 -0.1149  0.0724
  169SOPE  H17R19093   6.092   4.877   8.175  1.1740 -1.0924 -3.6006
  169SOPE  H17S19094   6.026   5.041   8.127  0.6674  1.2982  0.3332
  169SOPE  C21819095   6.174   5.058   8.287 -0.1893  0.4148 -0.0075
  169SOPE  H18R19096   6.279   5.028   8.304  0.4964  1.4061 -2.1146
  169SOPE  H18S19097   6.115   5.045   8.380  2.6163  2.1953  2.1923
  169SOPE  H18T19098   6.193   5.167   8.270  3.1008 -0.1157 -0.3990
  169SOPE   C3319099   5.297   4.432   6.828 -0.0740  0.4553 -0.1549
  169SOPE   H3X19100   5.289   4.543   6.829 -0.2424  0.4454 -0.3177
  169SOPE   H3Y19101   5.406   4.414   6.839 -0.6344 -3.2318  0.5518
  169SOPE   C3419102   5.217   4.374   6.943 -0.0300  0.3499  0.2847
  169SOPE   H4X19103   5.204   4.264   6.937  2.1622  0.0502  0.2030
  169SOPE   H4Y19104   5.119   4.426   6.942 -0.1341  0.2271  1.8701
  169SOPE   C3519105   5.283   4.407   7.077 -0.4697  0.7851  0.2598
  169SOPE   H5X19106   5.292   4.518   7.078 -0.7361  0.8064  1.2219
  169SOPE   H5Y19107   5.391   4.378   7.085 -0.9136 -1.8093 -1.7244
  169SOPE   C3619108   5.226   4.345   7.205  0.2013 -0.5098 -0.0853
  169SOPE   H6X19109   5.210   4.236   7.193 -0.0496 -0.7153  1.8390
  169SOPE   H6Y19110   5.127   4.393   7.219  0.7914  1.5749 -2.2906
  169SOPE   C3719111   5.316   4.364   7.327  0.8402  0.2590  0.6020
  169SOPE   H7X19112   5.358   4.467   7.327 -1.2858  1.2311  3.2673
  169SOPE   H7Y19113   5.396   4.289   7.311 -0.2908 -1.0528  0.9025
  169SOPE   C3819114   5.227   4.339   7.453 -0.0416  0.1027 -0.1756
  169SOPE   H8X19115   5.132   4.396   7.445 -1.5287 -2.2130 -0.1014
  169SOPE   H8Y19116   5.193   4.233   7.450  1.6817 -0.5706  1.8625
  169SOPE   C3919117   5.285   4.381   7.588  0.8618 -0.1441 -0.2965
  169SOPE   H9X19118   5.373   4.320   7.617  1.1103  0.1809 -0.3614
  169SOPE   H9Y19119   5.204   4.369   7.663  0.1600  0.3035 -0.9718
  169SOPE  C31019120   5.324   4.534   7.593  0.1036  0.0466  1.1288
  169SOPE  H10X19121   5.253   4.590   7.527 -0.8139 -0.0931  1.9799
  169SOPE  H10Y19122   5.424   4.546   7.546 -0.2172 -0.2115  0.3656
  169SOPE  C31119123   5.330   4.584   7.735 -0.2094 -0.6161  0.3192
  169SOPE  H11X19124   5.410   4.530   7.790  0.7767  1.1726  0.7259
  169SOPE  H11Y19125   5.236   4.554   7.785 -2.2550  3.5354 -0.5983
  169SOPE  C31219126   5.346   4.738   7.759  0.1985 -0.6072  0.6999
  169SOPE  H12X19127   5.270   4.799   7.704  0.9530  0.7053  1.0666
  169SOPE  H12Y19128   5.444   4.769   7.717 -0.5108 -2.3090 -2.5139
  169SOPE  C31319129   5.370   4.776   7.903 -0.0728  0.9243  0.1883
  169SOPE  H13X19130   5.355   4.886   7.909 -2.7279  0.7051 -1.2310
  169SOPE  H13Y19131   5.467   4.745   7.947 -0.2733  1.1289  0.7935
  169SOPE  C31419132   5.255   4.727   7.996 -0.2628 -0.4545  0.4729
  169SOPE  H14X19133   5.255   4.618   8.014  0.9482 -0.7077 -0.8586
  169SOPE  H14Y19134   5.162   4.738   7.936  1.0030 -0.4879 -1.5923
  169SOPE  C31519135   5.229   4.809   8.124  0.2385  0.0916  0.2255
  169SOPE  H15X19136   5.133   4.769   8.163  0.3238  1.4628  2.0109
  169SOPE  H15Y19137   5.219   4.918   8.104  1.8346  0.6828  2.2396
  169SOPE  C31619138   5.345   4.795   8.226  0.1022  0.1673  0.7424
  169SOPE  H16X19139   5.445   4.805   8.178 -0.0527 -0.7208  0.2231
  169SOPE  H16Y19140   5.327   4.700   8.280 -2.0492 -0.6393 -1.2365
  169SOPE  C31719141   5.343   4.894   8.340 -0.6800  0.7157 -0.3262
  169SOPE  H17X19142   5.347   4.836   8.434  2.0516  1.1596 -0.0861
  169SOPE  H17Y19143   5.241   4.939   8.346 -1.5278 -1.2709  0.7637
  169SOPE  C31819144   5.452   5.000   8.348 -0.4087  0.6969  0.4893
  169SOPE  H18X19145   5.418   5.055   8.438 -2.7472  2.1637 -1.1643
  169SOPE  H18Y19146   5.472   5.056   8.254  1.2998  0.5170  0.7256
  169SOPE  H18Z19147   5.548   4.952   8.377 -0.0239  0.8773 -0.4411
  170SOPE     N19148   5.393   1.441   5.647  0.2297 -0.0451  0.7270
  170SOPE   HN119149   5.433   1.507   5.578 -2.1542  0.5161 -0.2145
  170SOPE   HN219150   5.452   1.355   5.642 -2.2799 -1.8121 -0.1546
  170SOPE   HN319151   5.305   1.408   5.604  1.7599 -0.4700 -2.3465
  170SOPE   C1219152   5.372   1.489   5.786 -0.0210  0.4605 -0.5744
  170SOPE  H12A19153   5.302   1.423   5.842  2.1750 -0.3348  1.4002
  170SOPE  H12B19154   5.329   1.591   5.784 -1.4101 -0.0861  0.0505
  170SOPE   C1119155   5.495   1.493   5.877 -0.0844 -0.2346 -0.1863
  170SOPE  H11A19156   5.450   1.517   5.976 -4.2961 -2.2622 -1.3800
  170SOPE  H11B19157   5.563   1.581   5.871 -1.4181  0.8871  0.3854
  170SOPE     P19158   5.535   1.257   5.995  0.2172  0.2466  0.2727
  170SOPE   O1319159   5.635   1.152   5.992  0.4148  0.6052 -0.1180
  170SOPE   O1419160   5.392   1.219   5.980  0.0361  0.4834  0.2296
  170SOPE   O1219161   5.564   1.369   5.884 -0.2544 -0.1060 -0.3586
  170SOPE   O1119162   5.550   1.338   6.126 -0.0439  0.1133  0.2559
  170SOPE    C119163   5.674   1.397   6.153 -0.2975 -0.6648  0.4475
  170SOPE    HA19164   5.661   1.507   6.153  2.5226 -0.2141  2.2032
  170SOPE    HB19165   5.753   1.387   6.076  2.0043  1.7452  2.2869
  170SOPE    C219166   5.738   1.346   6.288  0.1712 -0.0873  0.4485
  170SOPE    HS19167   5.737   1.234   6.290 -0.2762 -0.1115 -0.6027
  170SOPE   O2119168   5.663   1.404   6.397  0.1618 -0.2144 -0.0432
  170SOPE   C2119169   5.621   1.316   6.493 -0.4691 -0.8973  0.5083
  170SOPE   O2219170   5.656   1.201   6.498  0.2258  0.3000 -0.1443
  170SOPE   C2219171   5.517   1.388   6.590 -0.2338  0.0577 -0.5285
  170SOPE   H2R19172   5.417   1.368   6.546 -0.1219 -1.2831 -0.2096
  170SOPE   H2S19173   5.531   1.499   6.587 -0.0361  0.0362 -2.9154
  170SOPE    C319174   5.878   1.406   6.295 -0.3008 -0.1328 -0.4449
  170SOPE    HX19175   5.870   1.516   6.302  0.0374 -0.1884  1.2114
  170SOPE    HY19176   5.928   1.385   6.198 -0.8218  0.0182 -0.7488
  170SOPE   O3119177   5.960   1.343   6.395  0.5777 -0.2049  0.2382
  170SOPE   C3119178   5.989   1.215   6.377  0.1650  0.2771 -0.1567
  170SOPE   O3219179   5.949   1.153   6.279  0.4433  1.1058 -0.2682
  170SOPE   C3219180   6.091   1.175   6.481  0.8728 -0.3676  0.6463
  170SOPE   H2X19181   6.050   1.201   6.581  1.1630 -1.3496  1.0422
  170SOPE   H2Y19182   6.180   1.240   6.470 -0.0683  0.7277 -0.7228
  170SOPE   C2319183   5.530   1.340   6.735  0.8887  0.2221  0.2208
  170SOPE   H3R19184   5.632   1.366   6.772  1.3465  1.4673 -1.7474
  170SOPE   H3S19185   5.510   1.231   6.745  1.3123 -0.0346 -1.5137
  170SOPE   C2419186   5.436   1.412   6.825 -0.1999 -0.5545 -0.3262
  170SOPE   H4R19187   5.332   1.416   6.786  0.1947  3.1471 -1.3871
  170SOPE   H4S19188   5.432   1.347   6.915 -0.3497 -0.7393 -0.4651
  170SOPE   C2519189   5.481   1.557   6.881  0.2699  1.0383  0.2440
  170SOPE   H5R19190   5.587   1.562   6.911 -0.0588  0.0156  1.6959
  170SOPE   H5S19191   5.467   1.632   6.800 -5.7780 -0.3862 -0.5039
  170SOPE   C2619192   5.404   1.598   7.010 -0.8329 -0.6647  0.6644
  170SOPE   H6R19193   5.295   1.602   6.995 -0.6259 -0.4799 -0.8671
  170SOPE   H6S19194   5.414   1.511   7.079 -1.5199 -1.0872  0.2329
  170SOPE   C2719195   5.447   1.734   7.067 -0.1278 -0.3051 -0.0112
  170SOPE   H7R19196   5.555   1.743   7.090 -0.4119 -0.7824  1.6931
  170SOPE   H7S19197   5.415   1.806   6.989  0.3948 -0.5731 -0.4775
  170SOPE   C2819198   5.370   1.771   7.190  0.5629  0.0435  0.0033
  170SOPE   H8R19199   5.263   1.752   7.168  0.3116  2.5971 -1.2710
  170SOPE   H8S19200   5.399   1.705   7.274 -0.3116 -0.2704  0.0714
  170SOPE   C2919201   5.381   1.912   7.238 -0.6303 -0.4025  0.3537
  170SOPE   H9119202   5.365   1.993   7.165 -1.8061 -0.5843  0.3985
  170SOPE  C21019203   5.421   1.946   7.367  0.6221 -0.1112  0.3830
  170SOPE  H10119204   5.433   2.051   7.396 -1.6741 -0.0097  1.0938
  170SOPE  C21119205   5.456   1.850   7.471 -0.6561  0.5474 -0.1033
  170SOPE  H11R19206   5.553   1.799   7.453 -0.1510  0.8124  1.6228
  170SOPE  H11S19207   5.380   1.770   7.488  2.3762 -2.3042  1.0564
  170SOPE  C21219208   5.467   1.942   7.601  0.3976  0.3025 -0.2477
  170SOPE  H12R19209   5.363   1.979   7.610  0.1470  0.1043 -1.9838
  170SOPE  H12S19210   5.539   2.026   7.593  2.3218 -1.1481  1.0157
  170SOPE  C21319211   5.513   1.862   7.726 -0.2597 -0.1396 -0.2851
  170SOPE  H13R19212   5.617   1.886   7.757  0.4066 -1.2382 -1.5548
  170SOPE  H13S19213   5.508   1.754   7.699 -0.5862 -0.3294  0.5185
  170SOPE  C21419214   5.424   1.888   7.836 -0.0843  0.8340 -0.2131
  170SOPE  H14R19215   5.321   1.853   7.814  0.1538 -1.1393  1.5210
  170SOPE  H14S19216   5.414   1.997   7.855 -3.2369  0.3551  1.4969
  170SOPE  C21519217   5.470   1.816   7.963 -0.2318  0.2866  0.0573
  170SOPE  H15R19218   5.579   1.832   7.975 -0.2523  0.3490  0.1656
  170SOPE  H15S19219   5.458   1.705   7.957 -1.4211  0.3763  0.5758
  170SOPE  C21619220   5.390   1.867   8.086  0.4596 -0.6883  0.6247
  170SOPE  H16R19221   5.285   1.889   8.058 -0.2894 -0.4124  3.3067
  170SOPE  H16S19222   5.433   1.956   8.137 -2.2030  2.1499 -1.6787
  170SOPE  C21719223   5.380   1.765   8.197 -0.4008 -0.2827  0.0094
  170SOPE  H17R19224   5.482   1.724   8.207  0.2053  0.9024 -1.0895
  170SOPE  H17S19225   5.327   1.670   8.174  2.3021 -1.9454  0.3128
  170SOPE  C21819226   5.322   1.819   8.333  0.2376 -0.0661 -0.1061
  170SOPE  H18R19227   5.367   1.919   8.355  1.7161 -1.1543  2.2729
  170SOPE  H18S19228   5.353   1.750   8.414  1.3420  1.3103  0.7097
  170SOPE  H18T19229   5.212   1.827   8.334  0.3069  1.2066  0.7789
  170SOPE   C3319230   6.137   1.030   6.468  0.3762  0.3213  0.2529
  170SOPE   H3X19231   6.174   1.011   6.365 -1.1425 -1.0402 -0.0716
  170SOPE   H3Y19232   6.052   0.962   6.491 -0.7101  0.9589 -1.6641
  170SOPE   C3419233   6.250   1.001   6.565 -0.2749  0.1275 -0.2540
  170SOPE   H4X19234   6.345   1.052   6.540  0.9606 -1.7527  0.4073
  170SOPE   H4Y19235   6.261   0.891   6.575 -0.7334  0.0623 -0.4323
  170SOPE   C3519236   6.218   1.030   6.717  0.3879  0.7788  0.5985
  170SOPE   H5X19237   6.134   0.962   6.745 -0.4457  0.7915 -1.6614
  170SOPE   H5Y19238   6.191   1.137   6.726 -0.7494  0.6160 -0.5532
  170SOPE   C3619239   6.320   1.001   6.827 -0.2335 -0.0718  0.9111
  170SOPE   H6X19240   6.405   1.073   6.820 -0.2791 -0.1839 -2.1245
  170SOPE   H6Y19241   6.354   0.897   6.807  1.6076  0.0307  2.9946
  170SOPE   C3719242   6.251   1.001   6.957  0.6875  0.4924  0.2104
  170SOPE   H7X19243   6.169   0.928   6.940  1.0433  0.5653 -2.1591
  170SOPE   H7Y19244   6.210   1.104   6.966  2.9208  1.6385 -1.4654
  170SOPE   C3819245   6.352   0.953   7.068  0.9406 -0.0272 -0.3447
  170SOPE   H8X19246   6.451   1.004   7.067  0.5844  0.8511  2.0349
  170SOPE   H8Y19247   6.371   0.845   7.051  1.5752  0.1470 -0.7836
  170SOPE   C3919248   6.292   0.973   7.215 -0.2628 -0.1007 -0.3419
  170SOPE   H9X19249   6.206   0.903   7.214 -1.3759  1.2198 -1.4293
  170SOPE   H9Y19250   6.248   1.074   7.231 -4.3513 -1.6762 -0.4004
  170SOPE  C31019251   6.390   0.943   7.332  0.1775 -0.1826  0.6228
  170SOPE  H10X19252   6.468   1.023   7.331 -0.3650  0.3583  0.7820
  170SOPE  H10Y19253   6.441   0.845   7.318  0.1281 -0.8610  4.3421
  170SOPE  C31119254   6.316   0.944   7.469  0.5787 -0.1577  0.1989
  170SOPE  H11X19255   6.226   0.879   7.464 -0.5983  1.4636 -0.4290
  170SOPE  H11Y19256   6.284   1.044   7.502 -0.8247 -0.7324  0.6624
  170SOPE  C31219257   6.400   0.879   7.580  0.0291  0.6841  0.1279
  170SOPE  H12X19258   6.498   0.927   7.599  0.4588  0.1576 -0.7285
  170SOPE  H12Y19259   6.419   0.770   7.569  0.0796  0.3762  2.6033
  170SOPE  C31319260   6.317   0.877   7.712  0.1867 -0.0154  0.7013
  170SOPE  H13X19261   6.232   0.808   7.694  1.7030 -1.7694 -0.1178
  170SOPE  H13Y19262   6.282   0.979   7.738 -0.3173 -0.1718  0.6348
  170SOPE  C31419263   6.403   0.840   7.828 -0.5054  0.1743 -0.2504
  170SOPE  H14X19264   6.458   0.930   7.862  0.0067 -0.2837  0.1489
  170SOPE  H14Y19265   6.467   0.760   7.787 -1.0886  0.8955 -2.7180
  170SOPE  C31519266   6.342   0.786   7.952  0.7479 -1.0506 -0.2747
  170SOPE  H15X19267   6.292   0.690   7.923 -2.5773  1.2538 -2.9410
  170SOPE  H15Y19268   6.250   0.846   7.973 -0.0939 -2.5449  0.5161
  170SOPE  C31619269   6.441   0.783   8.071 -0.6821 -0.1987 -0.3146
  170SOPE  H16X19270   6.457   0.884   8.114 -1.7188  0.1356 -0.6726
  170SOPE  H16Y19271   6.537   0.742   8.034 -1.2045  0.1366 -2.1824
  170SOPE  C31719272   6.397   0.696   8.191 -0.2887  0.0429  0.1338
  170SOPE  H17X19273   6.479   0.682   8.264 -2.0633  2.1584  2.6897
  170SOPE  H17Y19274   6.377   0.597   8.144 -1.7687  0.6858 -0.6462
  170SOPE  C31819275   6.281   0.752   8.270  0.5473 -0.8775  0.4347
  170SOPE  H18X19276   6.220   0.679   8.329 -2.4997 -0.6793 -2.1681
  170SOPE  H18Y19277   6.212   0.800   8.198  0.7262  2.6072  2.3805
  170SOPE  H18Z19278   6.318   0.832   8.337  0.1572 -0.1847 -0.1686
  171SOPE     N19279   6.198   6.028   6.150  0.1181  0.3280  0.4644
  171SOPE   HN119280   6.238   5.940   6.112 -1.3897  0.2358 -0.9994
  171SOPE   HN219281   6.123   6.056   6.084  1.2607  0.8844 -0.6268
  171SOPE   HN319282   6.263   6.108   6.160  1.1976 -0.3910 -0.6189
  171SOPE   C1219283   6.125   5.992   6.279  0.5245  0.6320 -0.8002
  171SOPE  H12A19284   6.172   5.899   6.319 -0.1637 -0.0038 -1.4362
  171SOPE  H12B19285   6.015   5.975   6.269  0.5893 -0.2619 -0.0960
  171SOPE   C1119286   6.137   6.106   6.385  0.0638  0.4772  0.4222
  171SOPE  H11A19287   6.244   6.136   6.393 -0.5719  3.6817 -1.4321
  171SOPE  H11B19288   6.109   6.071   6.487  0.5106  1.0024  0.7269
  171SOPE     P19289   6.119   6.358   6.369 -0.1132  0.0600 -0.2670
  171SOPE   O1319290   6.029   6.465   6.319 -0.0579 -0.3645 -0.0868
  171SOPE   O1419291   6.253   6.350   6.292  0.1818 -0.2423 -0.3926
  171SOPE   O1219292   6.049   6.216   6.356  0.1451  0.0688 -0.4843
  171SOPE   O1119293   6.139   6.385   6.523 -0.0489 -0.5696 -0.4253
  171SOPE    C119294   6.266   6.374   6.597 -0.2022  0.0224 -0.0857
  171SOPE    HA19295   6.309   6.475   6.615 -0.5201  0.1816 -0.2199
  171SOPE    HB19296   6.344   6.319   6.540  1.3596  1.5881  0.4308
  171SOPE    C219297   6.261   6.300   6.740 -0.4630  0.2236  0.0355
  171SOPE    HS19298   6.225   6.196   6.727 -0.9098  0.5740 -1.8555
  171SOPE   O2119299   6.178   6.381   6.826  0.9008  0.6137  0.3340
  171SOPE   C2119300   6.060   6.325   6.839 -0.0030 -0.4274 -0.5754
  171SOPE   O2219301   6.025   6.217   6.796 -0.3247 -0.7576  0.9738
  171SOPE   C2219302   5.988   6.408   6.958 -0.3087  0.6393  0.0625
  171SOPE   H2R19303   5.879   6.400   6.938 -0.2331  1.3626 -0.7077
  171SOPE   H2S19304   6.013   6.516   6.967 -0.3695  0.5055  2.8767
  171SOPE    C319305   6.414   6.301   6.787 -0.0483  0.8206 -0.5800
  171SOPE    HX19306   6.453   6.401   6.761 -2.3803  2.0439  0.3171
  171SOPE    HY19307   6.481   6.227   6.739  0.5098  0.0180  1.3181
  171SOPE   O3119308   6.423   6.279   6.929  0.4605  0.4439  0.5883
  171SOPE   C3119309   6.514   6.331   7.008 -0.6158 -0.0794  0.0115
  171SOPE   O3219310   6.609   6.395   6.967  0.1782 -0.5387 -0.1855
  171SOPE   C3219311   6.494   6.300   7.152  0.4468  0.2484 -0.1917
  171SOPE   H2X19312   6.539   6.200   7.172 -0.8039 -0.3739 -0.3563
  171SOPE   H2Y19313   6.385   6.294   7.175  0.4654  0.0757 -0.1434
  171SOPE   C2319314   6.017   6.341   7.093  0.5743 -0.5990  0.4266
  171SOPE   H3R19315   6.127   6.342   7.108  0.7443  2.8070 -0.2062
  171SOPE   H3S19316   5.997   6.232   7.092  2.2810 -0.9453  0.4614
  171SOPE   C2419317   5.954   6.409   7.214  0.4120  0.0753  0.1642
  171SOPE   H4R19318   5.963   6.518   7.193 -1.5555  0.2446  0.0538
  171SOPE   H4S19319   5.848   6.380   7.226  0.5154  0.2204  1.7201
  171SOPE   C2519320   6.031   6.366   7.339 -0.4891  0.1180 -0.2827
  171SOPE   H5R19321   6.039   6.255   7.332 -1.3386  0.0876 -0.8787
  171SOPE   H5S19322   6.135   6.405   7.327 -1.0237  1.2375 -1.6265
  171SOPE   C2619323   5.961   6.413   7.471  0.0397  0.5024  0.5919
  171SOPE   H6R19324   5.980   6.523   7.476  0.0149  0.5494 -0.2185
  171SOPE   H6S19325   5.851   6.403   7.458 -0.0331  1.5217  0.3406
  171SOPE   C2719326   5.999   6.339   7.596  0.4639 -0.0810 -0.1202
  171SOPE   H7R19327   5.969   6.232   7.600  0.4409 -0.0920 -0.6067
  171SOPE   H7S19328   6.110   6.339   7.602  0.5105 -1.3417 -0.5555
  171SOPE   C2819329   5.945   6.417   7.716  0.0186 -0.9234  0.3170
  171SOPE   H8R19330   6.019   6.421   7.799  0.8047  0.0364 -0.3922
  171SOPE   H8S19331   5.942   6.526   7.694  0.3245 -1.2508 -1.5091
  171SOPE   C2919332   5.809   6.371   7.755  0.9261 -0.3039  0.1854
  171SOPE   H9119333   5.720   6.389   7.692  1.1662  2.3703  0.5003
  171SOPE  C21019334   5.792   6.282   7.853 -0.0144 -0.4121 -0.5220
  171SOPE  H10119335   5.686   6.260   7.873  0.1519  0.1880  1.1667
  171SOPE  C21119336   5.895   6.224   7.950  0.0359  0.2800 -0.4858
  171SOPE  H11R19337   5.968   6.305   7.968 -0.1534 -0.0398  2.0842
  171SOPE  H11S19338   5.953   6.133   7.923  1.3244  0.9147  0.0474
  171SOPE  C21219339   5.824   6.188   8.085  0.5871 -0.2551  0.2015
  171SOPE  H12R19340   5.746   6.114   8.058 -0.2028  0.1745  1.2596
  171SOPE  H12S19341   5.782   6.280   8.129  0.0474 -1.0385  1.3471
  171SOPE  C21319342   5.933   6.132   8.175 -0.1779  0.0314 -0.0311
  171SOPE  H13R19343   6.016   6.206   8.182  0.5754 -0.8119  0.1645
  171SOPE  H13S19344   5.984   6.045   8.128 -0.8444 -0.5774  0.3363
  171SOPE  C21419345   5.886   6.110   8.317 -0.1533 -0.6869 -0.2311
  171SOPE  H14R19346   5.789   6.055   8.325 -1.1880  1.2988  1.8493
  171SOPE  H14S19347   5.861   6.194   8.386 -0.5478 -0.8171 -0.2110
  171SOPE  C21519348   5.980   6.018   8.401 -0.7429  0.0770 -0.7228
  171SOPE  H15R19349   6.076   6.073   8.401 -0.3389 -0.6061  0.2300
  171SOPE  H15S19350   5.981   5.923   8.344  2.4076 -1.5216  1.6730
  171SOPE  C21619351   5.946   5.993   8.546 -0.1223  0.1371  0.3044
  171SOPE  H16R19352   5.870   5.912   8.551 -0.0091  0.0552  0.6718
  171SOPE  H16S19353   5.908   6.082   8.600  0.9370  1.5371 -1.1539
  171SOPE  C21719354   6.073   5.944   8.624  0.2695  0.0240 -0.3665
  171SOPE  H17R19355   6.155   6.018   8.612  0.4446 -0.4316 -2.3020
  171SOPE  H17S19356   6.111   5.850   8.578 -1.3378 -0.7624 -0.1694
  171SOPE  C21819357   6.055   5.914   8.773 -0.7349 -0.4779 -0.7510
  171SOPE  H18R19358   5.977   5.837   8.788 -0.7008 -0.4400 -0.3777
  171SOPE  H18S19359   6.029   6.007   8.828 -0.3658 -0.8297  0.0383
  171SOPE  H18T19360   6.150   5.865   8.806 -1.1880 -1.2735 -0.6154
  171SOPE   C3319361   6.565   6.394   7.251 -0.0243  0.0907 -0.0612
  171SOPE   H3X19362   6.530   6.499   7.245  3.5203  1.3848 -0.1469
  171SOPE   H3Y19363   6.673   6.398   7.228  0.5044  3.3344  2.2443
  171SOPE   C3419364   6.553   6.348   7.404 -0.4733  0.1031  1.1217
  171SOPE   H4X19365   6.632   6.410   7.450  0.6023 -1.0435  0.8774
  171SOPE   H4Y19366   6.588   6.243   7.389 -1.8623 -0.3577  0.9341
  171SOPE   C3519367   6.417   6.356   7.471  0.8042 -0.1322  0.1566
  171SOPE   H5X19368   6.347   6.291   7.414  0.0766  0.8324 -0.0781
  171SOPE   H5Y19369   6.387   6.463   7.472  0.0729 -0.2762 -1.8358
  171SOPE   C3619370   6.433   6.288   7.612 -0.4887 -0.0558 -0.5660
  171SOPE   H6X19371   6.482   6.189   7.603 -0.6261 -0.3121  1.0624
  171SOPE   H6Y19372   6.330   6.270   7.650 -0.0773  0.9665  1.2075
  171SOPE   C3719373   6.499   6.385   7.717  0.0847  0.4560 -0.0873
  171SOPE   H7X19374   6.447   6.483   7.712  0.6620  0.7428 -0.5779
  171SOPE   H7Y19375   6.605   6.393   7.685 -0.1476  1.2988 -0.6844
  171SOPE   C3819376   6.500   6.325   7.862 -0.0633  0.1495  0.9080
  171SOPE   H8X19377   6.604   6.333   7.902  1.6856 -0.2799 -3.0301
  171SOPE   H8Y19378   6.482   6.216   7.869  0.6839 -0.4083 -3.2843
  171SOPE   C3919379   6.392   6.377   7.961 -0.7337 -0.0624  1.1189
  171SOPE   H9X19380   6.294   6.356   7.914  0.0389 -2.6061  0.4766
  171SOPE   H9Y19381   6.404   6.487   7.951 -1.5900 -0.0809 -0.2511
  171SOPE  C31019382   6.401   6.304   8.100  0.2341 -0.2636  0.6129
  171SOPE  H10X19383   6.491   6.322   8.162 -1.5654  2.9149  2.5895
  171SOPE  H10Y19384   6.397   6.194   8.089  0.2566 -0.0603 -2.4859
  171SOPE  C31119385   6.283   6.357   8.177  0.3649 -0.3021 -0.2800
  171SOPE  H11X19386   6.190   6.320   8.128 -0.3430  1.9958 -0.7948
  171SOPE  H11Y19387   6.278   6.467   8.163  0.4574 -0.0202  1.6256
  171SOPE  C31219388   6.280   6.321   8.329 -0.4363 -0.4392  0.6554
  171SOPE  H12X19389   6.362   6.374   8.381 -2.7172  2.0850  1.9438
  171SOPE  H12Y19390   6.296   6.213   8.351  1.6876  0.0416  1.7493
  171SOPE  C31319391   6.144   6.354   8.393 -0.1434 -0.4559  0.1377
  171SOPE  H13X19392   6.058   6.297   8.351 -2.1917  2.1487  0.4722
  171SOPE  H13Y19393   6.130   6.458   8.356  3.0968 -0.2225 -0.6574
  171SOPE  C31419394   6.142   6.336   8.547  0.7363 -0.5297  0.1247
  171SOPE  H14X19395   6.237   6.349   8.604 -0.4024  1.7627  1.6361
  171SOPE  H14Y19396   6.092   6.239   8.567 -1.3256  0.1362 -1.4889
  171SOPE  C31519397   6.053   6.443   8.620  0.4370  0.0899 -0.4195
  171SOPE  H15X19398   6.065   6.421   8.728 -0.8663  0.6908 -0.1182
  171SOPE  H15Y19399   5.948   6.418   8.592 -0.5127  4.0903 -1.0846
  171SOPE  C31619400   6.088   6.587   8.589  0.0838  0.9054 -0.0500
  171SOPE  H16X19401   6.066   6.609   8.482 -0.1779 -1.6835 -0.5866
  171SOPE  H16Y19402   6.195   6.603   8.614  0.2733 -1.0349  0.5055
  171SOPE  C31719403   5.993   6.684   8.669  0.3953  0.4697 -0.0166
  171SOPE  H17X19404   6.024   6.665   8.774  3.0902 -0.9382 -0.9671
  171SOPE  H17Y19405   5.890   6.644   8.656  0.1756  0.0165  2.5983
  171SOPE  C31819406   6.008   6.831   8.630  0.2788  0.3088 -0.6627
  171SOPE  H18X19407   5.985   6.872   8.530 -1.9874  1.2203  0.1413
  171SOPE  H18Y19408   6.111   6.869   8.646  0.5129 -0.4409 -0.3403
  171SOPE  H18Z19409   5.950   6.885   8.709  1.8998 -1.6393  2.0349
  172SOPE     N19410   0.169   2.798   6.633 -0.6239  0.2538 -0.0268
  172SOPE   HN119411   0.123   2.891   6.620 -2.3708 -0.5593  0.0223
  172SOPE   HN219412   0.164   2.755   6.538  3.9232 -0.8146 -0.0128
  172SOPE   HN319413   0.119   2.734   6.698  1.0916 -0.9956  0.1318
  172SOPE   C1219414   0.313   2.810   6.682  0.4526 -0.2038  0.0595
  172SOPE  H12A19415   0.309   2.860   6.781 -1.0695 -0.3937  0.1123
  172SOPE  H12B19416   0.359   2.885   6.613 -0.5120  1.3072  1.0176
  172SOPE   C1119417   0.384   2.679   6.702 -0.3481 -0.7851 -0.2167
  172SOPE  H11A19418   0.342   2.616   6.784 -0.8068  0.5956  0.6436
  172SOPE  H11B19419   0.481   2.700   6.752 -1.7734 -0.3527  2.5958
  172SOPE     P19420   0.507   2.649   6.472  0.2922  0.2721 -0.0123
  172SOPE   O1319421   0.465   2.773   6.398 -0.2118  0.2559  0.6795
  172SOPE   O1419422   0.541   2.524   6.391  0.0638 -1.0290  0.6416
  172SOPE   O1219423   0.395   2.616   6.578 -0.5098 -0.1199  0.2318
  172SOPE   O1119424   0.626   2.689   6.562  0.3520 -0.1020 -0.0171
  172SOPE    C119425   0.741   2.604   6.590 -0.9356 -0.0638  0.7247
  172SOPE    HA19426   0.830   2.657   6.551 -0.9728 -1.3957 -1.2796
  172SOPE    HB19427   0.720   2.508   6.538 -0.3911 -0.6374  1.5526
  172SOPE    C219428   0.761   2.581   6.742 -0.2988  0.3606 -0.1237
  172SOPE    HS19429   0.847   2.512   6.753 -0.2237  0.4572 -0.1064
  172SOPE   O2119430   0.647   2.527   6.808  0.1190  0.5188 -0.8980
  172SOPE   C2119431   0.658   2.463   6.927 -0.1589 -0.1254  0.3533
  172SOPE   O2219432   0.757   2.415   6.980 -0.2872 -0.4835  0.2402
  172SOPE   C2219433   0.512   2.419   6.965 -0.0292  0.1209  0.0252
  172SOPE   H2R19434   0.471   2.364   6.878  0.1443  0.9599 -0.6018
  172SOPE   H2S19435   0.443   2.503   6.988 -0.5840 -0.4576  0.5026
  172SOPE    C319436   0.806   2.709   6.804  0.5096 -0.6092 -0.3736
  172SOPE    HX19437   0.726   2.784   6.785  1.3323  0.0643 -1.2337
  172SOPE    HY19438   0.906   2.735   6.765  1.0281 -0.3215  1.0827
  172SOPE   O3119439   0.823   2.707   6.951 -0.2054 -0.9662 -0.0620
  172SOPE   C3119440   0.937   2.675   6.998 -0.7877  0.1872 -0.1482
  172SOPE   O3219441   1.044   2.660   6.941 -0.1641 -0.4278  0.6650
  172SOPE   C3219442   0.915   2.663   7.149  0.3485 -0.1092 -0.4193
  172SOPE   H2X19443   0.814   2.624   7.173 -0.5185  1.2713 -1.6742
  172SOPE   H2Y19444   0.921   2.766   7.189  3.6979  0.1861 -1.3655
  172SOPE   C2319445   0.516   2.321   7.086 -0.1876 -0.0165 -0.3871
  172SOPE   H3R19446   0.568   2.368   7.172  0.6112 -0.7618 -0.4537
  172SOPE   H3S19447   0.577   2.234   7.055  0.9982  0.7745 -0.3221
  172SOPE   C2419448   0.374   2.267   7.129 -0.3560  0.3117 -0.6594
  172SOPE   H4R19449   0.297   2.347   7.140 -1.3126 -0.5855 -0.6462
  172SOPE   H4S19450   0.341   2.201   7.046  0.5287 -1.8016  0.5776
  172SOPE   C2519451   0.371   2.193   7.264  0.4702 -0.5713 -0.2870
  172SOPE   H5R19452   0.267   2.153   7.274  0.2051 -0.9837 -3.5541
  172SOPE   H5S19453   0.438   2.104   7.267  0.1234 -0.8282  2.6193
  172SOPE   C2619454   0.414   2.279   7.389  0.1986  0.0041  0.2497
  172SOPE   H6R19455   0.525   2.269   7.381  0.3698  0.6880  1.4542
  172SOPE   H6S19456   0.378   2.383   7.377 -0.8377  0.0830  3.2404
  172SOPE   C2719457   0.356   2.217   7.519  0.7186  0.1991  0.1107
  172SOPE   H7R19458   0.360   2.285   7.607  0.7198 -1.5636  1.5245
  172SOPE   H7S19459   0.247   2.198   7.507  1.2663 -1.9048 -2.3688
  172SOPE   C2819460   0.417   2.088   7.564 -0.1182 -0.2279 -0.2558
  172SOPE   H8R19461   0.334   2.023   7.598 -0.3691  0.5538  0.6834
  172SOPE   H8S19462   0.465   2.030   7.483  1.4136  0.1660  0.3317
  172SOPE   C2919463   0.526   2.126   7.670  1.0269 -0.0123  0.1840
  172SOPE   H9119464   0.596   2.193   7.617 -1.0357  0.2279 -2.4627
  172SOPE  C21019465   0.535   2.093   7.796  0.2468 -0.5846 -0.4310
  172SOPE  H10119466   0.629   2.117   7.848  0.9306  0.0060 -1.8871
  172SOPE  C21119467   0.454   1.993   7.873  0.2357  0.3526 -0.1461
  172SOPE  H11R19468   0.385   1.939   7.805  2.1821 -1.4543 -0.8115
  172SOPE  H11S19469   0.384   2.046   7.941  0.8239  1.7219 -0.5811
  172SOPE  C21219470   0.538   1.895   7.958  0.1744  0.6372 -0.1456
  172SOPE  H12R19471   0.581   1.964   8.033 -0.5924  0.1864  0.7272
  172SOPE  H12S19472   0.620   1.845   7.901  0.3919 -0.4464  1.0710
  172SOPE  C21319473   0.446   1.799   8.031 -0.0336  0.1933  0.4585
  172SOPE  H13R19474   0.383   1.737   7.963  0.4644 -1.7313  1.6669
  172SOPE  H13S19475   0.378   1.855   8.099 -0.7543 -0.6710  0.4645
  172SOPE  C21419476   0.520   1.707   8.129 -0.2289  0.0993 -0.8392
  172SOPE  H14R19477   0.606   1.665   8.073  0.2522 -0.8296  0.5648
  172SOPE  H14S19478   0.460   1.626   8.176 -0.2035  1.5894  1.9157
  172SOPE  C21519479   0.598   1.774   8.246  0.2043  0.5849  0.1125
  172SOPE  H15R19480   0.678   1.843   8.212  0.5688  1.3185  2.2888
  172SOPE  H15S19481   0.647   1.688   8.296  0.1294  0.2134 -0.4496
  172SOPE  C21619482   0.499   1.828   8.348 -0.6414  0.6504 -0.1687
  172SOPE  H16R19483   0.417   1.759   8.377 -0.5692  0.4406 -0.4543
  172SOPE  H16S19484   0.442   1.910   8.299  0.3857  0.8991 -0.9887
  172SOPE  C21719485   0.578   1.881   8.469  0.6812 -0.2166  0.1494
  172SOPE  H17R19486   0.666   1.940   8.438  0.8969 -1.1968 -1.2230
  172SOPE  H17S19487   0.611   1.790   8.524  0.0934 -0.0295  0.8249
  172SOPE  C21819488   0.489   1.969   8.563  0.2125  0.5666 -0.0149
  172SOPE  H18R19489   0.435   2.055   8.518 -1.1830  0.1780  0.8461
  172SOPE  H18S19490   0.552   2.007   8.646 -0.6342 -0.8978  1.3558
  172SOPE  H18T19491   0.409   1.899   8.596 -0.5753  1.0332 -0.8855
  172SOPE   C3319492   1.011   2.577   7.230 -1.0792  0.1520  0.4320
  172SOPE   H3X19493   1.020   2.479   7.178 -2.8056  0.0174  0.3437
  172SOPE   H3Y19494   0.962   2.546   7.325  0.3560 -2.1207  0.5313
  172SOPE   C3419495   1.150   2.646   7.261  0.8416  0.0059 -0.2100
  172SOPE   H4X19496   1.120   2.744   7.303 -0.0040  0.7151 -2.3561
  172SOPE   H4Y19497   1.200   2.664   7.164  0.9062  3.8600  0.3994
  172SOPE   C3519498   1.230   2.567   7.369  0.8499  0.5727  0.0496
  172SOPE   H5X19499   1.330   2.609   7.351  0.0711  2.5760  0.1784
  172SOPE   H5Y19500   1.232   2.461   7.337  0.1157  0.7964 -0.7729
  172SOPE   C3619501   1.199   2.584   7.517  0.6707  0.5505  0.0706
  172SOPE   H6X19502   1.095   2.556   7.543  0.7083  0.6185  0.3014
  172SOPE   H6Y19503   1.193   2.694   7.535  0.3999  0.9457 -2.1315
  172SOPE   C3719504   1.286   2.517   7.620 -0.3880 -0.2362 -0.5749
  172SOPE   H7X19505   1.390   2.524   7.583  0.6371 -2.7582  1.5218
  172SOPE   H7Y19506   1.265   2.409   7.633  1.8297 -0.3801  3.7709
  172SOPE   C3819507   1.277   2.567   7.761 -0.1397  0.1386 -0.3370
  172SOPE   H8X19508   1.265   2.677   7.771  0.1551  0.2776 -1.3536
  172SOPE   H8Y19509   1.361   2.536   7.827  0.0480  0.2427 -0.5261
  172SOPE   C3919510   1.146   2.504   7.822 -0.0701 -0.5911  0.5471
  172SOPE   H9X19511   1.137   2.398   7.792  1.1421 -0.0239 -2.1686
  172SOPE   H9Y19512   1.060   2.549   7.769  0.9645  1.3083  0.3842
  172SOPE  C31019513   1.141   2.521   7.972 -0.2141 -0.2869  0.6889
  172SOPE  H10X19514   1.226   2.462   8.012  1.4947  1.5039 -0.1485
  172SOPE  H10Y19515   1.049   2.478   8.018  0.4142 -2.0971  0.3318
  172SOPE  C31119516   1.154   2.661   8.025  0.2309  0.0723 -0.5594
  172SOPE  H11X19517   1.084   2.719   7.961  0.2114 -1.5229 -2.0890
  172SOPE  H11Y19518   1.255   2.701   8.005  1.1652 -0.7772  2.1402
  172SOPE  C31219519   1.149   2.660   8.175  0.0394 -0.4073 -0.4176
  172SOPE  H12X19520   1.247   2.621   8.209  1.0508  0.0763 -2.5851
  172SOPE  H12Y19521   1.074   2.582   8.196  0.0765 -0.9418 -2.0995
  172SOPE  C31319522   1.102   2.796   8.234  0.1966  0.0475 -0.1993
  172SOPE  H13X19523   0.999   2.821   8.201  0.3722  2.8380  1.0865
  172SOPE  H13Y19524   1.163   2.880   8.196 -2.2422  1.6483 -0.8048
  172SOPE  C31419525   1.116   2.799   8.392  0.1366 -0.0996  0.7156
  172SOPE  H14X19526   1.053   2.718   8.433  0.2175 -1.5220 -1.7818
  172SOPE  H14Y19527   1.060   2.890   8.421 -0.3615  0.0698 -0.6797
  172SOPE  C31519528   1.267   2.805   8.436  0.1840  0.1998 -0.2532
  172SOPE  H15X19529   1.328   2.732   8.378  0.9795 -0.7986  1.7372
  172SOPE  H15Y19530   1.280   2.753   8.533  0.0422 -1.4128 -1.0607
  172SOPE  C31619531   1.332   2.942   8.434 -0.4485 -0.2069 -0.3164
  172SOPE  H16X19532   1.259   3.025   8.442  0.1450  0.4826 -1.7465
  172SOPE  H16Y19533   1.383   2.963   8.338 -0.2301 -1.3179 -0.4609
  172SOPE  C31719534   1.443   2.953   8.545  0.0940  0.1349  0.4864
  172SOPE  H17X19535   1.515   2.876   8.511 -1.1286 -0.3941 -0.9907
  172SOPE  H17Y19536   1.403   2.914   8.641 -0.7045 -0.4417 -0.0638
  172SOPE  C31819537   1.501   3.089   8.562 -0.4418  0.5359  0.0192
  172SOPE  H18X19538   1.505   3.149   8.469  0.0387  1.2794  0.5101
  172SOPE  H18Y19539   1.601   3.096   8.610  0.0219 -0.2527 -0.8267
  172SOPE  H18Z19540   1.417   3.139   8.616 -0.0641  1.3568 -0.1315
  173SAPI   C1219541   1.356   2.392  10.752 -0.6148  0.1529 -0.1056
  173SAPI    H219542   1.358   2.468  10.672  3.4612 -0.4714 -0.8042
  173SAPI    O219543   1.355   2.260  10.696 -0.0898  0.3304 -0.5488
  173SAPI   HO219544   1.266   2.227  10.711  0.3922 -1.0313 -0.5105
  173SAPI   C1319545   1.483   2.424  10.833  0.2978 -0.4705 -0.2422
  173SAPI    H319546   1.488   2.527  10.874  0.6152 -0.2607 -0.7961
  173SAPI    O319547   1.588   2.412  10.732 -0.1336 -0.1215 -0.8869
  173SAPI   HO319548   1.610   2.319  10.726  0.1190 -0.1904  0.7293
  173SAPI   C1419549   1.503   2.332  10.954 -0.1428 -0.2299  0.0200
  173SAPI    H419550   1.505   2.225  10.924 -0.0076  0.0757 -1.1049
  173SAPI    O419551   1.636   2.356  11.009 -0.0999  0.0527  0.0420
  173SAPI   HO419552   1.649   2.450  11.026  1.0817 -0.3207  1.3874
  173SAPI   C1519553   1.388   2.356  11.056 -0.6433  0.0536  0.6180
  173SAPI    H519554   1.395   2.464  11.082 -4.2906  0.4359  0.5971
  173SAPI    O519555   1.396   2.274  11.170  0.3190  0.0266 -0.0009
  173SAPI   HO519556   1.389   2.185  11.134 -0.5091 -0.5533  1.4747
  173SAPI   C1619557   1.256   2.338  10.976 -0.2578  0.0119  0.1991
  173SAPI    H619558   1.237   2.230  10.960  2.0546 -0.3202 -0.6944
  173SAPI    O619559   1.144   2.375  11.062  0.3239  0.5111  0.2057
  173SAPI   HO619560   1.153   2.468  11.084  2.0985  1.0616 -2.3972
  173SAPI   C1119561   1.246   2.421  10.842 -0.1261  0.0557 -0.6807
  173SAPI    H119562   1.255   2.527  10.875  0.8123  0.2676 -1.5601
  173SAPI     P19563   1.051   2.512  10.687 -0.0119  0.1492 -0.1602
  173SAPI   O1319564   1.111   2.642  10.741  1.1723  0.5446  0.5115
  173SAPI   O1419565   0.907   2.495  10.666  0.4062  0.2595  0.2769
  173SAPI   O1219566   1.116   2.397  10.785  0.2687  0.0005 -0.2629
  173SAPI   O1119567   1.120   2.493  10.544  0.5497 -0.1673 -0.0588
  173SAPI    C119568   1.123   2.360  10.482  0.1501  0.4848 -0.0659
  173SAPI    HA19569   1.229   2.328  10.478 -0.6948 -2.6076 -0.3359
  173SAPI    HB19570   1.058   2.285  10.532  0.4256 -1.1984 -2.1096
  173SAPI    C219571   1.067   2.366  10.333  0.8267 -0.0811  0.4875
  173SAPI    HS19572   1.046   2.263  10.299  0.8116  0.3326 -0.8223
  173SAPI   O2119573   1.168   2.425  10.246  0.1992 -0.1659 -0.0679
  173SAPI   C2119574   1.266   2.360  10.193  0.3440  0.0404  0.5417
  173SAPI   O2219575   1.282   2.243  10.207 -0.0390 -0.4337  0.0550
  173SAPI   C2219576   1.352   2.458  10.104 -0.4971 -0.2788  0.5472
  173SAPI   H2R19577   1.282   2.544  10.091 -1.4697 -1.1276 -0.0860
  173SAPI   H2S19578   1.447   2.483  10.155 -0.4316 -1.2548  0.9390
  173SAPI    C319579   0.935   2.436  10.335 -0.3218 -0.1068 -0.4530
  173SAPI    HX19580   0.952   2.545  10.346  0.6403 -0.1364 -1.4814
  173SAPI    HY19581   0.878   2.406  10.426 -0.4421  1.3098 -0.0416
  173SAPI   O3119582   0.870   2.416  10.210  0.2374  0.5607 -0.1131
  173SAPI   C3119583   0.745   2.380  10.214 -0.4572 -0.2554 -0.7489
  173SAPI   O3219584   0.680   2.353  10.314  0.2336 -0.3632  0.1961
  173SAPI   C3219585   0.682   2.364  10.074 -0.7499 -0.2051  0.1336
  173SAPI   H2X19586   0.608   2.446  10.067  1.0479  1.7107  1.7738
  173SAPI   H2Y19587   0.627   2.268  10.071 -1.9497  0.4434  0.6785
  173SAPI   C2319588   1.406   2.386   9.970 -0.0549  0.1024 -0.2554
  173SAPI   H3R19589   1.428   2.278   9.987 -0.9825  0.2564  2.3159
  173SAPI   H3S19590   1.507   2.425   9.944 -0.0361 -0.8721 -1.7925
  173SAPI   C2419591   1.308   2.401   9.856  0.7442 -0.2214  0.6431
  173SAPI   H4R19592   1.203   2.369   9.873  0.5032  0.5938  0.7572
  173SAPI   H4S19593   1.340   2.337   9.771 -0.7882 -0.4322  0.1967
  173SAPI   C2519594   1.314   2.543   9.802  0.4778 -0.0125 -0.0246
  173SAPI   H5R19595   1.259   2.617   9.862 -1.7045 -1.0251 -0.6786
  173SAPI   C2619596   1.393   2.585   9.702 -0.5082 -0.1645  0.7187
  173SAPI   H6R19597   1.377   2.685   9.659 -1.8209 -0.4399  0.5133
  173SAPI   C2719598   1.496   2.506   9.623  0.0309  0.6514  0.0153
  173SAPI   H7R19599   1.449   2.441   9.547  0.2003 -0.0518  0.5052
  173SAPI   H7S19600   1.533   2.423   9.687 -1.0260 -0.0052 -0.2169
  173SAPI   C2819601   1.621   2.576   9.575 -0.2121 -0.6343 -0.9092
  173SAPI   H8R19602   1.678   2.621   9.657 -2.1891 -2.2912  1.5618
  173SAPI   C2919603   1.676   2.582   9.449  0.8215 -0.3237 -0.1201
  173SAPI   H9R19604   1.779   2.619   9.443  1.0998 -0.2934  3.0475
  173SAPI  C21019605   1.616   2.516   9.327 -0.7566  0.8756 -0.1656
  173SAPI  H10R19606   1.558   2.425   9.356  0.5789 -0.1192 -0.5252
  173SAPI  H10S19607   1.707   2.492   9.268  0.1816 -1.0678  1.9045
  173SAPI  C21119608   1.527   2.618   9.259 -0.1631  0.4421 -0.2700
  173SAPI  H11R19609   1.474   2.686   9.328  1.1731 -0.2054  1.4739
  173SAPI  C21219610   1.516   2.640   9.127 -0.5729  0.3943  0.6098
  173SAPI  H12R19611   1.455   2.724   9.090 -1.9352 -0.7332  0.1946
  173SAPI  C21319612   1.573   2.553   9.014 -0.2076 -0.5840 -0.2848
  173SAPI  H13R19613   1.486   2.488   8.992 -1.0457 -0.1188  1.4417
  173SAPI  H13S19614   1.658   2.487   9.042  0.1772  0.0695  0.1248
  173SAPI  C21419615   1.606   2.627   8.885 -0.0335  0.2519 -0.5210
  173SAPI  H14R19616   1.689   2.695   8.908  1.0636 -1.1614 -0.2105
  173SAPI  C21519617   1.547   2.610   8.764  0.0062  0.3016 -0.2382
  173SAPI  H15R19618   1.594   2.654   8.675  0.5146 -1.1716 -0.7295
  173SAPI  C21619619   1.446   2.510   8.724  0.1371 -0.2791 -0.4176
  173SAPI  H16R19620   1.388   2.543   8.636 -1.3731  0.7926  0.9220
  173SAPI  H16S19621   1.379   2.488   8.810  0.9990  0.3069  0.4146
  173SAPI  C21719622   1.507   2.380   8.686  0.6794  0.5813  0.2220
  173SAPI  H17R19623   1.558   2.342   8.776 -0.7680  1.3051  1.3902
  173SAPI  H17S19624   1.569   2.399   8.595 -1.1704  0.6421 -1.1056
  173SAPI  C21819625   1.405   2.271   8.655 -0.4588 -0.5780  0.2804
  173SAPI  H18R19626   1.367   2.268   8.551  0.2921 -1.8110  0.0207
  173SAPI  H18S19627   1.318   2.296   8.718 -1.0913 -0.1029 -0.7518
  173SAPI  C21919628   1.440   2.130   8.703  0.5658 -0.4182  0.0831
  173SAPI  H19R19629   1.345   2.074   8.708 -0.2525  0.9860  4.2489
  173SAPI  H19S19630   1.492   2.146   8.801  0.6181 -0.3346  0.0423
  173SAPI  C22019631   1.537   2.039   8.627 -0.5804 -0.2114 -0.2459
  173SAPI  H20R19632   1.564   1.950   8.688  1.0427 -1.1461 -2.2403
  173SAPI  H20S19633   1.626   2.094   8.590 -2.0609  2.0489 -0.6787
  173SAPI  H20T19634   1.493   2.016   8.528 -0.9322 -0.0045 -0.1383
  173SAPI   C3319635   0.778   2.363   9.951  0.0662 -0.6139 -0.0797
  173SAPI   H3X19636   0.850   2.447   9.961  0.7562 -1.2459  0.3380
  173SAPI   H3Y19637   0.716   2.374   9.860 -0.0189 -1.3928 -0.1260
  173SAPI   C3419638   0.853   2.225   9.935  0.5087  0.0679  0.0931
  173SAPI   H4X19639   0.877   2.188  10.037  4.1151  1.0765 -0.2514
  173SAPI   H4Y19640   0.946   2.249   9.879  1.1375 -1.1745  0.5591
  173SAPI   C3519641   0.764   2.123   9.868 -0.2312  0.2110  0.5373
  173SAPI   H5X19642   0.671   2.112   9.928 -0.9215 -0.6794 -0.6446
  173SAPI   H5Y19643   0.805   2.020   9.875 -1.5708 -0.4053 -0.2233
  173SAPI   C3619644   0.716   2.148   9.723 -1.1995 -0.4228  0.1055
  173SAPI   H6X19645   0.728   2.256   9.703 -0.0524 -0.0535  2.5209
  173SAPI   H6Y19646   0.613   2.106   9.711 -0.0080 -3.1702 -1.7284
  173SAPI   C3719647   0.794   2.083   9.615  0.3639  0.8323 -0.4349
  173SAPI   H7X19648   0.785   1.973   9.627  1.0105  0.8507  0.2610
  173SAPI   H7Y19649   0.902   2.100   9.636  0.4083  0.1404 -0.0666
  173SAPI   C3819650   0.744   2.120   9.479  0.3089 -0.5714  0.1473
  173SAPI   H8X19651   0.807   2.200   9.434  1.2359 -1.8766 -0.9844
  173SAPI   H8Y19652   0.644   2.165   9.494  1.4878  1.8353  1.4554
  173SAPI   C3919653   0.734   2.016   9.376  0.7369 -0.3177 -0.2977
  173SAPI   H9X19654   0.659   1.940   9.407  1.3829 -0.1389  1.8681
  173SAPI   H9Y19655   0.835   1.974   9.358 -0.2741 -2.3094 -1.7565
  173SAPI  C31019656   0.695   2.073   9.237  0.6302 -0.2206 -0.0638
  173SAPI  H10X19657   0.770   2.149   9.206 -2.6527  3.9897  1.2541
  173SAPI  H10Y19658   0.596   2.124   9.241  0.6171 -0.3020  0.6100
  173SAPI  C31119659   0.681   1.958   9.139  0.6852  0.5670  0.2318
  173SAPI  H11X19660   0.627   1.988   9.047 -2.1447 -0.2119  1.5487
  173SAPI  H11Y19661   0.617   1.880   9.186  0.7883  1.4446  1.8935
  173SAPI  C31219662   0.816   1.899   9.094 -0.6031 -0.5003 -0.1080
  173SAPI  H12X19663   0.786   1.812   9.030 -1.4552 -1.9400  2.1375
  173SAPI  H12Y19664   0.880   1.865   9.178 -0.2212 -0.7565 -0.4988
  173SAPI  C31319665   0.899   1.993   9.001  0.6435  0.2861 -0.6996
  173SAPI  H13X19666   0.995   1.940   8.981  0.5461 -0.0265 -0.3569
  173SAPI  H13Y19667   0.929   2.083   9.059  0.0798  0.2323 -0.3181
  173SAPI  C31419668   0.826   2.034   8.872  0.2085  0.8869  0.4823
  173SAPI  H14X19669   0.795   2.141   8.877 -1.0785  0.6267 -1.1288
  173SAPI  H14Y19670   0.732   1.976   8.862  1.2235 -0.5820 -1.0869
  173SAPI  C31519671   0.924   2.020   8.755 -0.1417 -0.8581 -0.0776
  173SAPI  H15X19672   1.023   2.060   8.785 -0.6919  1.2467 -0.8715
  173SAPI  H15Y19673   0.899   2.092   8.674 -1.8542  0.0897  1.2056
  173SAPI  C31619674   0.944   1.872   8.704  0.5989  0.0171 -1.1019
  173SAPI  H16X19675   0.841   1.838   8.680 -0.1578  1.2665  0.2090
  173SAPI  H16Y19676   0.991   1.811   8.784  1.8346  3.0088  0.6485
  173SAPI  C31719677   1.035   1.851   8.579  0.1576 -0.9803  0.9779
  173SAPI  H17X19678   1.073   1.747   8.565 -1.1043 -1.0792 -2.8741
  173SAPI  H17Y19679   1.129   1.907   8.597 -0.0680  0.8530 -2.6244
  173SAPI  C31819680   0.971   1.888   8.438  0.4440  0.3532  0.3017
  173SAPI  H18X19681   0.942   1.995   8.432  1.0251  0.4909 -0.1519
  173SAPI  H18Y19682   0.881   1.823   8.426  0.2798  0.5805  0.2933
  173SAPI  H18Z19683   1.059   1.877   8.371 -0.8553 -0.7352 -1.3199
  174SAPI   C1219684   5.398   2.947  11.061  0.3732  0.2055  0.0041
  174SAPI    H219685   5.406   2.922  10.953 -1.0397 -1.3399  0.2237
  174SAPI    O219686   5.281   2.872  11.096  0.0382  0.1802 -0.1857
  174SAPI   HO219687   5.249   2.837  11.012  3.3113  0.5517 -1.7404
  174SAPI   C1319688   5.512   2.909  11.148  0.4038  0.0422 -0.3039
  174SAPI    H319689   5.600   2.967  11.113  0.3506 -0.1569 -0.7717
  174SAPI    O319690   5.548   2.768  11.151  0.8309 -0.1147 -0.0233
  174SAPI   HO319691   5.603   2.735  11.080 -0.4686 -2.7227  0.0752
  174SAPI   C1419692   5.481   2.959  11.290  0.0114  0.3100 -0.6050
  174SAPI    H419693   5.391   2.905  11.325 -1.4499  2.8119 -0.2622
  174SAPI    O419694   5.583   2.928  11.383 -0.2670 -0.2421  0.1491
  174SAPI   HO419695   5.548   2.878  11.457  1.2438  0.1139  1.1305
  174SAPI   C1519696   5.446   3.101  11.297 -0.2655 -1.4749 -0.0926
  174SAPI    H519697   5.541   3.148  11.264  0.4641 -0.6133  2.8832
  174SAPI    O519698   5.427   3.145  11.430 -0.0848  0.1615 -0.0333
  174SAPI   HO519699   5.506   3.114  11.476 -0.5934 -0.9374  0.1441
  174SAPI   C1619700   5.335   3.144  11.207  0.0347  0.0826 -0.3781
  174SAPI    H619701   5.238   3.093  11.224  0.1828 -0.2961 -0.6639
  174SAPI    O619702   5.314   3.281  11.218  0.1652 -0.9739  0.4231
  174SAPI   HO619703   5.400   3.322  11.204 -0.6723  0.2845 -1.5914
  174SAPI   C1119704   5.375   3.097  11.066  0.2330 -0.2991  0.0629
  174SAPI    H119705   5.470   3.152  11.048 -0.2244  0.1572 -1.0427
  174SAPI     P19706   5.330   3.225  10.836  0.3262  0.3114 -0.1284
  174SAPI   O1319707   5.452   3.299  10.874 -0.1957  0.7486 -0.0197
  174SAPI   O1419708   5.217   3.312  10.787  0.8256 -0.5222 -0.0891
  174SAPI   O1219709   5.280   3.132  10.963  0.0479 -0.6805 -0.3662
  174SAPI   O1119710   5.356   3.115  10.727 -0.6758  0.1703 -0.4793
  174SAPI    C119711   5.249   3.022  10.689 -0.0647 -0.1271  0.0668
  174SAPI    HA19712   5.271   2.931  10.749  0.6893  0.8416  1.3338
  174SAPI    HB19713   5.150   3.065  10.716  0.3430  1.2400 -0.5095
  174SAPI    C219714   5.250   3.010  10.531 -0.3122  0.3479  0.1001
  174SAPI    HS19715   5.353   2.974  10.509 -0.7290  0.4053 -2.1834
  174SAPI   O2119716   5.221   3.134  10.467 -1.0173 -0.3855 -0.8030
  174SAPI   C2119717   5.303   3.148  10.361 -0.6511  0.4015 -0.7403
  174SAPI   O2219718   5.382   3.064  10.320  0.2582 -0.5628  0.0428
  174SAPI   C2219719   5.286   3.286  10.307  0.1837 -1.0621 -0.1625
  174SAPI   H2R19720   5.186   3.330  10.325  0.4953 -0.4619  0.1593
  174SAPI   H2S19721   5.361   3.339  10.370 -1.3017 -0.2270  0.9521
  174SAPI    C319722   5.148   2.892  10.499 -1.2079 -0.2912  0.3291
  174SAPI    HX19723   5.050   2.927  10.537 -0.7259  0.8352  0.5782
  174SAPI    HY19724   5.183   2.807  10.562 -4.7074 -1.5650  0.7826
  174SAPI   O3119725   5.158   2.861  10.359 -0.4743 -0.5939  0.0931
  174SAPI   C3119726   5.107   2.754  10.327 -0.3341 -0.3691 -0.4012
  174SAPI   O3219727   5.033   2.689  10.403 -0.8301 -0.1719 -0.7745
  174SAPI   C3219728   5.147   2.712  10.191 -0.2976  0.3133  0.1332
  174SAPI   H2X19729   5.240   2.659  10.219 -0.8030  0.3992  2.1462
  174SAPI   H2Y19730   5.162   2.805  10.132 -0.5919 -0.4658 -1.1986
  174SAPI   C2319731   5.324   3.295  10.151  0.2768 -0.7703 -0.9482
  174SAPI   H3R19732   5.245   3.234  10.102 -0.1295 -1.0591  0.0462
  174SAPI   H3S19733   5.426   3.258  10.127 -0.3085 -2.1805 -1.3521
  174SAPI   C2419734   5.307   3.436  10.103 -0.6167 -0.1082 -0.2283
  174SAPI   H4R19735   5.353   3.500  10.181 -1.0543  0.5296 -0.4804
  174SAPI   H4S19736   5.198   3.456  10.108 -0.4562  0.9862 -0.7260
  174SAPI   C2519737   5.373   3.464   9.970  0.3221 -0.0810 -0.4580
  174SAPI   H5R19738   5.477   3.431   9.979 -0.4328 -2.1756  1.7186
  174SAPI   C2619739   5.314   3.498   9.857  0.4232 -0.0681  0.1683
  174SAPI   H6R19740   5.371   3.520   9.766  0.2897  2.4030  0.6174
  174SAPI   C2719741   5.165   3.517   9.846 -0.2634  0.5130  0.3998
  174SAPI   H7R19742   5.109   3.501   9.941  0.0293  0.0404  0.4980
  174SAPI   H7S19743   5.116   3.441   9.782 -0.4117 -0.8404  2.0416
  174SAPI   C2819744   5.131   3.651   9.811  0.8599 -0.7317  0.1062
  174SAPI   H8R19745   5.077   3.704   9.891  1.9586  0.8859 -0.1688
  174SAPI   C2919746   5.145   3.715   9.695 -0.5147 -0.6084  0.3659
  174SAPI   H9R19747   5.113   3.820   9.697 -0.7827 -0.6751  2.3073
  174SAPI  C21019748   5.197   3.674   9.561  0.3299  0.5773 -0.3355
  174SAPI  H10R19749   5.233   3.569   9.568 -1.2914 -0.0055 -0.2938
  174SAPI  H10S19750   5.291   3.728   9.539  0.8570  0.8897  2.3656
  174SAPI  C21119751   5.089   3.685   9.452  0.1113  0.6150 -0.7084
  174SAPI  H11R19752   5.031   3.596   9.422  1.1196 -0.5242  0.5651
  174SAPI  C21219753   5.070   3.793   9.385  0.2885 -0.2114 -0.0193
  174SAPI  H12R19754   4.995   3.795   9.304 -0.4068 -1.4960  0.5692
  174SAPI  C21319755   5.159   3.921   9.414  1.0080  0.8218  0.2433
  174SAPI  H13R19756   5.260   3.911   9.371  1.1642  1.2299  0.5089
  174SAPI  H13S19757   5.182   3.932   9.522 -1.2746 -0.4315  0.9206
  174SAPI  C21419758   5.096   4.053   9.354  0.5476  0.7166 -0.4067
  174SAPI  H14R19759   5.031   4.115   9.417  1.7566  2.0910 -0.4531
  174SAPI  C21519760   5.122   4.110   9.238 -0.0051  0.9836  0.3773
  174SAPI  H15R19761   5.073   4.206   9.214  0.8783  1.2102 -0.5473
  174SAPI  C21619762   5.215   4.073   9.124 -0.6162 -1.0185 -0.3855
  174SAPI  H16R19763   5.281   3.986   9.144  0.9827  0.1289 -0.4568
  174SAPI  H16S19764   5.277   4.163   9.100 -1.3462 -0.6433 -0.8808
  174SAPI  C21719765   5.147   4.036   8.993  1.0014  0.1467 -0.6382
  174SAPI  H17R19766   5.228   4.011   8.921  0.4407  3.2219 -2.5156
  174SAPI  H17S19767   5.090   4.124   8.959 -0.8693 -0.8477 -0.1892
  174SAPI  C21819768   5.048   3.916   9.003 -0.3527  0.4678 -0.4950
  174SAPI  H18R19769   4.978   3.934   8.919 -1.8153  0.7938  0.7469
  174SAPI  H18S19770   4.985   3.927   9.094 -1.2234 -1.0121 -0.8788
  174SAPI  C21919771   5.117   3.779   9.000 -0.0474  0.0068  0.1895
  174SAPI  H19R19772   5.178   3.771   9.093 -2.1475  2.5545  1.9581
  174SAPI  H19S19773   5.195   3.775   8.922 -2.0369  1.6244 -2.0187
  174SAPI  C22019774   5.028   3.664   8.967 -0.0381  0.3152  0.1493
  174SAPI  H20R19775   4.976   3.697   8.875 -0.4576  0.8588  0.5763
  174SAPI  H20S19776   4.954   3.642   9.047 -2.8457 -1.2390 -2.6608
  174SAPI  H20T19777   5.087   3.570   8.957 -1.5882 -0.7496  0.5352
  174SAPI   C3319778   5.047   2.616  10.123  0.3609 -0.0852 -0.4649
  174SAPI   H3X19779   4.948   2.665  10.123  0.3934  0.3981  4.1626
  174SAPI   H3Y19780   5.045   2.519  10.178  1.8560 -0.5774 -1.2149
  174SAPI   C3419781   5.093   2.599   9.979  0.9205  0.2107  0.2356
  174SAPI   H4X19782   5.198   2.560   9.978  0.4438 -1.2230  1.7823
  174SAPI   H4Y19783   5.102   2.694   9.921  0.3397 -0.9714 -1.8726
  174SAPI   C3519784   5.010   2.492   9.898 -0.4260 -0.1449 -0.2369
  174SAPI   H5X19785   4.905   2.525   9.886 -0.2010  0.0711 -1.8493
  174SAPI   H5Y19786   5.012   2.390   9.942  2.0340 -0.0971 -0.1153
  174SAPI   C3619787   5.048   2.496   9.752 -0.4202 -0.1421 -0.1619
  174SAPI   H6X19788   4.975   2.435   9.695  0.4244 -0.1039 -1.3203
  174SAPI   H6Y19789   5.149   2.455   9.732  0.1248  0.8392  0.4523
  174SAPI   C3719790   5.043   2.632   9.686 -0.1320 -0.4037  0.1465
  174SAPI   H7X19791   5.132   2.695   9.708  1.3027 -1.5265 -2.0241
  174SAPI   H7Y19792   4.951   2.679   9.725 -0.0054 -1.0260  1.2505
  174SAPI   C3819793   5.032   2.634   9.533  0.2352 -0.7772  0.1790
  174SAPI   H8X19794   4.930   2.601   9.508 -0.0741  1.1692 -1.3402
  174SAPI   H8Y19795   5.106   2.565   9.488 -0.8876 -1.2514 -0.9837
  174SAPI   C3919796   5.039   2.776   9.482  0.4391  0.3420  0.3289
  174SAPI   H9X19797   5.137   2.820   9.509 -0.1372  2.3207 -0.6723
  174SAPI   H9Y19798   4.957   2.832   9.531 -1.1644 -0.5130 -1.2381
  174SAPI  C31019799   5.034   2.767   9.327 -0.2692 -0.4025 -0.5511
  174SAPI  H10X19800   5.061   2.863   9.277  0.4376 -0.4179 -0.2061
  174SAPI  H10Y19801   4.927   2.753   9.300 -0.2922 -0.7632 -0.2850
  174SAPI  C31119802   5.124   2.661   9.253 -0.1053 -0.0948 -0.1188
  174SAPI  H11X19803   5.101   2.562   9.298  1.3724 -0.2491  0.3664
  174SAPI  H11Y19804   5.233   2.665   9.273 -0.5101  2.7484  2.0924
  174SAPI  C31219805   5.088   2.649   9.104  0.2073  0.4534 -0.3484
  174SAPI  H12X19806   4.977   2.648   9.092  0.3392 -2.2045 -2.2002
  174SAPI  H12Y19807   5.134   2.558   9.059 -0.1201  0.1900 -0.1525
  174SAPI  C31319808   5.141   2.764   9.024  0.3237  0.0578  0.7770
  174SAPI  H13X19809   5.230   2.810   9.072  0.8909 -0.1612 -0.0386
  174SAPI  H13Y19810   5.061   2.842   9.018 -1.3306 -1.6141  0.1676
  174SAPI  C31419811   5.178   2.719   8.882 -0.6576  0.0837 -0.3828
  174SAPI  H14X19812   5.091   2.671   8.832  0.8547 -2.0934 -1.0761
  174SAPI  H14Y19813   5.257   2.640   8.885 -1.1307 -0.3720  1.7393
  174SAPI  C31519814   5.208   2.840   8.793 -0.0804  0.3756  0.9319
  174SAPI  H15X19815   5.159   2.936   8.817 -0.3365  0.2399  0.9524
  174SAPI  H15Y19816   5.174   2.817   8.690 -0.4380  0.0995  1.1128
  174SAPI  C31619817   5.364   2.874   8.779 -0.1425 -0.0998 -0.5941
  174SAPI  H16X19818   5.423   2.780   8.783 -0.1487 -0.1111 -0.7458
  174SAPI  H16Y19819   5.377   2.930   8.874 -1.6930  0.9556 -0.9719
  174SAPI  C31719820   5.398   2.955   8.652  0.6009 -0.1838 -0.3357
  174SAPI  H17X19821   5.354   3.056   8.661 -0.2525 -0.7239  2.6838
  174SAPI  H17Y19822   5.346   2.904   8.568 -2.5637 -0.9166  1.8538
  174SAPI  C31819823   5.543   2.981   8.623 -0.0529 -0.2539  0.4427
  174SAPI  H18X19824   5.616   2.898   8.624  1.8438  1.3232  0.6657
  174SAPI  H18Y19825   5.592   3.054   8.691 -0.3400 -0.6082  1.0397
  174SAPI  H18Z19826   5.535   3.017   8.518  0.6801 -0.7980  0.1927
  175SAPI   C1219827   0.578   5.980   6.567  0.3076 -0.2326 -0.7352
  175SAPI    H219828   0.518   6.074   6.568  1.2410  0.4009  1.2871
  175SAPI    O219829   0.679   6.002   6.473 -0.2830  0.5044 -0.4053
  175SAPI   HO219830   0.634   5.995   6.388  0.3419  0.0749 -0.7097
  175SAPI   C1319831   0.641   5.979   6.713 -0.1258 -0.9748 -0.2598
  175SAPI    H319832   0.554   5.968   6.781 -0.3111  2.7239  0.2938
  175SAPI    O319833   0.708   6.100   6.742 -0.3147  0.1159  0.0385
  175SAPI   HO319834   0.723   6.099   6.837  1.4573  0.4855 -0.2053
  175SAPI   C1419835   0.727   5.857   6.740 -1.2642 -0.5624 -0.3244
  175SAPI    H419836   0.818   5.867   6.677 -0.0809  1.7828  1.5708
  175SAPI    O419837   0.787   5.864   6.869  0.3436 -0.0091  0.1035
  175SAPI   HO419838   0.879   5.836   6.869  0.0115 -1.1562 -0.3747
  175SAPI   C1519839   0.645   5.728   6.728  0.2645  0.1719 -0.1394
  175SAPI    H519840   0.555   5.721   6.793  0.0140 -0.1881 -0.5151
  175SAPI    O519841   0.723   5.602   6.747  0.1376 -0.2031  0.0187
  175SAPI   HO519842   0.676   5.531   6.791 -0.1861  1.1075  1.9114
  175SAPI   C1619843   0.594   5.733   6.574 -0.3333 -0.4774 -0.3211
  175SAPI    H619844   0.679   5.741   6.504  0.0047  3.0717  0.3230
  175SAPI    O619845   0.531   5.610   6.546  0.7443  0.7862 -0.1335
  175SAPI   HO619846   0.470   5.594   6.619  1.0152 -1.0725 -0.2437
  175SAPI   C1119847   0.506   5.853   6.546  0.0965  0.4939  0.2438
  175SAPI    H119848   0.423   5.846   6.619 -0.9055 -1.9722 -0.9947
  175SAPI     P19849   0.312   5.944   6.390  0.2336  0.4119 -0.0857
  175SAPI   O1319850   0.309   5.982   6.246  0.2315 -0.2454 -0.2661
  175SAPI   O1419851   0.293   6.039   6.502  0.1979 -0.3653  0.0685
  175SAPI   O1219852   0.457   5.866   6.414 -0.3162  0.4030  0.0446
  175SAPI   O1119853   0.201   5.829   6.407 -0.0243 -0.1395  0.4752
  175SAPI    C119854   0.075   5.833   6.475  0.4097 -0.0080 -0.6328
  175SAPI    HA19855   0.038   5.937   6.489 -2.1164 -0.7679 -1.2041
  175SAPI    HB19856  -0.002   5.784   6.413 -0.6588 -0.4489  0.9888
  175SAPI    C219857   0.072   5.769   6.619 -0.1428 -0.8339 -0.1047
  175SAPI    HS19858  -0.033   5.774   6.656 -0.5057 -1.0809 -1.0780
  175SAPI   O2119859   0.165   5.844   6.699  0.1186 -0.0550 -0.3989
  175SAPI   C2119860   0.116   5.959   6.752  0.4295  0.7307  0.1095
  175SAPI   O2219861   0.002   6.000   6.734 -0.0569  0.7963  0.1727
  175SAPI   C2219862   0.226   6.033   6.820 -0.3516 -0.4383 -0.1319
  175SAPI   H2R19863   0.283   5.973   6.894 -0.5468  2.0275  2.1853
  175SAPI   H2S19864   0.297   6.053   6.737 -0.7283  1.3341 -0.0763
  175SAPI    C319865   0.105   5.615   6.622  0.4664  0.2204 -0.3690
  175SAPI    HX19866   0.200   5.604   6.565  0.6951 -1.5684  0.3155
  175SAPI    HY19867   0.009   5.576   6.581 -1.5219  2.6241  1.6162
  175SAPI   O3119868   0.120   5.568   6.760  0.4368 -0.4432  0.3390
  175SAPI   C3119869   0.246   5.565   6.802 -0.0193 -0.0475 -0.0957
  175SAPI   O3219870   0.348   5.575   6.735 -0.6442  0.0105 -0.1348
  175SAPI   C3219871   0.252   5.541   6.946  0.2187  0.4832 -0.0366
  175SAPI   H2X19872   0.300   5.442   6.962  1.1381  1.0665  1.0129
  175SAPI   H2Y19873   0.148   5.519   6.976 -0.4461 -0.2466 -2.6165
  175SAPI   C2319874   0.182   6.167   6.881  0.2134  0.0150 -0.2131
  175SAPI   H3R19875   0.126   6.220   6.800 -1.6032 -0.5155  0.6440
  175SAPI   H3S19876   0.276   6.216   6.914  1.2821 -2.1406  0.1489
  175SAPI   C2419877   0.097   6.161   7.007  0.0273  0.2266 -0.1866
  175SAPI   H4R19878   0.014   6.096   6.972  1.2386 -0.0633 -2.7637
  175SAPI   H4S19879   0.062   6.262   7.039  2.3430  0.6527  1.2543
  175SAPI   C2519880   0.180   6.112   7.126 -0.1400  0.6630 -0.0018
  175SAPI   H5R19881   0.277   6.161   7.141  0.2000  0.3703 -1.1084
  175SAPI   C2619882   0.150   6.008   7.203  0.0428  0.1606  0.1514
  175SAPI   H6R19883   0.215   6.004   7.292 -3.2065  2.3137  2.8575
  175SAPI   C2719884   0.033   5.921   7.200 -0.8954  0.3394 -0.6107
  175SAPI   H7R19885   0.031   5.858   7.108 -0.9010 -1.7227  0.7475
  175SAPI   H7S19886  -0.059   5.984   7.201  0.3866  2.2757 -0.4814
  175SAPI   C2819887   0.034   5.826   7.319  0.3011  0.3461 -0.6098
  175SAPI   H8R19888   0.061   5.722   7.295 -1.6879 -0.4603  0.3784
  175SAPI   C2919889  -0.012   5.850   7.443  1.2850 -0.2876 -0.2353
  175SAPI   H9R19890   0.003   5.771   7.519 -1.0898  1.2906  2.0313
  175SAPI  C21019891  -0.080   5.976   7.494  0.8127  0.7197  0.3635
  175SAPI  H10R19892  -0.117   6.042   7.413  2.1025  0.0605 -0.8184
  175SAPI  H10S19893   0.004   6.034   7.539  0.9514  0.5340  0.3498
  175SAPI  C21119894  -0.198   5.941   7.585  0.2903 -0.2326  0.4674
  175SAPI  H11R19895  -0.280   5.902   7.523 -0.3047 -0.0782  1.1437
  175SAPI  C21219896  -0.206   5.955   7.725  0.1225 -0.9757  0.6220
  175SAPI  H12R19897  -0.293   5.908   7.773 -0.7710  1.1381  1.1825
  175SAPI  C21319898  -0.105   6.006   7.813  0.1147 -0.2642  0.5699
  175SAPI  H13R19899  -0.140   6.096   7.867 -0.5545 -0.6169  0.7369
  175SAPI  H13S19900  -0.013   6.047   7.766  0.8769 -0.6384  1.6914
  175SAPI  C21419901  -0.067   5.906   7.920  0.0283 -0.5469 -0.8676
  175SAPI  H14R19902   0.032   5.859   7.907 -0.7736 -1.7445 -3.0653
  175SAPI  C21519903  -0.136   5.883   8.034 -0.1356  0.2621 -0.6780
  175SAPI  H15R19904  -0.106   5.812   8.112 -2.0234 -0.8635 -0.9312
  175SAPI  C21619905  -0.269   5.941   8.071  0.1689 -0.2981 -0.1891
  175SAPI  H16R19906  -0.334   5.977   7.988 -2.4506 -2.8786  0.5519
  175SAPI  H16S19907  -0.260   6.031   8.136 -1.0380  0.7362 -1.3905
  175SAPI  C21719908  -0.362   5.841   8.156 -0.5385 -0.5598 -0.2365
  175SAPI  H17R19909  -0.330   5.741   8.120  1.2392  0.0084 -0.3666
  175SAPI  H17S19910  -0.466   5.867   8.129 -0.0104  3.1837  0.7457
  175SAPI  C21819911  -0.343   5.861   8.305 -1.0656  0.1677 -0.6190
  175SAPI  H18R19912  -0.392   5.948   8.352  0.2233  0.3876  0.3933
  175SAPI  H18S19913  -0.234   5.877   8.321 -0.5581 -3.3659  0.2436
  175SAPI  C21919914  -0.395   5.735   8.385  0.6251 -0.4405 -0.2288
  175SAPI  H19R19915  -0.374   5.762   8.491  1.5042  2.4331 -1.0332
  175SAPI  H19S19916  -0.325   5.653   8.363  0.0758 -0.5207 -1.7664
  175SAPI  C22019917  -0.533   5.681   8.350 -0.2179 -0.0394  0.2818
  175SAPI  H20R19918  -0.556   5.584   8.398  0.2322 -0.3205 -0.0567
  175SAPI  H20S19919  -0.526   5.655   8.242  0.8971 -0.3302  0.4134
  175SAPI  H20T19920  -0.620   5.749   8.362 -0.3632  0.1033 -1.3233
  175SAPI   C3319921   0.322   5.655   7.019  0.0722 -0.7738 -0.4816
  175SAPI   H3X19922   0.276   5.755   7.002 -1.8459 -1.8841 -2.1745
  175SAPI   H3Y19923   0.425   5.660   6.976  0.8998  1.2172  1.4477
  175SAPI   C3419924   0.336   5.615   7.166 -1.2079 -0.0337 -0.0166
  175SAPI   H4X19925   0.345   5.506   7.186  0.2683  0.2483  1.0223
  175SAPI   H4Y19926   0.248   5.637   7.230  0.0818 -1.6300  2.5017
  175SAPI   C3519927   0.456   5.695   7.231  0.8385  0.5160  0.2834
  175SAPI   H5X19928   0.448   5.800   7.196 -0.6407  0.1745 -0.4744
  175SAPI   H5Y19929   0.550   5.655   7.189  0.6853 -0.4247  0.8027
  175SAPI   C3619930   0.476   5.695   7.390 -0.2041  0.2130 -0.5243
  175SAPI   H6X19931   0.580   5.729   7.409  0.3212  0.4686 -3.3909
  175SAPI   H6Y19932   0.466   5.590   7.425 -0.2297 -0.2356 -1.8180
  175SAPI   C3719933   0.380   5.789   7.467 -0.2967 -0.1754  0.0923
  175SAPI   H7X19934   0.278   5.747   7.458 -0.0137 -1.0981  1.0062
  175SAPI   H7Y19935   0.383   5.892   7.427 -1.9348  0.4980  1.5838
  175SAPI   C3819936   0.409   5.802   7.624  0.1451 -0.0771 -0.6509
  175SAPI   H8X19937   0.504   5.858   7.640 -0.6616  1.1977 -0.1417
  175SAPI   H8Y19938   0.420   5.699   7.665  1.3681 -0.5385 -2.0703
  175SAPI   C3919939   0.308   5.894   7.697 -0.0214 -0.2085 -0.3248
  175SAPI   H9X19940   0.208   5.851   7.675 -0.0731  1.2244 -3.3795
  175SAPI   H9Y19941   0.305   5.992   7.646 -1.4275 -0.8768 -1.6057
  175SAPI  C31019942   0.334   5.911   7.850 -0.2121  0.3020  0.5457
  175SAPI  H10X19943   0.239   5.958   7.884 -0.8138  0.2987 -1.0367
  175SAPI  H10Y19944   0.419   5.979   7.873 -0.6329  1.8271 -1.9863
  175SAPI  C31119945   0.348   5.777   7.925 -0.6915 -0.5550 -0.0856
  175SAPI  H11X19946   0.436   5.721   7.887 -1.6401 -1.6285 -0.7528
  175SAPI  H11Y19947   0.267   5.706   7.898 -0.1275 -1.6027  0.8949
  175SAPI  C31219948   0.365   5.790   8.080 -0.1080  0.4076 -0.0999
  175SAPI  H12X19949   0.375   5.693   8.132 -0.6669  0.5180  0.2309
  175SAPI  H12Y19950   0.266   5.830   8.110 -0.5438 -1.2883  0.8751
  175SAPI  C31319951   0.486   5.877   8.120  0.1430  0.6413 -0.0180
  175SAPI  H13X19952   0.477   5.981   8.085 -0.2522  0.7068  0.2740
  175SAPI  H13Y19953   0.576   5.827   8.077 -0.8277 -0.9983 -0.2546
  175SAPI  C31419954   0.500   5.885   8.270 -0.6434 -0.3702 -0.3405
  175SAPI  H14X19955   0.602   5.918   8.300 -0.2363  0.1295 -2.1384
  175SAPI  H14Y19956   0.498   5.779   8.304 -0.5567  0.1836  1.5003
  175SAPI  C31519957   0.387   5.959   8.342  0.3990  0.2535  0.3496
  175SAPI  H15X19958   0.299   5.895   8.318  0.3663  0.6659 -0.6970
  175SAPI  H15Y19959   0.365   6.052   8.284 -2.5444  0.1872  1.1888
  175SAPI  C31619960   0.400   5.974   8.494 -0.2975  0.1638 -0.3608
  175SAPI  H16X19961   0.495   6.024   8.521  0.7921 -0.8714 -2.0871
  175SAPI  H16Y19962   0.406   5.874   8.542  0.6426  0.7304  0.7469
  175SAPI  C31719963   0.286   6.056   8.560  0.0707 -0.3681 -0.8148
  175SAPI  H17X19964   0.191   6.001   8.546 -0.2920 -0.4275  1.5036
  175SAPI  H17Y19965   0.278   6.159   8.517  1.7594  0.4561  0.6985
  175SAPI  C31819966   0.300   6.084   8.710 -0.5604  0.3424  0.2985
  175SAPI  H18X19967   0.326   5.990   8.764 -0.6028  0.6304  0.8192
  175SAPI  H18Y19968   0.209   6.124   8.759 -0.5568  1.2860 -0.4512
  175SAPI  H18Z19969   0.376   6.161   8.734 -0.6649  1.0737 -1.5766
  176SAPI   C1219970   6.212   4.507   6.733 -0.2387 -1.0371  0.2758
  176SAPI    H219971   6.238   4.614   6.751 -3.3951  0.3295 -2.3945
  176SAPI    O219972   6.244   4.435   6.849 -0.3689  0.0525 -0.4367
  176SAPI   HO219973   6.190   4.479   6.916  2.3105  1.7035  0.7996
  176SAPI   C1319974   6.070   4.494   6.693  0.2901  0.0610 -0.3729
  176SAPI    H319975   6.052   4.556   6.603  1.2738 -0.1431 -0.7195
  176SAPI    O319976   5.985   4.548   6.797  0.1810 -0.1623 -0.6414
  176SAPI   HO319977   5.915   4.601   6.758  0.3440 -0.0115 -0.7283
  176SAPI   C1419978   6.041   4.346   6.658  1.0840 -0.9802 -0.9154
  176SAPI    H419979   6.045   4.287   6.752  3.0033  2.7629  1.6368
  176SAPI    O419980   5.906   4.343   6.614  0.6361 -0.2711 -0.0032
  176SAPI   HO419981   5.881   4.252   6.633 -1.0783  0.4122  1.1764
  176SAPI   C1519982   6.136   4.293   6.556  0.5307 -0.1462  0.3154
  176SAPI    H519983   6.123   4.351   6.462  0.3671 -2.2044 -0.9848
  176SAPI    O519984   6.114   4.155   6.523 -0.2388 -0.3708 -0.0565
  176SAPI   HO519985   6.137   4.108   6.604 -3.1171 -1.0779  0.4868
  176SAPI   C1619986   6.280   4.308   6.594 -0.1587  0.7421  0.7899
  176SAPI    H619987   6.297   4.247   6.685 -2.1858 -0.5011  0.3911
  176SAPI    O619988   6.366   4.256   6.496  1.0030 -0.1060 -0.3481
  176SAPI   HO619989   6.449   4.240   6.542 -0.9777  0.4154  3.8506
  176SAPI   C1119990   6.305   4.457   6.624 -0.0784 -0.0847  0.4317
  176SAPI    H119991   6.276   4.517   6.535  2.3237  0.2617 -0.1665
  176SAPI     P19992   6.560   4.517   6.550 -0.0924  0.1559  0.2166
  176SAPI   O1319993   6.635   4.632   6.593 -0.6984 -0.3169  0.2415
  176SAPI   O1419994   6.506   4.525   6.415 -0.1849  0.1187  0.4962
  176SAPI   O1219995   6.442   4.491   6.664  0.6368  0.0115 -0.1131
  176SAPI   O1119996   6.653   4.388   6.565  0.1847 -0.4019 -0.0649
  176SAPI    C119997   6.763   4.384   6.652 -0.1133 -0.2957  0.4110
  176SAPI    HA19998   6.858   4.402   6.597 -1.1399  0.3661 -1.1934
  176SAPI    HB19999   6.748   4.452   6.739 -1.6011 -1.3370  1.0038
  176SAPI    C220000   6.786   4.251   6.733  0.8958 -0.1129  0.0143
  176SAPI    HS20001   6.784   4.170   6.657 -0.8610  0.4136 -0.5295
  176SAPI   O2120002   6.685   4.230   6.833  0.1040  0.3360 -0.3401
  176SAPI   C2120003   6.581   4.162   6.797 -0.5054  0.3505  0.1307
  176SAPI   O2220004   6.556   4.125   6.684  0.7140 -0.6636 -0.1995
  176SAPI   C2220005   6.497   4.134   6.915  0.0049  0.0230 -0.5949
  176SAPI   H2R20006   6.504   4.224   6.981  0.2730 -0.5040  0.1186
  176SAPI   H2S20007   6.395   4.118   6.876 -0.3807  2.2964 -0.6913
  176SAPI    C320008   6.916   4.257   6.811  0.0474  0.4079  0.0559
  176SAPI    HX20009   6.902   4.333   6.891 -3.4734 -0.7995  0.7724
  176SAPI    HY20010   6.994   4.306   6.749  1.4710  1.0497  2.2457
  176SAPI   O3120011   6.952   4.120   6.852 -0.4690 -0.2297  0.6733
  176SAPI   C3120012   7.056   4.064   6.778  0.6765 -0.6035 -0.2734
  176SAPI   O3220013   7.121   4.126   6.700 -0.2632 -0.0051  0.2706
  176SAPI   C3220014   7.072   3.917   6.808  0.2370 -1.0607  0.3244
  176SAPI   H2X20015   7.149   3.871   6.743 -0.1687 -1.0360 -0.1756
  176SAPI   H2Y20016   6.985   3.860   6.769  0.3362 -0.2402 -1.1901
  176SAPI   C2320017   6.541   4.009   6.988  0.0931 -0.6998  0.4546
  176SAPI   H3R20018   6.554   3.921   6.922 -2.2231  0.5701 -1.8415
  176SAPI   H3S20019   6.453   3.989   7.053  0.3201  0.4061  1.1376
  176SAPI   C2420020   6.671   4.028   7.069 -0.1970  0.2095 -0.1533
  176SAPI   H4R20021   6.658   4.112   7.141 -1.9778  0.0266 -0.2025
  176SAPI   H4S20022   6.755   4.048   6.999  0.7572  1.2356  1.2256
  176SAPI   C2520023   6.708   3.898   7.142  0.7406 -0.6882  0.6357
  176SAPI   H5R20024   6.740   3.823   7.068 -1.5347 -0.9261 -0.1857
  176SAPI   C2620025   6.698   3.879   7.272 -0.1841  0.2916 -0.0387
  176SAPI   H6R20026   6.738   3.785   7.314  2.4317  0.9784 -0.8282
  176SAPI   C2720027   6.636   3.974   7.374 -0.2351 -0.3211 -0.6487
  176SAPI   H7R20028   6.595   4.070   7.337  0.8302 -0.0864 -1.2801
  176SAPI   H7S20029   6.722   4.013   7.433  0.9742 -0.7428 -2.0611
  176SAPI   C2820030   6.534   3.900   7.452 -0.0611  0.0789 -0.0065
  176SAPI   H8R20031   6.452   3.860   7.390  1.4291  0.4423 -2.3161
  176SAPI   C2920032   6.544   3.853   7.577 -0.4283 -0.3442  0.2908
  176SAPI   H9R20033   6.456   3.801   7.619  0.7833 -1.6586  1.3065
  176SAPI  C21020034   6.655   3.872   7.675 -0.3129  0.5027 -0.2777
  176SAPI  H10R20035   6.743   3.913   7.621 -0.0941  0.1852 -0.1673
  176SAPI  H10S20036   6.686   3.777   7.723 -0.3183  1.0623  0.8497
  176SAPI  C21120037   6.615   3.966   7.782  0.2535  1.4033 -0.1851
  176SAPI  H11R20038   6.589   4.066   7.745 -0.9889  0.4706 -1.9271
  176SAPI  C21220039   6.620   3.945   7.916  0.3120 -0.1210 -0.0174
  176SAPI  H12R20040   6.590   4.020   7.991 -2.1152 -2.2419  1.2914
  176SAPI  C21320041   6.663   3.816   7.983  0.6205  0.1381 -0.9252
  176SAPI  H13R20042   6.623   3.725   7.934 -0.2169 -0.1112  0.2048
  176SAPI  H13S20043   6.608   3.819   8.079 -1.2533 -0.2605 -1.9398
  176SAPI  C21420044   6.814   3.799   7.996  0.1408 -0.5141 -0.0508
  176SAPI  H14R20045   6.871   3.814   7.903  0.5502  0.8280  0.3877
  176SAPI  C21520046   6.882   3.760   8.104 -0.5895 -0.1638 -0.1013
  176SAPI  H15R20047   6.991   3.762   8.102 -0.5117 -0.5638  1.6057
  176SAPI  C21620048   6.821   3.728   8.240  0.2094  1.2736 -0.4867
  176SAPI  H16R20049   6.849   3.622   8.261 -0.8770  1.2790  1.1132
  176SAPI  H16S20050   6.711   3.715   8.243  0.2847  0.7713  0.3661
  176SAPI  C21720051   6.861   3.813   8.356  0.7331  0.1683 -0.0640
  176SAPI  H17R20052   6.800   3.781   8.443 -0.2702 -2.1547 -1.5144
  176SAPI  H17S20053   6.830   3.915   8.325 -1.9761 -0.7830 -0.7333
  176SAPI  C21820054   7.008   3.805   8.390  0.5249  0.6981 -0.8692
  176SAPI  H18R20055   7.033   3.885   8.462 -1.3436 -0.5438  1.2899
  176SAPI  H18S20056   7.069   3.820   8.298  1.7939 -2.9942 -0.8106
  176SAPI  C21920057   7.049   3.657   8.440  0.0989 -1.2268  0.5751
  176SAPI  H19R20058   7.028   3.586   8.357 -0.3545 -1.5081  0.9263
  176SAPI  H19S20059   6.974   3.640   8.520 -2.5988  1.1895 -1.2290
  176SAPI  C22020060   7.193   3.645   8.492 -1.0004  0.4282 -1.3433
  176SAPI  H20R20061   7.211   3.696   8.589 -1.9528  0.6445 -1.2655
  176SAPI  H20S20062   7.256   3.704   8.422  0.6297  0.2341 -0.1034
  176SAPI  H20T20063   7.219   3.538   8.502  1.2604  0.9320 -1.3289
  176SAPI   C3320064   7.084   3.898   6.955 -0.4984  0.0581 -0.1761
  176SAPI   H3X20065   7.085   3.787   6.965  4.4594 -0.2628 -1.1953
  176SAPI   H3Y20066   7.007   3.948   7.016 -0.5756  1.4617 -1.3636
  176SAPI   C3420067   7.218   3.947   7.006  0.0465  0.1224 -0.5732
  176SAPI   H4X20068   7.216   4.057   7.015  0.8378  0.3195 -2.3778
  176SAPI   H4Y20069   7.295   3.922   6.930  0.4830  0.1575 -0.1436
  176SAPI   C3520070   7.268   3.866   7.131  0.0784  0.5373  0.5767
  176SAPI   H5X20071   7.372   3.898   7.155  0.5130  0.4295 -1.0305
  176SAPI   H5Y20072   7.274   3.757   7.108  1.0810  1.0266 -1.7466
  176SAPI   C3620073   7.184   3.884   7.261  0.6098 -0.5417 -0.1644
  176SAPI   H6X20074   7.083   3.867   7.219  1.1498 -1.0108 -1.3263
  176SAPI   H6Y20075   7.194   3.989   7.296  1.8032 -1.0824  1.2097
  176SAPI   C3720076   7.210   3.776   7.366 -0.3525 -0.1778  0.1995
  176SAPI   H7X20077   7.294   3.808   7.430 -1.5640 -0.7210  2.1598
  176SAPI   H7Y20078   7.223   3.675   7.319  0.0251 -1.0560  2.1139
  176SAPI   C3820079   7.091   3.762   7.464 -0.3122 -0.0451 -0.1400
  176SAPI   H8X20080   7.001   3.737   7.404 -0.4649 -0.3866  0.2189
  176SAPI   H8Y20081   7.065   3.863   7.503 -2.5842 -0.0327 -1.5480
  176SAPI   C3920082   7.117   3.664   7.580 -0.9179 -0.0038 -0.1673
  176SAPI   H9X20083   7.146   3.565   7.537  1.7696 -0.4645  2.3599
  176SAPI   H9Y20084   7.022   3.649   7.635 -0.9236 -0.7152 -0.3495
  176SAPI  C31020085   7.228   3.707   7.674  0.1642 -0.1783  0.2035
  176SAPI  H10X20086   7.324   3.718   7.619  0.5709 -3.1489  0.1374
  176SAPI  H10Y20087   7.238   3.626   7.749 -1.3789 -1.2263 -0.6603
  176SAPI  C31120088   7.197   3.827   7.769 -0.1044  0.3104  0.4673
  176SAPI  H11X20089   7.092   3.822   7.805  0.5006 -0.2108  2.2659
  176SAPI  H11Y20090   7.190   3.918   7.705 -1.0225 -1.2577 -1.7972
  176SAPI  C31220091   7.284   3.841   7.891  0.5224  0.1669 -0.0627
  176SAPI  H12X20092   7.386   3.870   7.857  1.0045 -1.4931 -0.1333
  176SAPI  H12Y20093   7.289   3.750   7.955  0.9550  0.9628  1.0777
  176SAPI  C31320094   7.219   3.948   7.982 -0.4295 -0.6507 -0.5593
  176SAPI  H13X20095   7.116   3.926   8.019 -0.9531 -0.8957 -2.0698
  176SAPI  H13Y20096   7.215   4.048   7.933  0.2399 -0.3571 -0.0326
  176SAPI  C31420097   7.316   3.960   8.098  0.4087  0.1239 -0.4042
  176SAPI  H14X20098   7.414   3.973   8.047 -0.0977  4.7531 -0.6765
  176SAPI  H14Y20099   7.316   3.872   8.165 -0.3462  0.5210  0.1297
  176SAPI  C31520100   7.289   4.083   8.184 -0.5602  0.2470 -0.6062
  176SAPI  H15X20101   7.197   4.054   8.239 -0.1794 -0.1471 -0.1657
  176SAPI  H15Y20102   7.268   4.173   8.122 -1.5561  0.2098 -0.3297
  176SAPI  C31620103   7.389   4.093   8.304 -0.8115 -0.3027 -0.1214
  176SAPI  H16X20104   7.490   4.102   8.257 -0.3042 -2.0381  0.5838
  176SAPI  H16Y20105   7.378   3.994   8.351 -0.1636 -0.7919 -0.9690
  176SAPI  C31720106   7.367   4.194   8.415 -0.2435 -0.0150 -0.0493
  176SAPI  H17X20107   7.264   4.184   8.454 -0.7336  1.2731 -0.9782
  176SAPI  H17Y20108   7.377   4.294   8.369 -1.1144  0.9756  1.7809
  176SAPI  C31820109   7.471   4.176   8.533 -0.1210  0.6512 -0.7501
  176SAPI  H18X20110   7.576   4.198   8.505 -0.4960  0.7419 -2.2014
  176SAPI  H18Y20111   7.456   4.073   8.573  2.5137 -0.0891 -1.5280
  176SAPI  H18Z20112   7.441   4.236   8.621  0.6089 -0.1946  0.0943
  177SLPC     N20113   0.860   1.488  10.765 -0.1034  0.2157  0.3220
  177SLPC   C1320114   0.901   1.433  10.630  0.3313  0.4774  0.2268
  177SLPC  H13A20115   0.872   1.507  10.557 -0.2938  1.4661  1.4435
  177SLPC  H13B20116   1.004   1.403  10.617  0.6977  0.7760  2.1271
  177SLPC  H13C20117   0.843   1.343  10.616 -0.2429  0.8968 -0.1276
  177SLPC   C1420118   0.910   1.393  10.864  0.6386 -0.3292  0.6856
  177SLPC  H14A20119   0.866   1.295  10.855 -2.7161  1.1785 -1.2676
  177SLPC  H14B20120   1.017   1.378  10.865  0.7837  0.6444  2.0305
  177SLPC  H14C20121   0.881   1.432  10.960 -0.0678 -0.6281  0.6001
  177SLPC   C1520122   0.709   1.491  10.767  0.1909 -0.0604  0.3974
  177SLPC  H15A20123   0.666   1.403  10.812  1.1889 -0.0754  1.3680
  177SLPC  H15B20124   0.677   1.578  10.822 -0.6335  1.1739 -1.8838
  177SLPC  H15C20125   0.665   1.506  10.669 -0.7850  0.4429  0.8958
  177SLPC   C1220126   0.925   1.621  10.783 -0.1034  0.8360  0.0300
  177SLPC  H12A20127   1.028   1.604  10.755 -0.8290 -1.7847 -1.4096
  177SLPC  H12B20128   0.932   1.650  10.887  0.1934  0.1657  0.2050
  177SLPC   C1120129   0.892   1.743  10.698 -0.1176  1.0798  0.6780
  177SLPC  H11A20130   0.905   1.720  10.590  1.9413  3.5738  0.2967
  177SLPC  H11B20131   0.959   1.829  10.717 -0.2117  1.4498 -0.5884
  177SLPC     P20132   0.649   1.813  10.650  0.0750  0.3935 -0.0211
  177SLPC   O1320133   0.613   1.695  10.572  0.4114  0.5764 -0.0992
  177SLPC   O1420134   0.541   1.872  10.740 -0.9861 -1.1531  0.3746
  177SLPC   O1220135   0.764   1.784  10.740  0.3659 -0.2991  0.3041
  177SLPC   O1120136   0.706   1.930  10.559 -0.4229 -0.1769 -0.0376
  177SLPC    C120137   0.607   1.999  10.478 -0.0907 -0.9074 -0.0871
  177SLPC    HA20138   0.509   2.023  10.525  0.8503  2.0680  0.5691
  177SLPC    HB20139   0.653   2.098  10.458  0.5166  0.3125  5.7026
  177SLPC    C220140   0.565   1.933  10.346  0.5709 -0.0980  0.6205
  177SLPC    HS20141   0.510   1.839  10.367  1.1183 -0.8289 -1.0553
  177SLPC   O2120142   0.689   1.903  10.280 -0.2570  0.5051 -0.1850
  177SLPC   C2120143   0.691   1.801  10.201 -0.4363  0.0089  0.0294
  177SLPC   O2220144   0.604   1.719  10.175  0.2233  0.1717  0.8507
  177SLPC   C2220145   0.833   1.784  10.152  0.4577 -0.3085 -0.2547
  177SLPC   H2R20146   0.856   1.870  10.086  1.0371 -0.6214 -0.4662
  177SLPC   H2S20147   0.901   1.772  10.239 -2.2575 -0.6068  1.9579
  177SLPC    C320148   0.471   2.021  10.257 -0.2883 -0.1027 -0.7738
  177SLPC    HX20149   0.517   2.123  10.260  2.5803 -1.3197  1.8714
  177SLPC    HY20150   0.372   2.030  10.305  0.3382  2.1158  0.2212
  177SLPC   O3120151   0.481   1.972  10.127 -0.0175  0.2324  0.6514
  177SLPC   C3120152   0.370   1.933  10.069  0.1764  0.2203 -0.7482
  177SLPC   O3220153   0.256   1.936  10.112 -0.2687 -0.1464  0.2600
  177SLPC   C3220154   0.413   1.866   9.937  0.2642  0.4172  0.3860
  177SLPC   H2X20155   0.417   1.756   9.956  2.2778  0.4062  0.1739
  177SLPC   H2Y20156   0.519   1.895   9.919  0.0662  1.3713  0.7521
  177SLPC   C2320157   0.831   1.661  10.050 -0.1278 -0.5578  0.0135
  177SLPC   H3R20158   0.788   1.569  10.095 -0.7345  0.3272  1.3378
  177SLPC   H3S20159   0.935   1.633  10.025  0.3485 -0.7647  2.0623
  177SLPC   C2420160   0.763   1.697   9.916  0.1682 -0.0959 -0.1200
  177SLPC   H4R20161   0.788   1.804   9.898 -0.7832 -0.0285 -1.1126
  177SLPC   H4S20162   0.653   1.699   9.928  0.2039 -1.1226  0.5038
  177SLPC   C2520163   0.787   1.607   9.792  0.3090  0.7988 -0.8580
  177SLPC   H5R20164   0.755   1.505   9.821  0.1044  0.3795 -2.4605
  177SLPC   H5S20165   0.892   1.607   9.757  0.3014  2.3478 -0.9456
  177SLPC   C2620166   0.707   1.653   9.663  0.0633  0.1591  0.3843
  177SLPC   H6R20167   0.751   1.753   9.646 -0.4690  0.4320  0.5828
  177SLPC   H6S20168   0.600   1.664   9.692  0.5709  1.7172  1.7863
  177SLPC   C2720169   0.733   1.569   9.533 -0.7426 -0.1347  0.7850
  177SLPC   H7R20170   0.696   1.464   9.538 -1.5337  0.0099 -1.2944
  177SLPC   H7S20171   0.842   1.561   9.511 -0.7278  3.4049 -1.0002
  177SLPC   C2820172   0.680   1.639   9.408 -0.0102 -0.2419  0.0924
  177SLPC   H8R20173   0.736   1.602   9.320 -1.6522 -0.9857 -0.6776
  177SLPC   H8S20174   0.706   1.747   9.410  0.1876 -0.2848  1.9191
  177SLPC   C2920175   0.530   1.625   9.390 -0.5464  0.5115 -0.7606
  177SLPC   H9R20176   0.470   1.705   9.436  0.1938  1.6386 -1.6761
  177SLPC  C21020177   0.468   1.525   9.322 -0.0436 -0.1243  0.4446
  177SLPC  H10R20178   0.359   1.540   9.312 -0.2100 -1.5975 -0.2441
  177SLPC  C21120179   0.539   1.418   9.244  0.6659  0.3178  0.1688
  177SLPC  H11R20180   0.642   1.452   9.217  0.3119  2.9242  1.7788
  177SLPC  H11S20181   0.568   1.332   9.307  0.5141  0.7996  0.9072
  177SLPC  C21220182   0.443   1.358   9.135 -0.3319  0.1714 -0.8989
  177SLPC  H12R20183   0.385   1.270   9.165  0.8914 -0.1426  0.6872
  177SLPC  C21320184   0.461   1.387   9.006  0.7130 -0.3434 -0.1692
  177SLPC  H13R20185   0.395   1.342   8.930  0.7766  0.5740 -0.7851
  177SLPC  C21420186   0.568   1.483   8.948  0.3965 -0.0094  0.0896
  177SLPC  H14R20187   0.614   1.546   9.028  0.6115  0.4726 -0.4107
  177SLPC  H14S20188   0.513   1.554   8.883 -1.1406 -0.0615  1.2623
  177SLPC  C21520189   0.690   1.408   8.886  0.0068  0.1001  0.1408
  177SLPC  H15R20190   0.742   1.351   8.965 -2.8246  0.4179  2.4115
  177SLPC  H15S20191   0.750   1.494   8.850 -0.4129 -0.2961 -1.6191
  177SLPC  C21620192   0.646   1.325   8.765 -0.3327 -0.0428 -0.1000
  177SLPC  H16R20193   0.549   1.368   8.730  1.5847  2.7910 -2.4154
  177SLPC  H16S20194   0.634   1.221   8.802  0.9942 -0.3533 -0.4847
  177SLPC  C21720195   0.734   1.345   8.644  0.1611 -0.3312  0.4024
  177SLPC  H17R20196   0.707   1.272   8.565 -0.9118  1.1619 -0.6844
  177SLPC  H17S20197   0.841   1.331   8.672  0.3906 -1.7173 -1.0567
  177SLPC  C21820198   0.725   1.475   8.564 -0.2917  0.1564  0.2484
  177SLPC  H18R20199   0.772   1.556   8.625  3.0362 -1.8375  0.5674
  177SLPC  H18S20200   0.621   1.512   8.547  0.1790  0.8206 -1.4264
  177SLPC  H18T20201   0.788   1.486   8.473  0.0815  4.0736  0.7899
  177SLPC   C3320202   0.340   1.917   9.807  0.4543 -0.5398 -0.5316
  177SLPC   H3X20203   0.392   2.010   9.776  1.1864 -0.3168  1.2521
  177SLPC   H3Y20204   0.233   1.943   9.822  0.8039  0.8561 -0.3325
  177SLPC   C3420205   0.337   1.810   9.699  0.1963  0.2880 -0.2876
  177SLPC   H4X20206   0.280   1.734   9.757 -0.2778  0.9073  0.0658
  177SLPC   H4Y20207   0.434   1.760   9.681  0.4514  0.7248 -0.1419
  177SLPC   C3520208   0.273   1.855   9.573  0.6257 -0.6236  0.3985
  177SLPC   H5X20209   0.170   1.888   9.599  0.9744  0.9019 -0.0795
  177SLPC   H5Y20210   0.249   1.764   9.514  0.8576 -0.3355 -0.1450
  177SLPC   C3620211   0.327   1.965   9.481  0.6636  0.3189 -0.2714
  177SLPC   H6X20212   0.435   1.941   9.469  0.4617 -0.8693  0.1099
  177SLPC   H6Y20213   0.307   2.064   9.526  1.5766 -0.6394  2.4423
  177SLPC   C3720214   0.256   1.975   9.347 -0.0354 -0.1968 -0.5711
  177SLPC   H7X20215   0.150   1.996   9.373  0.2612  1.5817 -0.6667
  177SLPC   H7Y20216   0.269   1.883   9.287  1.3862 -0.7104  0.4560
  177SLPC   C3820217   0.282   2.102   9.255 -0.0630  0.4101 -0.4704
  177SLPC   H8X20218   0.381   2.094   9.207  0.2163  1.1539 -0.0449
  177SLPC   H8Y20219   0.268   2.196   9.313  0.2870  0.8575 -1.1028
  177SLPC   C3920220   0.183   2.095   9.135 -0.4217 -0.1036  0.5216
  177SLPC   H9X20221   0.163   2.199   9.103  3.8182  0.5457 -0.6083
  177SLPC   H9Y20222   0.087   2.048   9.164 -0.3402 -0.2422  0.5724
  177SLPC  C31020223   0.240   2.024   9.008  0.7280 -0.2667 -0.3268
  177SLPC  H10X20224   0.159   2.025   8.932  1.2490  0.2214 -0.8943
  177SLPC  H10Y20225   0.250   1.918   9.039 -1.2993 -1.0484 -2.0962
  177SLPC  C31120226   0.368   2.092   8.944 -0.2747  0.5827 -0.2040
  177SLPC  H11X20227   0.386   2.035   8.850 -0.4658  2.3497 -1.3473
  177SLPC  H11Y20228   0.459   2.080   9.007 -0.6268 -0.0320  0.1993
  177SLPC  C31220229   0.346   2.242   8.920 -0.1733  0.5370 -0.1727
  177SLPC  H12X20230   0.329   2.284   9.022 -0.8039 -1.3247  0.5363
  177SLPC  H12Y20231   0.242   2.247   8.882  0.0522  0.3620 -0.8221
  177SLPC  C31320232   0.450   2.303   8.827 -0.1812 -0.2159 -0.1673
  177SLPC  H13X20233   0.457   2.243   8.734  0.7895  1.6376 -1.3527
  177SLPC  H13Y20234   0.548   2.311   8.879  0.7710  0.2342 -1.9765
  177SLPC  C31420235   0.412   2.445   8.772 -0.0613  0.2077  0.2112
  177SLPC  H14X20236   0.499   2.464   8.706  1.0024 -1.2581  1.1340
  177SLPC  H14Y20237   0.435   2.512   8.858 -0.3834 -0.9403  1.2122
  177SLPC  C31520238   0.287   2.458   8.693  0.0938  0.2663 -0.4152
  177SLPC  H15X20239   0.280   2.560   8.651  1.5024  0.3527 -0.4741
  177SLPC  H15Y20240   0.208   2.447   8.772  1.7473 -0.9506  1.1616
  177SLPC  C31620241   0.262   2.365   8.573  0.3945 -0.0460 -0.5481
  177SLPC  H16X20242   0.154   2.364   8.547 -0.1742 -0.4352  1.6183
  177SLPC  H16Y20243   0.285   2.262   8.608  2.9654  0.9244  0.8972
  177SLPC  C31720244   0.345   2.400   8.452  0.5911  0.1250 -0.0222
  177SLPC  H17X20245   0.448   2.415   8.491  0.0732  0.1972  1.4054
  177SLPC  H17Y20246   0.300   2.493   8.410 -0.5340 -0.9431 -1.2775
  177SLPC  C31820247   0.339   2.294   8.342 -0.5524  0.9155  0.1296
  177SLPC  H18X20248   0.368   2.340   8.245 -1.7226  0.8041 -0.2896
  177SLPC  H18Y20249   0.235   2.257   8.355 -0.0998 -1.4358 -2.1453
  177SLPC  H18Z20250   0.410   2.210   8.355 -1.5260  0.0520 -0.0312
  178SLPC     N20251   0.649   3.179  11.148 -0.7376  0.0545  0.1756
  178SLPC   C1320252   0.557   3.076  11.102  0.1718  0.5962 -0.1779
  178SLPC  H13A20253   0.474   3.125  11.053 -0.3718 -1.5359 -1.5557
  178SLPC  H13B20254   0.598   3.006  11.031  1.2837  0.7809  0.2688
  178SLPC  H13C20255   0.501   3.038  11.187 -2.8287  0.1345 -2.1888
  178SLPC   C1420256   0.770   3.099  11.204  0.6187 -0.4970  0.4687
  178SLPC  H14A20257   0.821   3.157  11.279  0.6808 -0.3017  0.2776
  178SLPC  H14B20258   0.737   3.013  11.260  2.7515 -1.5532  0.2358
  178SLPC  H14C20259   0.837   3.072  11.123 -0.1773 -0.9964 -0.0478
  178SLPC   C1520260   0.603   3.247  11.266 -0.0778 -0.0041 -0.4225
  178SLPC  H15A20261   0.530   3.324  11.245 -2.1813 -1.8183 -0.0708
  178SLPC  H15B20262   0.545   3.186  11.332 -1.1870 -0.2440 -1.5797
  178SLPC  H15C20263   0.680   3.310  11.310  1.6057 -0.8246 -2.0318
  178SLPC   C1220264   0.697   3.259  11.033  0.0465  1.2390  0.3264
  178SLPC  H12A20265   0.734   3.192  10.956 -0.4035  0.4148  0.8121
  178SLPC  H12B20266   0.777   3.317  11.076 -0.5506  1.9468  0.5024
  178SLPC   C1120267   0.592   3.347  10.977 -0.4524 -0.5501  0.2581
  178SLPC  H11A20268   0.487   3.313  10.960 -0.7189 -0.0789  0.9354
  178SLPC  H11B20269   0.607   3.361  10.867 -2.5174  0.8611  0.0954
  178SLPC     P20270   0.714   3.577  11.026  0.1069 -0.0698  0.1079
  178SLPC   O1320271   0.675   3.719  11.054  0.1384  0.2686  0.1978
  178SLPC   O1420272   0.814   3.513  11.111 -0.1550  0.0763 -0.0703
  178SLPC   O1220273   0.582   3.477  11.037 -0.1574  1.0305 -0.4402
  178SLPC   O1120274   0.769   3.565  10.875  0.2518 -0.6050 -0.3413
  178SLPC    C120275   0.890   3.634  10.851  0.7852 -0.1698 -0.1929
  178SLPC    HA20276   0.894   3.741  10.879  0.1883  0.3745 -2.0393
  178SLPC    HB20277   0.971   3.579  10.904  0.3763 -1.4819 -0.8881
  178SLPC    C220278   0.936   3.645  10.702  0.5726 -0.1319 -0.2122
  178SLPC    HS20279   1.031   3.702  10.695  1.6691 -1.3748  2.8287
  178SLPC   O2120280   0.837   3.704  10.618 -0.2978  0.1884  0.1720
  178SLPC   C2120281   0.820   3.831  10.620 -0.0687 -0.6783  0.1123
  178SLPC   O2220282   0.890   3.905  10.688 -0.1212 -0.5784 -0.1501
  178SLPC   C2220283   0.719   3.873  10.511 -0.2922  0.1592  0.0887
  178SLPC   H2R20284   0.653   3.792  10.473  1.1731 -0.9090 -0.2900
  178SLPC   H2S20285   0.660   3.953  10.559  1.3520  2.0666 -0.9376
  178SLPC    C320286   0.970   3.506  10.640 -0.3652 -0.8539 -0.3422
  178SLPC    HX20287   0.877   3.447  10.652 -1.1622  0.6734  1.4708
  178SLPC    HY20288   1.037   3.457  10.714  1.1144  1.5080 -0.0029
  178SLPC   O3120289   1.015   3.508  10.501  0.3071  0.5201  0.5358
  178SLPC   C3120290   1.149   3.512  10.487  0.3556  0.2611  0.5644
  178SLPC   O3220291   1.223   3.532  10.579 -0.0704  0.0476 -0.4240
  178SLPC   C3220292   1.199   3.516  10.344  0.0663 -0.9133  0.8738
  178SLPC   H2X20293   1.310   3.514  10.354  0.2327  1.1494 -0.0243
  178SLPC   H2Y20294   1.163   3.612  10.301  0.3872  0.1134  2.7699
  178SLPC   C2320295   0.787   3.938  10.391 -0.0804 -0.3906 -0.0939
  178SLPC   H3R20296   0.873   3.876  10.358 -1.3833 -2.1686 -0.2736
  178SLPC   H3S20297   0.825   4.039  10.418  1.0136 -1.3233  2.0728
  178SLPC   C2420298   0.689   3.929  10.268 -0.0720  0.4321 -0.1019
  178SLPC   H4R20299   0.586   3.957  10.299  0.4647  0.4281  1.8743
  178SLPC   H4S20300   0.683   3.826  10.229 -0.8838  0.6237 -0.4890
  178SLPC   C2520301   0.745   4.016  10.146  0.5796 -0.1944 -0.4215
  178SLPC   H5R20302   0.848   3.988  10.118  0.9050  1.8818 -1.5558
  178SLPC   H5S20303   0.761   4.121  10.178 -1.7595  1.1378 -3.1215
  178SLPC   C2620304   0.649   4.014  10.026  0.9877  0.3038 -0.1123
  178SLPC   H6R20305   0.558   4.077  10.039 -0.0000 -1.1649  0.2859
  178SLPC   H6S20306   0.617   3.912   9.997  0.9400  0.7903 -1.8634
  178SLPC   C2720307   0.722   4.069   9.904 -0.1538 -0.0252  1.1592
  178SLPC   H7R20308   0.797   4.149   9.919  0.6872 -0.1250 -1.8477
  178SLPC   H7S20309   0.638   4.109   9.843 -1.4116 -1.4741  1.8462
  178SLPC   C2820310   0.796   3.956   9.825 -0.8850 -0.3591 -0.2508
  178SLPC   H8R20311   0.822   3.997   9.724 -0.4381  0.0330  0.0201
  178SLPC   H8S20312   0.725   3.872   9.807 -1.6040 -0.2227  1.7099
  178SLPC   C2920313   0.927   3.902   9.876  0.1321 -0.3116 -1.0897
  178SLPC   H9R20314   1.010   3.973   9.863  0.4599 -0.5145 -0.1955
  178SLPC  C21020315   0.950   3.777   9.935 -1.1375 -0.4871  0.2982
  178SLPC  H10R20316   1.054   3.763   9.968 -1.0984  0.7371  0.7339
  178SLPC  C21120317   0.853   3.664   9.955  0.3476  0.4218  0.4762
  178SLPC  H11R20318   0.865   3.583   9.879  2.3762  2.6382 -1.7267
  178SLPC  H11S20319   0.751   3.705   9.937  0.6621  0.9051 -0.2276
  178SLPC  C21220320   0.856   3.604  10.093  0.8085 -0.0338 -0.1916
  178SLPC  H12R20321   0.878   3.682  10.167  0.9265 -0.6051  0.3869
  178SLPC  C21320322   0.843   3.473  10.128  0.4731  0.5628  0.0283
  178SLPC  H13R20323   0.852   3.452  10.236 -0.3747  0.5477  0.1015
  178SLPC  C21420324   0.817   3.361  10.027 -0.2043  0.7133 -0.2603
  178SLPC  H14R20325   0.884   3.273  10.040 -1.5118 -0.0208  2.0743
  178SLPC  H14S20326   0.815   3.391   9.920  2.3096  0.9658 -0.2833
  178SLPC  C21520327   0.672   3.308  10.058  0.2754  0.1158  0.2671
  178SLPC  H15R20328   0.614   3.401  10.036  1.6243  0.9683  0.1697
  178SLPC  H15S20329   0.655   3.272  10.162 -3.2003  3.7892  1.2246
  178SLPC  C21620330   0.629   3.197   9.961 -0.3210  0.0878 -0.0391
  178SLPC  H16R20331   0.680   3.102   9.987 -2.1703 -1.2334 -1.0360
  178SLPC  H16S20332   0.661   3.220   9.857 -0.3178  0.8345  0.1206
  178SLPC  C21720333   0.482   3.164   9.965  0.1923 -0.0287  0.2178
  178SLPC  H17R20334   0.466   3.065   9.917  1.1913 -0.0949  0.0044
  178SLPC  H17S20335   0.426   3.237   9.902  0.9744  1.2614  0.9652
  178SLPC  C21820336   0.419   3.154  10.109 -0.0892  0.6336  0.4043
  178SLPC  H18R20337   0.470   3.076  10.170 -2.0331  1.1541  2.8518
  178SLPC  H18S20338   0.309   3.139  10.109 -0.0669  0.1663 -1.6601
  178SLPC  H18T20339   0.426   3.258  10.148  1.3945  1.6756 -2.3517
  178SLPC   C3320340   1.164   3.394  10.260 -0.5156  0.1858  0.5403
  178SLPC   H3X20341   1.057   3.366  10.254  0.2140 -2.7709  0.0980
  178SLPC   H3Y20342   1.217   3.302  10.292  0.2674  0.8741  1.2887
  178SLPC   C3420343   1.208   3.418  10.111 -0.1747 -0.7583  0.4320
  178SLPC   H4X20344   1.164   3.514  10.076 -1.4775 -1.5106 -0.0421
  178SLPC   H4Y20345   1.164   3.336  10.051 -0.4349 -0.3881  0.1171
  178SLPC   C3520346   1.353   3.418  10.077 -0.2642  0.0714  0.2708
  178SLPC   H5X20347   1.401   3.352  10.153  2.4553  0.1359 -1.2404
  178SLPC   H5Y20348   1.392   3.519  10.103 -3.8765  0.9041  3.1460
  178SLPC   C3620349   1.390   3.372   9.935  0.5576 -0.4402  0.3366
  178SLPC   H6X20350   1.336   3.277   9.917  0.7506 -0.4797 -0.0562
  178SLPC   H6Y20351   1.500   3.359   9.933  0.7799  1.2141 -1.5325
  178SLPC   C3720352   1.353   3.467   9.817  0.1190  0.7726 -0.6908
  178SLPC   H7X20353   1.450   3.507   9.780  0.9941 -1.2347 -0.6521
  178SLPC   H7Y20354   1.290   3.545   9.865 -3.1657 -1.7779 -0.5046
  178SLPC   C3820355   1.276   3.388   9.705 -0.2253  0.2782 -0.4770
  178SLPC   H8X20356   1.182   3.350   9.750 -0.1081  0.4736 -0.0632
  178SLPC   H8Y20357   1.332   3.298   9.670  0.5759  0.4634  0.2837
  178SLPC   C3920358   1.243   3.484   9.591  0.3585 -0.0050 -0.3095
  178SLPC   H9X20359   1.246   3.434   9.492 -0.7819 -1.1680  0.2163
  178SLPC   H9Y20360   1.312   3.571   9.584  0.0152  0.1483 -2.5718
  178SLPC  C31020361   1.105   3.537   9.607 -0.0280 -0.3302  0.2755
  178SLPC  H10X20362   1.098   3.597   9.700 -2.3349 -1.3702  0.8334
  178SLPC  H10Y20363   1.046   3.446   9.628  0.3784 -0.3200  1.5538
  178SLPC  C31120364   1.063   3.603   9.479  0.5105 -0.7310  0.5399
  178SLPC  H11X20365   1.046   3.527   9.400  1.7915 -1.1545  0.6597
  178SLPC  H11Y20366   1.142   3.663   9.429 -2.0452  0.3870 -2.4658
  178SLPC  C31220367   0.938   3.688   9.499 -0.2796 -0.0956  0.1285
  178SLPC  H12X20368   0.908   3.724   9.398  1.3128  1.8462  0.3070
  178SLPC  H12Y20369   0.964   3.778   9.558 -0.8666  1.2586 -1.5856
  178SLPC  C31320370   0.812   3.617   9.565 -0.0759 -0.0423 -0.6207
  178SLPC  H13X20371   0.737   3.696   9.539  0.6072  0.6744 -0.4409
  178SLPC  H13Y20372   0.831   3.618   9.674  2.2710  1.0897 -0.9814
  178SLPC  C31420373   0.767   3.483   9.514 -0.7660 -1.1043 -0.3688
  178SLPC  H14X20374   0.829   3.410   9.571  0.3136  0.3862  0.4541
  178SLPC  H14Y20375   0.780   3.473   9.404  0.6730 -0.4615 -0.2813
  178SLPC  C31520376   0.628   3.450   9.558  0.0662 -0.0800  0.4674
  178SLPC  H15X20377   0.598   3.455   9.665 -0.3532 -0.1308  0.3540
  178SLPC  H15Y20378   0.564   3.525   9.508 -0.7442  0.8644  2.7513
  178SLPC  C31620379   0.599   3.312   9.506  0.0287  0.6188  0.1410
  178SLPC  H16X20380   0.678   3.235   9.518  1.3541  2.0102  0.6943
  178SLPC  H16Y20381   0.589   3.321   9.396  0.2762 -0.4818  0.0179
  178SLPC  C31720382   0.467   3.249   9.548  0.0382  0.1819 -0.4367
  178SLPC  H17X20383   0.385   3.311   9.507  0.6625 -0.1185 -2.2234
  178SLPC  H17Y20384   0.465   3.241   9.659 -1.5092  0.5931 -0.4247
  178SLPC  C31820385   0.448   3.115   9.480 -0.0385 -0.1894  0.8868
  178SLPC  H18X20386   0.357   3.058   9.508 -0.4409 -0.1629 -0.2960
  178SLPC  H18Y20387   0.529   3.043   9.504 -0.4263 -0.8854  0.1483
  178SLPC  H18Z20388   0.432   3.131   9.371  1.2858  0.2415  0.7460
  179SLPC     N20389   4.097   2.283  10.270  0.6411 -0.2289  0.4751
  179SLPC   C1320390   4.187   2.261  10.151  0.1409  0.1125 -0.2201
  179SLPC  H13A20391   4.200   2.155  10.132 -2.5711 -0.1865 -0.8554
  179SLPC  H13B20392   4.140   2.308  10.066 -1.8824  0.3858  0.9879
  179SLPC  H13C20393   4.282   2.306  10.173 -0.6350  1.5132  0.4116
  179SLPC   C1420394   3.955   2.230  10.240  0.6610  0.2216 -0.4913
  179SLPC  H14A20395   3.890   2.261  10.320  0.7748 -1.0038  0.1048
  179SLPC  H14B20396   3.917   2.271  10.148  0.0107 -1.2662 -0.9091
  179SLPC  H14C20397   3.956   2.122  10.232 -0.2085  0.2794 -1.7044
  179SLPC   C1520398   4.098   2.431  10.306  0.1078 -1.1050 -0.1492
  179SLPC  H15A20399   4.022   2.440  10.383 -0.1797  0.5146 -0.5881
  179SLPC  H15B20400   4.190   2.451  10.360 -0.1148  1.0653 -0.4641
  179SLPC  H15C20401   4.087   2.496  10.220  1.9550 -0.5282  0.0015
  179SLPC   C1220402   4.153   2.203  10.386  0.3000 -0.0476 -0.9997
  179SLPC  H12A20403   4.146   2.099  10.358 -1.1410  0.2275 -1.7675
  179SLPC  H12B20404   4.100   2.224  10.478  1.1515 -0.3342 -0.4339
  179SLPC   C1120405   4.304   2.227  10.417 -0.4043  0.4293 -0.2592
  179SLPC  H11A20406   4.372   2.183  10.341  2.3867 -0.1119  2.3485
  179SLPC  H11B20407   4.327   2.169  10.509 -0.7716 -0.9010 -0.9857
  179SLPC     P20408   4.444   2.451  10.398  0.1645 -0.5758  0.1277
  179SLPC   O1320409   4.393   2.584  10.366 -0.0859 -0.9462 -0.6589
  179SLPC   O1420410   4.549   2.448  10.501  0.2490  0.4161 -0.2218
  179SLPC   O1220411   4.324   2.365  10.447 -0.2492 -0.0550  0.5870
  179SLPC   O1120412   4.484   2.374  10.261  0.0890  1.1764 -0.1321
  179SLPC    C120413   4.617   2.336  10.245  0.3975  0.3062  0.3190
  179SLPC    HA20414   4.686   2.360  10.329  0.1712  0.6008  0.4196
  179SLPC    HB20415   4.624   2.225  10.234  2.7913  0.4501 -0.1335
  179SLPC    C220416   4.665   2.398  10.114  0.2433  0.1234  0.7578
  179SLPC    HS20417   4.776   2.403  10.110  0.2533  0.1044 -2.7220
  179SLPC   O2120418   4.612   2.529  10.079 -0.0358 -0.2142  0.1913
  179SLPC   C2120419   4.646   2.626  10.161  0.2468  0.7366  0.1149
  179SLPC   O2220420   4.717   2.609  10.260 -0.4136 -0.2887 -0.4206
  179SLPC   C2220421   4.568   2.751  10.113 -0.0130  0.3278 -0.5265
  179SLPC   H2R20422   4.485   2.721  10.045 -0.4007 -1.3056  0.5915
  179SLPC   H2S20423   4.527   2.801  10.203 -2.3061 -0.5990 -0.9867
  179SLPC    C320424   4.629   2.310   9.994  0.0856 -0.5081  0.2241
  179SLPC    HX20425   4.520   2.290   9.995  0.3214 -1.8544  0.6081
  179SLPC    HY20426   4.675   2.212  10.017  1.5787  0.1580  0.2342
  179SLPC   O3120427   4.692   2.356   9.873  0.2675  0.4104  0.3443
  179SLPC   C3120428   4.608   2.432   9.798 -0.6532 -0.0258 -0.3150
  179SLPC   O3220429   4.493   2.456   9.833 -0.2024  0.0260 -0.1844
  179SLPC   C3220430   4.689   2.484   9.675  0.3559  0.0456 -0.0421
  179SLPC   H2X20431   4.733   2.388   9.642 -1.0136 -0.0374 -1.7578
  179SLPC   H2Y20432   4.772   2.553   9.700  0.9457 -0.6129 -0.1477
  179SLPC   C2320433   4.674   2.835  10.030  0.5342  0.4013  0.2141
  179SLPC   H3R20434   4.779   2.808  10.056  1.0087  1.0146 -1.0126
  179SLPC   H3S20435   4.647   2.940  10.055 -0.9512 -0.0676  0.6491
  179SLPC   C2420436   4.666   2.803   9.880 -0.4444 -0.3570 -0.2008
  179SLPC   H4R20437   4.558   2.786   9.862 -0.1673 -1.3494 -1.0495
  179SLPC   H4S20438   4.719   2.708   9.856 -0.3404 -0.5732  0.8164
  179SLPC   C2520439   4.710   2.923   9.794 -0.0686  0.3535  0.1132
  179SLPC   H5R20440   4.820   2.938   9.807 -0.1985  0.2611  1.4263
  179SLPC   H5S20441   4.660   3.019   9.818 -1.6142  0.2507 -2.3537
  179SLPC   C2620442   4.681   2.900   9.642  0.2971  0.2984 -0.1173
  179SLPC   H6R20443   4.571   2.890   9.625  0.5965 -1.4364 -1.2830
  179SLPC   H6S20444   4.732   2.804   9.622 -0.3088  0.1098 -0.8213
  179SLPC   C2720445   4.726   3.015   9.549 -0.1820  0.0991  0.0168
  179SLPC   H7R20446   4.837   3.018   9.535 -0.1219 -3.6707 -1.6414
  179SLPC   H7S20447   4.691   3.112   9.589 -1.8385 -1.3052  2.2062
  179SLPC   C2820448   4.674   3.006   9.400 -0.1281 -0.0957 -0.4131
  179SLPC   H8R20449   4.563   3.007   9.398 -0.1474  0.2846  0.3117
  179SLPC   H8S20450   4.713   2.919   9.345  0.5814  1.2177 -2.0751
  179SLPC   C2920451   4.719   3.132   9.328 -0.0982  0.5907  0.4926
  179SLPC   H9R20452   4.694   3.223   9.386  1.6210  1.0054  0.6279
  179SLPC  C21020453   4.778   3.143   9.204 -0.2649  0.3818 -0.5710
  179SLPC  H10R20454   4.823   3.237   9.171  2.5977  0.4296  2.8734
  179SLPC  C21120455   4.825   3.033   9.111  0.3026  0.4460 -0.1962
  179SLPC  H11R20456   4.798   2.931   9.147 -0.3957  1.0685  1.1113
  179SLPC  H11S20457   4.936   3.036   9.108  0.3902  0.8197  1.9678
  179SLPC  C21220458   4.745   3.049   8.990 -0.2125 -0.9651  0.1054
  179SLPC  H12R20459   4.649   2.996   9.001 -0.7464 -0.1221 -0.2971
  179SLPC  C21320460   4.762   3.118   8.875  0.4655  0.1733 -0.3243
  179SLPC  H13R20461   4.679   3.109   8.805  1.5857  0.6655 -1.7679
  179SLPC  C21420462   4.879   3.206   8.842  0.5737  0.5062 -0.3593
  179SLPC  H14R20463   4.936   3.154   8.762 -0.7043 -3.3452  1.0490
  179SLPC  H14S20464   4.949   3.208   8.928  0.1562  0.4523 -0.0147
  179SLPC  C21520465   4.833   3.342   8.785 -0.5307  0.4281 -0.0162
  179SLPC  H15R20466   4.915   3.416   8.800 -0.5001  0.7725 -1.6739
  179SLPC  H15S20467   4.748   3.387   8.842 -3.0241  1.3452 -3.9721
  179SLPC  C21620468   4.793   3.337   8.636 -0.4317 -0.8482 -0.3977
  179SLPC  H16R20469   4.722   3.254   8.617 -0.5504 -0.5962 -1.0666
  179SLPC  H16S20470   4.875   3.315   8.565 -1.4937  1.4991 -2.4915
  179SLPC  C21720471   4.742   3.471   8.605  0.8626 -0.5797  0.1759
  179SLPC  H17R20472   4.810   3.548   8.647 -0.0125  0.1577  0.2700
  179SLPC  H17S20473   4.634   3.474   8.632  0.6064  3.0401 -0.7162
  179SLPC  C21820474   4.737   3.492   8.448  0.5366  0.7212 -0.3960
  179SLPC  H18R20475   4.655   3.438   8.396  1.8435 -1.9003  0.1054
  179SLPC  H18S20476   4.832   3.453   8.407 -0.9582 -3.7405 -0.1315
  179SLPC  H18T20477   4.726   3.599   8.417  1.3124  0.7636 -0.5520
  179SLPC   C3320478   4.595   2.560   9.586  0.0276  0.6492  0.2879
  179SLPC   H3X20479   4.571   2.659   9.630 -0.2573 -0.2321  2.2470
  179SLPC   H3Y20480   4.508   2.493   9.564  0.3697  0.5621 -0.8539
  179SLPC   C3420481   4.661   2.593   9.447 -1.0422 -0.4824  0.0952
  179SLPC   H4X20482   4.695   2.507   9.385 -2.0559  0.1794 -1.4477
  179SLPC   H4Y20483   4.755   2.644   9.474 -0.8299 -1.7780  1.9651
  179SLPC   C3520484   4.576   2.662   9.334  0.1143 -0.1753  0.3207
  179SLPC   H5X20485   4.526   2.746   9.387  1.4770  0.8065  0.0832
  179SLPC   H5Y20486   4.496   2.587   9.316  0.1220 -0.0934 -0.0554
  179SLPC   C3620487   4.647   2.699   9.200  0.2463 -0.4995  0.8446
  179SLPC   H6X20488   4.734   2.764   9.223  1.0582 -0.6934 -1.4185
  179SLPC   H6Y20489   4.583   2.763   9.136  0.2046 -0.2694  1.1136
  179SLPC   C3720490   4.700   2.579   9.119 -0.1483 -0.2451  0.9297
  179SLPC   H7X20491   4.783   2.518   9.161 -0.2062 -1.2333 -0.3363
  179SLPC   H7Y20492   4.737   2.606   9.017  0.9841 -1.3091  1.0336
  179SLPC   C3820493   4.587   2.477   9.078  0.5533  0.7533  0.5180
  179SLPC   H8X20494   4.546   2.427   9.168 -1.3472 -1.4314 -1.4393
  179SLPC   H8Y20495   4.636   2.387   9.034  2.0963  0.0179  3.4691
  179SLPC   C3920496   4.486   2.533   8.978 -0.2512 -0.0309 -0.6169
  179SLPC   H9X20497   4.527   2.552   8.877 -0.4721  1.2942 -0.4708
  179SLPC   H9Y20498   4.452   2.631   9.017  1.1614  0.5277 -0.7382
  179SLPC  C31020499   4.354   2.450   8.963  0.2754 -0.1467 -0.5416
  179SLPC  H10X20500   4.279   2.527   8.937  0.7771 -0.2477 -2.4466
  179SLPC  H10Y20501   4.331   2.397   9.058 -3.4383 -0.4210 -1.4229
  179SLPC  C31120502   4.357   2.346   8.852 -0.8102 -0.4391 -0.2375
  179SLPC  H11X20503   4.433   2.265   8.866  2.2543  2.1404 -0.6747
  179SLPC  H11Y20504   4.372   2.398   8.755 -1.7256  1.6973  0.6970
  179SLPC  C31220505   4.229   2.268   8.846  0.1274  0.6595 -0.2017
  179SLPC  H12X20506   4.142   2.336   8.857 -0.4016 -0.3039  2.5502
  179SLPC  H12Y20507   4.213   2.205   8.936  0.9688 -2.3032 -1.9802
  179SLPC  C31320508   4.210   2.183   8.717 -0.7051  0.2809 -0.1365
  179SLPC  H13X20509   4.304   2.125   8.701  0.2952  1.9415 -0.5721
  179SLPC  H13Y20510   4.197   2.264   8.642 -0.7942  1.0235  0.6648
  179SLPC  C31420511   4.090   2.084   8.711 -0.4277  0.2892  0.4686
  179SLPC  H14X20512   4.092   2.041   8.609  0.9460  3.9539 -1.2137
  179SLPC  H14Y20513   3.995   2.139   8.727  0.9302  2.3713  1.9007
  179SLPC  C31520514   4.098   1.974   8.822  0.7219  0.1913  0.0622
  179SLPC  H15X20515   4.063   2.026   8.914  2.5180 -0.3381  1.1142
  179SLPC  H15Y20516   4.204   1.943   8.836  0.3967 -0.7903  0.4669
  179SLPC  C31620517   4.016   1.842   8.801 -0.5839  0.2581 -0.0778
  179SLPC  H16X20518   4.073   1.799   8.715  0.4450  1.5816 -0.1006
  179SLPC  H16Y20519   3.911   1.862   8.770 -0.5649 -1.1887 -1.1784
  179SLPC  C31720520   4.025   1.755   8.927  0.4118  0.3379 -0.2002
  179SLPC  H17X20521   4.044   1.823   9.013 -0.1353  0.0108  0.1829
  179SLPC  H17Y20522   4.114   1.690   8.917  0.5796  0.6689 -0.9090
  179SLPC  C31820523   3.898   1.670   8.948 -0.7271  0.0800  0.1252
  179SLPC  H18X20524   3.874   1.612   8.856 -1.3469 -0.8844  0.8868
  179SLPC  H18Y20525   3.811   1.738   8.964  0.2791  0.9634  2.1605
  179SLPC  H18Z20526   3.897   1.616   9.045 -1.2843  3.7937  2.3741
  180SLPC     N20527   4.193   6.167  10.660  0.4699  0.7766 -0.6667
  180SLPC   C1320528   4.173   6.126  10.514  0.5585 -0.6092  0.5530
  180SLPC  H13A20529   4.113   6.199  10.460 -0.0790 -0.7475  1.0652
  180SLPC  H13B20530   4.263   6.116  10.455  0.7593  0.1411  0.7219
  180SLPC  H13C20531   4.112   6.038  10.508  0.1410 -0.2886  0.0169
  180SLPC   C1420532   4.069   6.216  10.728  0.2504  0.8755  0.6596
  180SLPC  H14A20533   4.045   6.309  10.678 -0.0776 -0.9746 -2.9980
  180SLPC  H14B20534   3.979   6.162  10.701  1.1633  0.0907 -1.0124
  180SLPC  H14C20535   4.082   6.233  10.834  0.3199  0.8453  0.6554
  180SLPC   C1520536   4.284   6.282  10.675  0.1361 -0.1266 -0.2933
  180SLPC  H15A20537   4.241   6.365  10.621 -0.0811 -0.0725 -0.0401
  180SLPC  H15B20538   4.323   6.308  10.773 -0.3132  0.9626 -0.3889
  180SLPC  H15C20539   4.375   6.251  10.626 -0.4881 -2.3892 -0.1411
  180SLPC   C1220540   4.252   6.045  10.735 -0.4883  0.2480  0.8475
  180SLPC  H12A20541   4.275   6.068  10.838  1.5199 -1.4588  0.8422
  180SLPC  H12B20542   4.350   6.024  10.697 -0.3223  2.7577 -0.3448
  180SLPC   C1120543   4.165   5.916  10.736 -0.2428 -0.1099  0.6389
  180SLPC  H11A20544   4.163   5.869  10.635  1.7731  3.9240 -1.5045
  180SLPC  H11B20545   4.059   5.930  10.768 -0.5317 -1.3612  0.3082
  180SLPC     P20546   4.347   5.744  10.809 -0.4446  0.9154  0.0655
  180SLPC   O1320547   4.422   5.731  10.938  0.4914 -0.0711 -0.0632
  180SLPC   O1420548   4.287   5.614  10.765  0.4340  0.3136  0.0754
  180SLPC   O1220549   4.222   5.833  10.836 -0.3815  0.7576 -0.1065
  180SLPC   O1120550   4.427   5.809  10.692  0.3668  0.4329 -0.6551
  180SLPC    C120551   4.544   5.744  10.652  0.1011 -0.6721  0.8126
  180SLPC    HA20552   4.632   5.811  10.653 -0.5911  0.3142 -0.5812
  180SLPC    HB20553   4.578   5.649  10.699 -1.2603 -0.7493  1.6959
  180SLPC    C220554   4.539   5.710  10.498  0.2862 -0.1985  0.1962
  180SLPC    HS20555   4.519   5.801  10.437  0.4827 -0.6000 -0.4822
  180SLPC   O2120556   4.437   5.607  10.484 -0.3040  0.5434 -0.9023
  180SLPC   C2120557   4.318   5.644  10.443  0.9054 -0.2719 -0.3772
  180SLPC   O2220558   4.294   5.749  10.386 -0.1339 -0.5669  0.3136
  180SLPC   C2220559   4.218   5.527  10.460 -0.0977 -0.3470  0.7448
  180SLPC   H2R20560   4.276   5.444  10.506 -0.5604 -1.0388  0.0950
  180SLPC   H2S20561   4.147   5.559  10.539  1.9106  3.1907  1.3385
  180SLPC    C320562   4.671   5.651  10.446 -0.6093 -0.0243 -0.3827
  180SLPC    HX20563   4.702   5.568  10.512 -0.7430  0.8382  0.8023
  180SLPC    HY20564   4.748   5.732  10.455  1.0006 -1.4590 -0.7395
  180SLPC   O3120565   4.655   5.604  10.314  0.1093  0.9569  0.4236
  180SLPC   C3120566   4.671   5.692  10.225  0.5014 -0.2887 -0.0131
  180SLPC   O3220567   4.711   5.807  10.245  0.2693  0.2301 -0.4047
  180SLPC   C3220568   4.659   5.631  10.089 -0.1388  0.6719  1.0080
  180SLPC   H2X20569   4.552   5.608  10.071  0.0641 -2.2488  3.0041
  180SLPC   H2Y20570   4.702   5.529  10.100 -1.4498 -0.0032  0.1388
  180SLPC   C2320571   4.154   5.485  10.332 -0.2521 -0.2481  0.4989
  180SLPC   H3R20572   4.102   5.577  10.296  1.2941  0.4026 -0.1455
  180SLPC   H3S20573   4.077   5.406  10.348 -0.8575  0.5941  1.9413
  180SLPC   C2420574   4.250   5.431  10.227  0.2717  0.1000  0.2527
  180SLPC   H4R20575   4.325   5.356  10.259 -0.9577 -0.7838  1.1406
  180SLPC   H4S20576   4.312   5.518  10.196 -1.2381  1.2977  0.4990
  180SLPC   C2520577   4.182   5.375  10.098 -0.3730 -0.5109  0.9592
  180SLPC   H5R20578   4.257   5.384  10.017  1.1332  1.7123  2.4784
  180SLPC   H5S20579   4.106   5.452  10.069 -0.1957 -1.1967 -1.5142
  180SLPC   C2620580   4.128   5.228  10.105 -0.1195 -0.2581 -0.1640
  180SLPC   H6R20581   4.062   5.222  10.194 -1.1275 -0.1932 -0.8898
  180SLPC   H6S20582   4.207   5.157  10.136 -0.4363 -0.8473 -0.6845
  180SLPC   C2720583   4.066   5.168   9.980 -0.0937 -0.0500 -0.5172
  180SLPC   H7R20584   4.027   5.066   9.997 -0.9459  0.4970  0.9764
  180SLPC   H7S20585   4.141   5.159   9.898 -2.2422  0.5584 -2.6999
  180SLPC   C2820586   3.954   5.254   9.917 -0.0024 -0.4179  1.1686
  180SLPC   H8R20587   4.004   5.352   9.897  1.4590 -0.9215  2.2560
  180SLPC   H8S20588   3.871   5.260   9.990 -1.4693  3.8913 -0.5039
  180SLPC   C2920589   3.897   5.187   9.793 -0.3552 -0.2320  0.0649
  180SLPC   H9R20590   3.893   5.077   9.796 -1.2904 -0.1869  1.9299
  180SLPC  C21020591   3.870   5.251   9.681  0.5673  0.3051  0.3558
  180SLPC  H10R20592   3.829   5.194   9.596 -1.9064  0.5658  1.2900
  180SLPC  C21120593   3.887   5.400   9.651 -0.2662 -0.6047 -0.4251
  180SLPC  H11R20594   3.894   5.393   9.541 -0.8091 -0.2114 -0.4927
  180SLPC  H11S20595   3.984   5.438   9.688 -0.6049  0.1445 -0.2904
  180SLPC  C21220596   3.769   5.486   9.694  0.1700 -0.1521  0.0243
  180SLPC  H12R20597   3.737   5.476   9.798 -4.3360 -0.6784 -1.2271
  180SLPC  C21320598   3.688   5.565   9.618  0.4279 -0.1230  0.4340
  180SLPC  H13R20599   3.601   5.612   9.667 -1.1245 -1.9455 -0.4530
  180SLPC  C21420600   3.704   5.594   9.471 -0.9024 -0.7472 -0.2648
  180SLPC  H14R20601   3.811   5.580   9.444 -0.7475 -1.4059  0.6316
  180SLPC  H14S20602   3.666   5.696   9.451 -2.3054 -0.8682  1.5382
  180SLPC  C21520603   3.623   5.500   9.381  0.6578 -0.2147 -0.7854
  180SLPC  H15R20604   3.523   5.530   9.418  2.1802  2.4230  1.6131
  180SLPC  H15S20605   3.629   5.390   9.400  0.0966 -0.6522 -2.8935
  180SLPC  C21620606   3.628   5.527   9.232  0.5879  0.1109 -0.1598
  180SLPC  H16R20607   3.628   5.636   9.213  0.5074  0.3765  1.2490
  180SLPC  H16S20608   3.539   5.483   9.183  0.4690 -0.2258  0.3582
  180SLPC  C21720609   3.760   5.479   9.162  0.8135 -0.1573 -0.4729
  180SLPC  H17R20610   3.771   5.371   9.183  0.9755  0.1531  1.1689
  180SLPC  H17S20611   3.846   5.535   9.205  1.0436  0.0224 -1.1380
  180SLPC  C21820612   3.765   5.508   9.014 -0.5992 -0.3606  0.2778
  180SLPC  H18R20613   3.862   5.473   8.971 -0.6210  0.2892 -0.3152
  180SLPC  H18S20614   3.752   5.617   9.001 -2.2754 -0.3787  1.4719
  180SLPC  H18T20615   3.682   5.448   8.971 -1.0642  1.3253 -1.2723
  180SLPC   C3320616   4.731   5.697   9.969 -0.1639 -0.3545  0.2176
  180SLPC   H3X20617   4.838   5.712   9.991  0.2678 -0.8724 -1.3582
  180SLPC   H3Y20618   4.689   5.799   9.951  2.1286  0.4233 -1.1883
  180SLPC   C3420619   4.738   5.623   9.833  0.2089 -0.6454 -0.4115
  180SLPC   H4X20620   4.647   5.559   9.830 -1.8940  2.1924 -0.7488
  180SLPC   H4Y20621   4.823   5.552   9.831  0.2363 -0.5992 -1.2227
  180SLPC   C3520622   4.740   5.718   9.711 -0.2337 -0.0362  0.3143
  180SLPC   H5X20623   4.848   5.745   9.704  0.8824 -3.5504  1.7001
  180SLPC   H5Y20624   4.680   5.810   9.726  1.7496  1.5252 -0.7796
  180SLPC   C3620625   4.694   5.647   9.582 -0.0298 -0.8933  0.4355
  180SLPC   H6X20626   4.586   5.621   9.586 -0.4000 -0.0806 -2.3692
  180SLPC   H6Y20627   4.754   5.556   9.559 -0.2252 -0.2503 -3.2094
  180SLPC   C3720628   4.720   5.737   9.457 -0.5645  0.4423 -0.4171
  180SLPC   H7X20629   4.816   5.788   9.482 -0.7819  0.3689  0.6276
  180SLPC   H7Y20630   4.642   5.816   9.457 -0.7504  0.3400  1.9203
  180SLPC   C3820631   4.734   5.669   9.320 -0.3145  0.2053 -0.1412
  180SLPC   H8X20632   4.807   5.585   9.329  1.0409  1.5145  2.2213
  180SLPC   H8Y20633   4.764   5.746   9.246 -2.2730 -0.5846 -1.8640
  180SLPC   C3920634   4.602   5.608   9.269 -0.5404  0.2632 -0.0215
  180SLPC   H9X20635   4.527   5.689   9.262 -0.0974  0.6007 -1.0316
  180SLPC   H9Y20636   4.552   5.536   9.338 -0.6394  1.4960  1.2272
  180SLPC  C31020637   4.609   5.560   9.119 -0.3069  0.1843 -0.2129
  180SLPC  H10X20638   4.532   5.480   9.111 -0.8855  0.7385 -0.2088
  180SLPC  H10Y20639   4.709   5.512   9.105  1.1475  1.8868  3.0538
  180SLPC  C31120640   4.592   5.661   9.005  0.2293 -0.6261 -0.5037
  180SLPC  H11X20641   4.659   5.747   9.028 -1.5579  0.3129  1.5752
  180SLPC  H11Y20642   4.487   5.696   9.008 -0.2997 -1.9306 -2.1249
  180SLPC  C31220643   4.623   5.619   8.861 -0.2138  0.7232  0.4006
  180SLPC  H12X20644   4.589   5.515   8.845  0.6681  0.4111  0.4888
  180SLPC  H12Y20645   4.734   5.613   8.848 -0.2787 -0.4410  0.3106
  180SLPC  C31320646   4.575   5.720   8.755  0.5031 -0.0691 -0.5288
  180SLPC  H13X20647   4.610   5.823   8.778  1.5175 -0.8034  1.5005
  180SLPC  H13Y20648   4.464   5.721   8.750  0.5493  1.4547 -1.9744
  180SLPC  C31420649   4.629   5.676   8.617 -0.3923 -0.4089 -0.1497
  180SLPC  H14X20650   4.581   5.732   8.534 -0.4121  2.8750  1.9199
  180SLPC  H14Y20651   4.602   5.570   8.598 -0.5455  0.0051 -2.6081
  180SLPC  C31520652   4.780   5.710   8.599 -0.2008 -0.4218 -0.7636
  180SLPC  H15X20653   4.851   5.655   8.665 -2.4166 -0.8809  1.4035
  180SLPC  H15Y20654   4.786   5.817   8.627  0.9836 -0.7002  0.1251
  180SLPC  C31620655   4.818   5.688   8.455 -0.0610  0.0682 -0.2455
  180SLPC  H16X20656   4.781   5.773   8.395 -2.0485 -0.8707 -0.4432
  180SLPC  H16Y20657   4.779   5.595   8.409  0.3975 -0.0525 -0.4012
  180SLPC  C31720658   4.974   5.686   8.435  0.2784 -0.2278  0.4639
  180SLPC  H17X20659   4.990   5.643   8.334 -3.0152  0.0827 -0.3007
  180SLPC  H17Y20660   5.024   5.608   8.497  2.3753  1.1505  0.5820
  180SLPC  C31820661   5.047   5.811   8.437  0.1601 -0.7357  0.3594
  180SLPC  H18X20662   5.033   5.896   8.366 -0.4642  0.4892  1.8957
  180SLPC  H18Y20663   5.158   5.804   8.446  0.0276 -2.7703  0.9230
  180SLPC  H18Z20664   5.027   5.859   8.535 -3.2767 -0.3771 -0.3746
  181SLPC     N20665   3.395   4.848  10.908  0.4306 -0.6907 -0.6792
  181SLPC   C1320666   3.247   4.871  10.902 -0.4298 -0.2300  0.2024
  181SLPC  H13A20667   3.201   4.778  10.872 -2.3054  1.3624 -2.3107
  181SLPC  H13B20668   3.219   4.909  10.999 -0.5237  1.9615 -0.6233
  181SLPC  H13C20669   3.222   4.941  10.823 -0.3990 -3.5764 -3.0118
  181SLPC   C1420670   3.436   4.795  10.778 -0.5884 -0.3138  0.3714
  181SLPC  H14A20671   3.380   4.704  10.764  2.2704 -2.3629  1.2724
  181SLPC  H14B20672   3.412   4.872  10.705  1.6407  2.1241  2.0111
  181SLPC  H14C20673   3.543   4.781  10.778 -0.3042  1.5852  1.1248
  181SLPC   C1520674   3.430   4.750  11.013  0.1385  0.0680 -0.4736
  181SLPC  H15A20675   3.381   4.656  10.993 -1.0103  0.6329 -0.3998
  181SLPC  H15B20676   3.535   4.730  11.024  0.1594  0.0404 -0.7031
  181SLPC  H15C20677   3.391   4.774  11.111 -0.2248 -0.3601 -0.5102
  181SLPC   C1220678   3.470   4.986  10.930  0.5523 -0.1660 -0.5753
  181SLPC  H12A20679   3.446   5.047  10.844  2.1551 -0.6447 -1.3954
  181SLPC  H12B20680   3.575   4.965  10.944  0.6049  2.1092  4.7207
  181SLPC   C1120681   3.431   5.060  11.055  0.1046 -0.9152 -0.1146
  181SLPC  H11A20682   3.444   4.994  11.144 -1.1972 -1.0947 -0.0329
  181SLPC  H11B20683   3.322   5.081  11.049  0.1950 -0.3071  0.2984
  181SLPC     P20684   3.499   5.303  10.984 -0.2269  0.2155  0.1318
  181SLPC   O1320685   3.385   5.388  11.022  0.2411  0.0092  0.0642
  181SLPC   O1420686   3.636   5.367  10.997 -0.1733 -0.2100  0.0213
  181SLPC   O1220687   3.506   5.179  11.072  0.0997 -0.3435 -0.0920
  181SLPC   O1120688   3.469   5.250  10.837  0.5546 -0.0839 -0.5918
  181SLPC    C120689   3.441   5.356  10.740  0.0501 -0.4728 -0.1542
  181SLPC    HA20690   3.368   5.428  10.783 -0.4585 -0.6347 -0.7331
  181SLPC    HB20691   3.530   5.415  10.711  0.1325 -0.3820  0.2777
  181SLPC    C220692   3.383   5.294  10.607  0.3732 -0.7373 -0.5544
  181SLPC    HS20693   3.299   5.223  10.626 -0.2434 -0.1432 -1.0079
  181SLPC   O2120694   3.487   5.227  10.532  0.8089  0.0820  0.2482
  181SLPC   C2120695   3.489   5.093  10.524  0.0742  0.5466  0.8705
  181SLPC   O2220696   3.409   5.022  10.582  0.2992 -0.1138  0.1135
  181SLPC   C2220697   3.600   5.055  10.426  0.6262  0.2169 -0.1890
  181SLPC   H2R20698   3.586   5.127  10.342  1.0668  0.7943  0.2313
  181SLPC   H2S20699   3.697   5.075  10.475  0.9399 -0.6768 -0.4168
  181SLPC    C320700   3.322   5.407  10.525 -0.6060 -0.6695  1.2001
  181SLPC    HX20701   3.410   5.462  10.484  0.0476 -2.4320  0.1188
  181SLPC    HY20702   3.247   5.465  10.582 -1.6289 -1.7834  1.0185
  181SLPC   O3120703   3.263   5.360  10.402  0.3670 -0.0148  0.0460
  181SLPC   C3120704   3.157   5.283  10.409 -0.5350  0.2776 -0.3310
  181SLPC   O3220705   3.096   5.257  10.512 -0.2774  0.5539  0.1785
  181SLPC   C3220706   3.105   5.245  10.271 -0.1106 -0.6796  0.0923
  181SLPC   H2X20707   3.085   5.338  10.213 -0.4505 -1.6413 -1.3685
  181SLPC   H2Y20708   3.015   5.180  10.277 -0.3234 -0.3917  0.0827
  181SLPC   C2320709   3.585   4.912  10.384 -0.6111  0.8437  1.8323
  181SLPC   H3R20710   3.477   4.889  10.375 -0.4000 -0.2294  1.9685
  181SLPC   H3S20711   3.614   4.837  10.460 -1.0530 -2.7642 -1.2999
  181SLPC   C2420712   3.666   4.881  10.254  1.0417 -0.4375 -0.1328
  181SLPC   H4R20713   3.683   4.772  10.255 -1.0111 -0.7934 -0.1244
  181SLPC   H4S20714   3.766   4.924  10.277  1.8285 -2.4479  0.4248
  181SLPC   C2520715   3.607   4.938  10.127 -0.0309 -0.3413 -0.1407
  181SLPC   H5R20716   3.635   5.045  10.129 -0.4825 -0.2303  0.3604
  181SLPC   H5S20717   3.496   4.933  10.123 -0.1723  1.2925  0.8504
  181SLPC   C2620718   3.658   4.869   9.999  0.5192  0.8994  0.3368
  181SLPC   H6R20719   3.616   4.768   9.985  0.3414  0.7615  1.7357
  181SLPC   H6S20720   3.768   4.857  10.005  0.2335 -2.3242  0.7191
  181SLPC   C2720721   3.622   4.947   9.875  0.3625  0.1312  0.0732
  181SLPC   H7R20722   3.657   5.052   9.883 -0.8579  0.7830 -2.1655
  181SLPC   H7S20723   3.512   4.947   9.859  0.5974 -0.8368 -1.9092
  181SLPC   C2820724   3.665   4.862   9.755 -0.6079 -0.1610  0.3050
  181SLPC   H8R20725   3.618   4.764   9.779 -1.8394  0.5797  1.0645
  181SLPC   H8S20726   3.773   4.847   9.773 -0.5154  0.5145  0.3222
  181SLPC   C2920727   3.640   4.906   9.613  0.3635  0.0180  0.2913
  181SLPC   H9R20728   3.535   4.917   9.584  0.9079 -0.1905 -1.9053
  181SLPC  C21020729   3.727   4.937   9.515  0.1287 -0.1307 -0.2148
  181SLPC  H10R20730   3.689   4.974   9.418  0.5558  1.0407  0.0468
  181SLPC  C21120731   3.878   4.941   9.536  0.0007 -0.1174 -0.0906
  181SLPC  H11R20732   3.900   4.941   9.645 -0.1686  1.1060 -0.0398
  181SLPC  H11S20733   3.922   5.034   9.493 -0.2086 -1.3060 -3.1326
  181SLPC  C21220734   3.930   4.826   9.463 -0.1109  0.8642 -0.3180
  181SLPC  H12R20735   3.927   4.735   9.524  0.4932  1.6180  0.8680
  181SLPC  C21320736   3.989   4.823   9.340 -0.2457 -0.2905  0.0726
  181SLPC  H13R20737   4.023   4.725   9.303 -0.5109 -0.1933 -0.4468
  181SLPC  C21420738   4.012   4.939   9.251  0.0242  0.6551 -0.2209
  181SLPC  H14R20739   4.122   4.951   9.242  0.2489 -1.5453 -0.9962
  181SLPC  H14S20740   3.954   5.032   9.270 -0.0631  0.7785 -1.0766
  181SLPC  C21520741   3.978   4.894   9.110 -0.2930  0.0385  0.0506
  181SLPC  H15R20742   4.040   4.804   9.086 -2.0541 -1.0785 -0.5178
  181SLPC  H15S20743   4.017   4.973   9.043 -0.2586 -0.1753 -0.1844
  181SLPC  C21620744   3.833   4.868   9.074  0.3221  0.4199 -0.2684
  181SLPC  H16R20745   3.792   4.784   9.133 -0.1037  0.1387 -0.9630
  181SLPC  H16S20746   3.839   4.824   8.973  4.6044  0.0771 -0.0401
  181SLPC  C21720747   3.737   4.984   9.093 -0.6508 -0.4239 -0.0060
  181SLPC  H17R20748   3.716   4.987   9.202  1.2620 -1.7172  0.4474
  181SLPC  H17S20749   3.651   4.960   9.026  0.0975  1.7444 -1.8760
  181SLPC  C21820750   3.787   5.119   9.047 -0.4555 -0.8243  0.7814
  181SLPC  H18R20751   3.715   5.204   9.049  1.9816  1.3945  0.1803
  181SLPC  H18S20752   3.828   5.109   8.944  0.6952  0.3635  1.0993
  181SLPC  H18T20753   3.875   5.147   9.109 -0.1820 -0.6358  0.3119
  181SLPC   C3320754   3.213   5.167  10.196  0.6859  0.0152  0.3462
  181SLPC   H3X20755   3.253   5.084  10.259  2.5501 -0.3065 -1.1606
  181SLPC   H3Y20756   3.298   5.230  10.163  1.6639 -1.2616  0.3438
  181SLPC   C3420757   3.164   5.106  10.056 -0.3095 -0.1897 -0.3357
  181SLPC   H4X20758   3.098   5.020  10.082 -0.2924  0.1610  0.9047
  181SLPC   H4Y20759   3.253   5.076   9.996  0.8127  0.8389  0.7674
  181SLPC   C3520760   3.086   5.209   9.971  1.0177 -0.5921  0.5092
  181SLPC   H5X20761   3.134   5.302   9.933 -4.6490  1.9595 -1.6493
  181SLPC   H5Y20762   3.000   5.254  10.027  1.2789  0.0087  0.4410
  181SLPC   C3620763   3.041   5.142   9.834  0.1239 -0.6065 -0.5875
  181SLPC   H6X20764   2.993   5.046   9.866  2.2073 -0.9705  1.7567
  181SLPC   H6Y20765   3.134   5.114   9.781  0.7831  0.4619 -0.0331
  181SLPC   C3720766   2.958   5.227   9.733  0.3933 -0.4747 -0.6451
  181SLPC   H7X20767   2.992   5.332   9.737  0.6432 -0.5946  1.2130
  181SLPC   H7Y20768   2.851   5.235   9.763  0.4242 -0.1349 -0.6240
  181SLPC   C3820769   2.968   5.174   9.596  0.6243  0.6293  0.0282
  181SLPC   H8X20770   2.946   5.065   9.602 -2.1843  1.2167  2.7219
  181SLPC   H8Y20771   3.072   5.201   9.569  0.3610  1.3929 -0.2534
  181SLPC   C3920772   2.886   5.244   9.495  0.1224 -0.3172 -0.1869
  181SLPC   H9X20773   2.881   5.353   9.516 -0.1887 -0.7869  2.5848
  181SLPC   H9Y20774   2.780   5.218   9.516  0.0861  1.7757  2.8729
  181SLPC  C31020775   2.928   5.208   9.355 -0.0820  0.3357  0.1363
  181SLPC  H10X20776   2.902   5.104   9.328 -1.1608  0.7236 -0.3584
  181SLPC  H10Y20777   3.037   5.226   9.344  0.1106  1.3437  3.0393
  181SLPC  C31120778   2.858   5.297   9.241 -0.4688 -1.2130 -0.3117
  181SLPC  H11X20779   2.902   5.399   9.240 -0.3594 -1.2499 -2.0002
  181SLPC  H11Y20780   2.750   5.311   9.266  0.3762  0.0534  3.1027
  181SLPC  C31220781   2.862   5.238   9.097  0.1339  0.0604  0.5971
  181SLPC  H12X20782   2.822   5.135   9.101 -2.9821  0.8119 -3.8671
  181SLPC  H12Y20783   2.968   5.234   9.064  0.1455  2.6569  0.0809
  181SLPC  C31320784   2.789   5.310   8.994  0.5779  0.3357 -0.3754
  181SLPC  H13X20785   2.809   5.419   8.997  1.4040  0.1630  0.9731
  181SLPC  H13Y20786   2.679   5.311   9.009  0.3568  4.2359 -1.2305
  181SLPC  C31420787   2.807   5.274   8.843 -0.2466 -0.4903 -0.4016
  181SLPC  H14X20788   2.913   5.270   8.809  0.3149  0.6951  1.1032
  181SLPC  H14Y20789   2.756   5.350   8.781  0.9667 -0.4032 -1.3236
  181SLPC  C31520790   2.735   5.139   8.809 -0.3873 -0.3807 -0.7188
  181SLPC  H15X20791   2.629   5.152   8.839 -0.8382 -0.1073 -2.3420
  181SLPC  H15Y20792   2.778   5.049   8.858 -1.2923 -0.6700 -0.4443
  181SLPC  C31620793   2.754   5.099   8.662 -0.1980  0.3776  0.4766
  181SLPC  H16X20794   2.858   5.103   8.624 -0.5160 -0.5210 -0.5371
  181SLPC  H16Y20795   2.697   5.170   8.599  0.2238  0.0564 -0.2747
  181SLPC  C31720796   2.683   4.952   8.647 -0.1820 -0.6689 -0.7957
  181SLPC  H17X20797   2.592   4.962   8.710  1.4459  0.1063  1.6022
  181SLPC  H17Y20798   2.755   4.878   8.688  2.0019  1.4388 -0.5962
  181SLPC  C31820799   2.655   4.913   8.502  0.3317  0.2330  0.2195
  181SLPC  H18X20800   2.752   4.894   8.450  1.0869  1.0260  1.2933
  181SLPC  H18Y20801   2.588   4.981   8.445  0.3675 -0.4694 -0.6948
  181SLPC  H18Z20802   2.607   4.814   8.514  1.4617 -0.2367  1.0145
  182SLPC     N20803   0.781   4.726  10.839  0.1404  0.0534 -0.4041
  182SLPC   C1320804   0.848   4.659  10.957 -0.1151 -0.2239 -0.1095
  182SLPC  H13A20805   0.850   4.727  11.041  0.0025 -2.0184  1.4321
  182SLPC  H13B20806   0.799   4.565  10.979 -1.1351 -0.5987 -3.5149
  182SLPC  H13C20807   0.952   4.633  10.945 -0.4576 -1.4652 -0.5404
  182SLPC   C1420808   0.636   4.755  10.876  0.7592  0.6102  0.8450
  182SLPC  H14A20809   0.577   4.670  10.908 -0.3080  0.8502 -0.3868
  182SLPC  H14B20810   0.639   4.834  10.950 -0.0042  0.9039  0.5760
  182SLPC  H14C20811   0.591   4.802  10.790  2.9839  0.4372 -0.5041
  182SLPC   C1520812   0.769   4.620  10.735 -0.3471  0.0069  0.2162
  182SLPC  H15A20813   0.764   4.524  10.784  0.0803  1.3642  3.1121
  182SLPC  H15B20814   0.694   4.628  10.658 -0.0672 -0.0940 -0.0733
  182SLPC  H15C20815   0.860   4.601  10.679 -0.6685  3.0644 -1.6034
  182SLPC   C1220816   0.854   4.840  10.781  0.0203 -0.1223 -0.2512
  182SLPC  H12A20817   0.789   4.875  10.702  2.0765  1.1306 -1.5134
  182SLPC  H12B20818   0.948   4.817  10.733  0.0782  2.9026 -1.8722
  182SLPC   C1120819   0.876   4.966  10.869  0.7487 -0.0103  0.0500
  182SLPC  H11A20820   0.934   5.043  10.814 -0.1191 -0.7095 -1.9268
  182SLPC  H11B20821   0.929   4.938  10.963  2.1084 -1.4260 -1.0827
  182SLPC     P20822   0.676   5.126  10.842  0.0757  0.3537 -0.3515
  182SLPC   O1320823   0.553   5.150  10.919 -0.0776 -0.1051  0.7432
  182SLPC   O1420824   0.761   5.244  10.821  0.2580 -0.0653 -0.0203
  182SLPC   O1220825   0.758   5.026  10.926 -0.3194  0.4776 -0.0570
  182SLPC   O1120826   0.649   5.049  10.704  0.6372  0.3182 -0.3838
  182SLPC    C120827   0.554   5.104  10.609  1.0076 -0.0582 -0.4105
  182SLPC    HA20828   0.457   5.113  10.661  1.8494  1.5819  0.9541
  182SLPC    HB20829   0.595   5.195  10.561  0.1174  0.0827 -0.9196
  182SLPC    C220830   0.528   5.008  10.490  0.1363  0.6226  0.3316
  182SLPC    HS20831   0.491   4.914  10.536 -1.2836  0.9866 -0.0033
  182SLPC   O2120832   0.649   4.988  10.417  0.5757 -0.0142  0.0223
  182SLPC   C2120833   0.718   4.871  10.442  0.1059 -0.0797 -0.3415
  182SLPC   O2220834   0.685   4.789  10.523  0.2667 -0.3112 -0.9484
  182SLPC   C2220835   0.842   4.862  10.350 -0.0873  0.2932  0.7501
  182SLPC   H2R20836   0.918   4.936  10.382  1.6692 -0.7054 -0.9178
  182SLPC   H2S20837   0.881   4.759  10.368 -1.2901 -1.0123 -3.1573
  182SLPC    C320838   0.430   5.071  10.394  0.0385  0.0032  0.1063
  182SLPC    HX20839   0.495   5.146  10.343  0.6323 -0.2901  0.4251
  182SLPC    HY20840   0.340   5.113  10.444 -0.1853  0.9315 -1.0381
  182SLPC   O3120841   0.385   4.974  10.294 -0.2649 -0.3663  0.7642
  182SLPC   C3120842   0.317   5.029  10.191  0.5589 -0.0976 -0.2762
  182SLPC   O3220843   0.288   5.145  10.187  0.8254 -1.1204  0.4651
  182SLPC   C3220844   0.319   4.931  10.073  0.6984 -0.3586 -0.6998
  182SLPC   H2X20845   0.368   4.841  10.114  0.1785 -0.4153 -0.1879
  182SLPC   H2Y20846   0.386   4.970   9.994  0.5778  0.8302 -0.2437
  182SLPC   C2320847   0.803   4.858  10.212 -0.4761  1.0423  0.1267
  182SLPC   H3R20848   0.749   4.950  10.183 -0.7276  0.8012 -0.1804
  182SLPC   H3S20849   0.732   4.774  10.195  1.4969 -0.5610 -0.5322
  182SLPC   C2420850   0.924   4.839  10.115 -0.0172 -0.2701 -0.7025
  182SLPC   H4R20851   0.998   4.766  10.155  0.2579  0.0727 -0.5762
  182SLPC   H4S20852   0.981   4.935  10.116  0.1415 -0.3346  1.7452
  182SLPC   C2520853   0.874   4.798   9.972  0.0439 -0.2523  0.4920
  182SLPC   H5R20854   0.811   4.881   9.933  0.3996  0.2543  0.9809
  182SLPC   H5S20855   0.802   4.718   9.998  0.8958 -0.8438  1.0663
  182SLPC   C2620856   0.983   4.752   9.873 -0.0616 -0.1477  0.5911
  182SLPC   H6R20857   1.044   4.668   9.913  2.5911 -0.2315 -3.1573
  182SLPC   H6S20858   1.044   4.839   9.841 -3.1082  1.1695 -2.2335
  182SLPC   C2720859   0.923   4.698   9.741  0.1347  0.5707  0.6861
  182SLPC   H7R20860   0.918   4.782   9.668  1.7270 -1.3016 -1.7170
  182SLPC   H7S20861   0.818   4.668   9.759  0.8618 -1.9532  1.1000
  182SLPC   C2820862   0.989   4.573   9.683 -0.0972  0.1501  0.1068
  182SLPC   H8R20863   0.937   4.532   9.595  2.0756 -1.0259 -0.7178
  182SLPC   H8S20864   0.981   4.495   9.762  0.4500  1.7818  1.8612
  182SLPC   C2920865   1.133   4.602   9.652 -1.0846  0.2531 -0.1112
  182SLPC   H9R20866   1.180   4.681   9.712  0.1492 -2.2799  2.5078
  182SLPC  C21020867   1.216   4.534   9.576  0.5835 -0.5423  0.8502
  182SLPC  H10R20868   1.321   4.566   9.572  1.0504 -2.1322 -1.6372
  182SLPC  C21120869   1.189   4.412   9.486 -1.1316  0.1446 -0.8697
  182SLPC  H11R20870   1.270   4.408   9.410  0.8893  1.0426  1.1189
  182SLPC  H11S20871   1.103   4.428   9.418 -1.7878  0.5719  0.0504
  182SLPC  C21220872   1.184   4.278   9.563 -0.0660 -0.0812 -0.2972
  182SLPC  H12R20873   1.228   4.279   9.663  1.5005 -0.7754 -0.9578
  182SLPC  C21320874   1.115   4.168   9.524 -0.1101 -0.1505 -0.0590
  182SLPC  H13R20875   1.113   4.079   9.588 -2.0627  0.0121  0.1714
  182SLPC  C21420876   1.036   4.136   9.397 -0.0208 -0.1806 -0.9061
  182SLPC  H14R20877   1.105   4.069   9.341 -0.2339 -0.6962 -0.5612
  182SLPC  H14S20878   1.021   4.227   9.335  0.7241  0.5313 -0.0612
  182SLPC  C21520879   0.900   4.068   9.399  0.2759 -0.8041  0.6803
  182SLPC  H15R20880   0.911   3.967   9.443  3.0872 -0.5145  0.8249
  182SLPC  H15S20881   0.862   4.064   9.294 -1.3830  0.7587  1.1617
  182SLPC  C21620882   0.775   4.150   9.447 -0.1096  0.9545 -1.0030
  182SLPC  H16R20883   0.789   4.175   9.554 -0.6163  1.4958 -1.0581
  182SLPC  H16S20884   0.687   4.084   9.458  0.4244  0.4816  0.5791
  182SLPC  C21720885   0.741   4.277   9.372 -0.2363  0.8300 -0.4096
  182SLPC  H17R20886   0.707   4.255   9.268 -0.0209 -1.8102  0.0046
  182SLPC  H17S20887   0.829   4.344   9.361  1.0583 -0.9886 -1.8095
  182SLPC  C21820888   0.620   4.347   9.439 -0.1584  0.3645  0.9821
  182SLPC  H18R20889   0.646   4.377   9.543 -0.5305 -0.7553  1.4159
  182SLPC  H18S20890   0.532   4.279   9.444  0.3607 -0.5974 -1.4633
  182SLPC  H18T20891   0.601   4.434   9.374  0.1761 -1.0237 -1.0587
  182SLPC   C3320892   0.171   4.896  10.021 -0.3398 -0.5242 -0.3886
  182SLPC   H3X20893   0.118   4.831  10.093  0.5069 -1.8933 -0.9715
  182SLPC   H3Y20894   0.180   4.830   9.932 -0.5784  2.2560 -2.6288
  182SLPC   C3420895   0.090   5.027   9.983 -0.4506  0.3739  0.8452
  182SLPC   H4X20896   0.082   5.103  10.063  0.1956  2.3629 -0.8990
  182SLPC   H4Y20897  -0.013   4.996   9.954  0.4673  0.3682 -3.0000
  182SLPC   C3520898   0.154   5.103   9.865 -0.0044  0.7989  0.5622
  182SLPC   H5X20899   0.263   5.121   9.884  0.2139  1.5652 -1.2588
  182SLPC   H5Y20900   0.101   5.201   9.863  0.3840  1.0083  0.3489
  182SLPC   C3620901   0.147   5.025   9.733  0.3280  0.1235 -0.4795
  182SLPC   H6X20902   0.050   5.041   9.682 -0.1540  1.5788  0.7858
  182SLPC   H6Y20903   0.166   4.918   9.755 -1.8756 -0.2416 -0.0722
  182SLPC   C3720904   0.248   5.082   9.632  0.1070  0.1342  0.2684
  182SLPC   H7X20905   0.256   5.003   9.554  1.4624  0.3656  0.1480
  182SLPC   H7Y20906   0.343   5.071   9.688 -0.0620 -1.9331  0.2341
  182SLPC   C3820907   0.234   5.220   9.582  0.0873 -0.7163 -0.0080
  182SLPC   H8X20908   0.333   5.252   9.543  1.2128 -1.8263  1.8016
  182SLPC   H8Y20909   0.188   5.288   9.656 -0.3540 -1.1210  0.0926
  182SLPC   C3920910   0.147   5.224   9.451  0.8198 -0.1696  0.7492
  182SLPC   H9X20911   0.042   5.229   9.490 -0.0628 -4.4939 -0.5803
  182SLPC   H9Y20912   0.161   5.127   9.400  0.4456  0.3413 -0.3527
  182SLPC  C31020913   0.172   5.341   9.351  1.0335 -0.3479 -0.9072
  182SLPC  H10X20914   0.224   5.423   9.406 -0.8028 -0.0352  0.4466
  182SLPC  H10Y20915   0.073   5.379   9.318  2.2508  3.5326 -0.6239
  182SLPC  C31120916   0.253   5.298   9.240  0.1711 -0.2195  0.1400
  182SLPC  H11X20917   0.218   5.203   9.194 -0.2319 -0.2293  0.4676
  182SLPC  H11Y20918   0.350   5.271   9.287  0.7057 -0.9268 -1.2876
  182SLPC  C31220919   0.292   5.399   9.132 -0.0555  0.3061 -0.0762
  182SLPC  H12X20920   0.360   5.356   9.056  1.2424 -0.7221  1.6032
  182SLPC  H12Y20921   0.340   5.484   9.186  0.0036  0.1236  0.1577
  182SLPC  C31320922   0.170   5.437   9.052  0.5112  0.2635  0.7783
  182SLPC  H13X20923   0.218   5.498   8.972  0.8227 -2.0852 -0.9320
  182SLPC  H13Y20924   0.110   5.504   9.117  0.3107  0.1135  0.7473
  182SLPC  C31420925   0.100   5.312   8.993  0.2882 -0.0101 -0.2761
  182SLPC  H14X20926   0.053   5.260   9.079 -0.4851  2.1199  0.6541
  182SLPC  H14Y20927   0.161   5.239   8.935  2.4399  0.8709  0.7814
  182SLPC  C31520928  -0.018   5.358   8.900  0.0983  0.6995 -0.4422
  182SLPC  H15X20929   0.037   5.421   8.827  1.4646 -1.3121 -1.2047
  182SLPC  H15Y20930  -0.087   5.424   8.958 -0.9466 -0.1961 -0.6292
  182SLPC  C31620931  -0.075   5.231   8.829  0.1874  0.3651 -0.6268
  182SLPC  H16X20932  -0.141   5.175   8.898  1.3474  0.0898  0.2899
  182SLPC  H16Y20933   0.010   5.166   8.800  0.3896 -0.3190  1.3991
  182SLPC  C31720934  -0.163   5.262   8.702  0.3263 -0.6771  0.0697
  182SLPC  H17X20935  -0.232   5.335   8.749  0.0879 -2.4288  2.7266
  182SLPC  H17Y20936  -0.212   5.170   8.664  2.6065 -1.6962 -0.5735
  182SLPC  C31820937  -0.071   5.307   8.582 -0.4211 -0.1300 -0.4719
  182SLPC  H18X20938   0.004   5.384   8.608  0.1129 -0.5180 -0.8374
  182SLPC  H18Y20939  -0.134   5.339   8.496  0.6049  2.0920 -0.4517
  182SLPC  H18Z20940  -0.017   5.216   8.546 -0.1781  0.5034 -1.7788
  183SLPC     N20941   3.709   4.252  11.165  0.2505  0.4084 -0.1456
  183SLPC   C1320942   3.780   4.233  11.293  0.3701 -0.0056 -0.0409
  183SLPC  H13A20943   3.713   4.206  11.373  0.7188 -3.3105 -0.7146
  183SLPC  H13B20944   3.856   4.156  11.293  1.3575  0.9424 -0.2604
  183SLPC  H13C20945   3.830   4.325  11.321  0.3359  0.9018 -2.6864
  183SLPC   C1420946   3.606   4.367  11.183 -0.1237  1.3160  0.0302
  183SLPC  H14A20947   3.663   4.454  11.213  0.4116  0.5976  1.1670
  183SLPC  H14B20948   3.559   4.382  11.087  1.4330 -1.7989 -1.3554
  183SLPC  H14C20949   3.533   4.343  11.260 -0.7563  1.8176 -0.4009
  183SLPC   C1520950   3.636   4.124  11.128  0.2465 -0.1072  0.4215
  183SLPC  H15A20951   3.705   4.042  11.114  2.3177  1.4956  0.8117
  183SLPC  H15B20952   3.572   4.107  11.213 -0.4486  0.8361  0.1098
  183SLPC  H15C20953   3.579   4.142  11.038  1.6109  1.0966 -0.2408
  183SLPC   C1220954   3.800   4.275  11.053  0.2012 -0.1924 -0.4710
  183SLPC  H12A20955   3.881   4.204  11.051  0.8261  0.5148 -0.7617
  183SLPC  H12B20956   3.848   4.371  11.070  0.1865 -0.3354  0.4735
  183SLPC   C1120957   3.735   4.277  10.914  0.2744 -0.4565 -0.9031
  183SLPC  H11A20958   3.717   4.173  10.877 -0.8991 -1.2957  1.7870
  183SLPC  H11B20959   3.815   4.305  10.842  0.0028  1.8847 -0.3554
  183SLPC     P20960   3.474   4.331  10.856 -0.4070 -0.3580 -0.1259
  183SLPC   O1320961   3.419   4.214  10.929 -0.5244  0.2373  0.3263
  183SLPC   O1420962   3.402   4.459  10.858 -0.8723 -0.0099 -0.6070
  183SLPC   O1220963   3.623   4.356  10.902  0.6146  0.3384 -0.1863
  183SLPC   O1120964   3.505   4.284  10.712 -0.4334  0.0043  0.3905
  183SLPC    C120965   3.527   4.385  10.615  0.7769 -0.9713  1.0746
  183SLPC    HA20966   3.531   4.489  10.655 -0.4898  0.9706 -3.2322
  183SLPC    HB20967   3.622   4.373  10.560 -0.2747  0.3768 -1.2092
  183SLPC    C220968   3.427   4.394  10.498  0.9102  0.4104  0.0814
  183SLPC    HS20969   3.328   4.421  10.541 -0.1199  1.0689 -2.5244
  183SLPC   O2120970   3.426   4.269  10.428 -0.4903  0.7317  0.5544
  183SLPC   C2120971   3.310   4.242  10.360 -0.1925 -0.1980  0.2192
  183SLPC   O2220972   3.207   4.301  10.372 -0.4612 -0.2460  0.0545
  183SLPC   C2220973   3.324   4.109  10.281  0.3198  0.1410 -0.2538
  183SLPC   H2R20974   3.431   4.083  10.268  0.7180  1.4789  0.2118
  183SLPC   H2S20975   3.283   4.030  10.347  0.3746  0.7653  0.5512
  183SLPC    C320976   3.464   4.506  10.399 -0.0043  0.2034 -0.4412
  183SLPC    HX20977   3.558   4.467  10.354 -0.3311  1.7546 -2.6187
  183SLPC    HY20978   3.482   4.605  10.446  0.3758  0.8918 -1.9810
  183SLPC   O3120979   3.378   4.517  10.280  0.6137  0.3188 -0.6867
  183SLPC   C3120980   3.268   4.588  10.300  0.5351  0.6049  0.3838
  183SLPC   O3220981   3.238   4.639  10.409 -0.0688 -0.0799 -0.6509
  183SLPC   C3220982   3.178   4.611  10.172  0.3718  0.1837 -0.0168
  183SLPC   H2X20983   3.070   4.614  10.196  0.0261 -0.9400 -1.2758
  183SLPC   H2Y20984   3.202   4.528  10.102  1.3722  0.5986 -0.1789
  183SLPC   C2320985   3.245   4.095  10.148  0.2111 -0.0924 -0.4583
  183SLPC   H3R20986   3.146   4.137  10.177  0.6159  0.5040  0.0626
  183SLPC   H3S20987   3.235   3.988  10.118 -1.4318  0.1555 -0.9412
  183SLPC   C2420988   3.310   4.162  10.033 -0.0971 -0.1033  0.3879
  183SLPC   H4R20989   3.402   4.104  10.011  1.1521  1.4824  1.2582
  183SLPC   H4S20990   3.351   4.262  10.058 -1.6404  1.0393 -1.3923
  183SLPC   C2520991   3.223   4.185   9.909 -0.0998  0.2961  0.2045
  183SLPC   H5R20992   3.157   4.272   9.931  0.2660  0.6883 -0.2187
  183SLPC   H5S20993   3.153   4.099   9.906  2.9120 -2.3145  0.5687
  183SLPC   C2620994   3.289   4.203   9.773 -0.1922  0.0315 -0.4204
  183SLPC   H6R20995   3.343   4.109   9.747 -1.4035 -1.0816  0.9019
  183SLPC   H6S20996   3.361   4.287   9.778  1.5776 -1.4120 -0.4117
  183SLPC   C2720997   3.197   4.224   9.645  0.3305  0.5334  0.0913
  183SLPC   H7R20998   3.117   4.290   9.685 -0.5294 -1.5867  2.1125
  183SLPC   H7S20999   3.156   4.123   9.626 -0.0295  0.8970 -1.1511
  183SLPC   C2821000   3.279   4.261   9.519 -0.4215 -0.2294 -0.1862
  183SLPC   H8R21001   3.334   4.171   9.483  2.1371  1.2543 -0.2323
  183SLPC   H8S21002   3.359   4.336   9.535  0.3144 -0.9404 -0.4335
  183SLPC   C2921003   3.195   4.296   9.400 -0.8256  0.3511 -0.1959
  183SLPC   H9R21004   3.172   4.403   9.390 -1.2897  0.1593 -1.2990
  183SLPC  C21021005   3.139   4.215   9.312 -0.1884  0.6994 -0.0944
  183SLPC  H10R21006   3.087   4.267   9.231 -1.4287  0.9880  0.8669
  183SLPC  C21121007   3.144   4.059   9.323 -0.0742 -0.6306 -0.0023
  183SLPC  H11R21008   3.100   4.040   9.423  1.2633  1.0758  0.9643
  183SLPC  H11S21009   3.248   4.022   9.315  1.3826  2.6512  1.6155
  183SLPC  C21221010   3.064   3.980   9.222  0.0357  0.5466  0.0195
  183SLPC  H12R21011   2.983   3.932   9.278  1.0045 -0.8092  0.3143
  183SLPC  C21321012   3.088   3.942   9.092 -0.1667 -0.1103  0.2581
  183SLPC  H13R21013   3.010   3.879   9.047 -0.6288 -0.0233  0.9185
  183SLPC  C21421014   3.207   3.983   9.005 -0.1381  0.0999 -0.1810
  183SLPC  H14R21015   3.254   3.894   8.960  2.0990  0.9445  0.3848
  183SLPC  H14S21016   3.286   4.017   9.075 -0.4189 -0.2863  0.3388
  183SLPC  C21521017   3.161   4.097   8.913  0.5085  0.6180  0.0856
  183SLPC  H15R21018   3.093   4.167   8.966 -1.3104 -0.4876 -0.7010
  183SLPC  H15S21019   3.092   4.069   8.831  0.1953  0.6495  0.3410
  183SLPC  C21621020   3.271   4.182   8.841  0.4013  0.7917  0.6777
  183SLPC  H16R21021   3.321   4.250   8.913  0.7801  0.6453  0.5545
  183SLPC  H16S21022   3.223   4.251   8.769 -1.6521 -1.2698 -0.0628
  183SLPC  C21721023   3.363   4.102   8.749  0.1595 -0.1846  0.5930
  183SLPC  H17R21024   3.303   4.042   8.677  1.6921 -1.2277  0.1345
  183SLPC  H17S21025   3.410   4.025   8.814  1.6097  0.3139  0.1646
  183SLPC  C21821026   3.450   4.196   8.670 -0.7273  0.3779  0.1653
  183SLPC  H18R21027   3.522   4.244   8.740 -0.9394  1.4596 -0.3429
  183SLPC  H18S21028   3.393   4.269   8.610 -0.1688  2.0148  1.5273
  183SLPC  H18T21029   3.521   4.143   8.604  0.6927  1.9022  0.4077
  183SLPC   C3321030   3.225   4.741  10.099  0.7508  0.9065  0.3728
  183SLPC   H3X21031   3.336   4.735  10.102  0.7516  0.6210 -0.1190
  183SLPC   H3Y21032   3.191   4.819  10.170  0.0100 -1.0467  2.2619
  183SLPC   C3421033   3.165   4.751   9.956  0.0244 -0.6164 -0.0801
  183SLPC   H4X21034   3.180   4.856   9.921  3.0946 -1.4456 -1.5727
  183SLPC   H4Y21035   3.055   4.737   9.960  0.1077 -1.2591  0.0938
  183SLPC   C3521036   3.237   4.656   9.869  0.4628  0.2104  0.3807
  183SLPC   H5X21037   3.216   4.555   9.911  0.0806 -0.3733 -1.1389
  183SLPC   H5Y21038   3.344   4.683   9.860  0.7205 -0.6731  0.6900
  183SLPC   C3621039   3.179   4.642   9.719  0.3495 -0.1325 -0.1106
  183SLPC   H6X21040   3.076   4.600   9.712  0.8430 -1.7666  1.5099
  183SLPC   H6Y21041   3.248   4.567   9.675 -0.6292 -1.1838  0.1003
  183SLPC   C3721042   3.173   4.779   9.638 -0.5310 -0.1969  0.2639
  183SLPC   H7X21043   3.274   4.824   9.650 -1.0743  0.8055  1.2981
  183SLPC   H7Y21044   3.106   4.861   9.672 -0.0732 -0.3744  1.6711
  183SLPC   C3821045   3.160   4.741   9.490  0.1299 -1.0825  0.4547
  183SLPC   H8X21046   3.078   4.666   9.480  0.0221 -0.8889 -0.1596
  183SLPC   H8Y21047   3.254   4.687   9.466  1.4942  1.9294 -1.8001
  183SLPC   C3921048   3.137   4.870   9.408  0.5055 -0.0943 -0.1156
  183SLPC   H9X21049   3.218   4.938   9.442  1.7995 -2.2643  1.3438
  183SLPC   H9Y21050   3.039   4.904   9.447  0.6422 -0.8563  0.9206
  183SLPC  C31021051   3.143   4.865   9.263 -0.4668 -0.2469  0.2604
  183SLPC  H10X21052   3.245   4.842   9.226  0.1679  2.7112 -0.0372
  183SLPC  H10Y21053   3.114   4.962   9.216  0.3053  0.4186  1.1456
  183SLPC  C31121054   3.051   4.764   9.197  0.1243  0.1381 -0.2297
  183SLPC  H11X21055   2.952   4.769   9.248 -0.3912  0.6776 -1.2578
  183SLPC  H11Y21056   3.086   4.660   9.217 -1.3477 -0.8072 -2.1911
  183SLPC  C31221057   3.015   4.801   9.057  0.7975  0.5631 -0.2201
  183SLPC  H12X21058   3.105   4.806   8.992  2.4165 -1.6437  1.6994
  183SLPC  H12Y21059   2.962   4.899   9.061  0.7055  0.4828  0.4995
  183SLPC  C31321060   2.911   4.704   8.996 -0.1940 -0.4583 -0.1201
  183SLPC  H13X21061   2.869   4.765   8.914  0.7279 -0.0174 -0.2787
  183SLPC  H13Y21062   2.820   4.688   9.058 -0.4256 -1.3556 -0.6727
  183SLPC  C31421063   2.971   4.567   8.964 -0.1023  0.9559 -0.5935
  183SLPC  H14X21064   2.985   4.488   9.041 -4.0622 -2.9653 -3.3879
  183SLPC  H14Y21065   3.070   4.595   8.923  0.5196  0.8808  0.7933
  183SLPC  C31521066   2.900   4.485   8.856  0.1122 -0.1282 -0.1170
  183SLPC  H15X21067   2.795   4.471   8.886  0.3606 -4.0797 -0.5565
  183SLPC  H15Y21068   2.937   4.380   8.847 -0.2608 -0.4098  1.4879
  183SLPC  C31621069   2.902   4.555   8.724 -0.8315 -0.2237  0.4308
  183SLPC  H16X21070   3.005   4.570   8.687 -0.4006 -3.2738  0.2001
  183SLPC  H16Y21071   2.846   4.651   8.729 -2.2246 -0.8738 -1.2149
  183SLPC  C31721072   2.833   4.477   8.604 -0.5030  0.0715  0.1778
  183SLPC  H17X21073   2.726   4.472   8.634  0.1135 -0.8791  2.4415
  183SLPC  H17Y21074   2.871   4.373   8.605 -1.4041 -0.2943 -0.7958
  183SLPC  C31821075   2.867   4.542   8.470 -0.6293  0.2153 -0.4585
  183SLPC  H18X21076   2.976   4.541   8.451 -0.5196  1.7516 -0.0724
  183SLPC  H18Y21077   2.824   4.645   8.472 -1.0805  0.0123  1.0796
  183SLPC  H18Z21078   2.820   4.481   8.389  1.7062 -1.1199 -0.8979
  184SLPC     N21079   4.186   3.749  10.976 -0.0004 -0.4463  0.2429
  184SLPC   C1321080   4.272   3.636  10.943 -0.4478  0.5004  0.1363
  184SLPC  H13A21081   4.307   3.586  11.032  1.1790  1.4915  0.0946
  184SLPC  H13B21082   4.221   3.567  10.878 -0.2106 -0.0001  0.4695
  184SLPC  H13C21083   4.356   3.674  10.887  1.5134 -1.7997  1.3139
  184SLPC   C1421084   4.265   3.861  11.044 -0.1482 -0.2542  0.0264
  184SLPC  H14A21085   4.314   3.824  11.132 -3.5334  0.6385  2.5260
  184SLPC  H14B21086   4.329   3.895  10.964 -0.1316 -1.7569 -0.6171
  184SLPC  H14C21087   4.208   3.947  11.075 -1.9843 -0.7430 -1.7577
  184SLPC   C1521088   4.076   3.701  11.067 -0.4379 -0.1247 -0.8760
  184SLPC  H15A21089   4.115   3.671  11.163 -3.2257 -0.0315  0.3529
  184SLPC  H15B21090   4.007   3.783  11.082  0.6250  0.2470  3.2493
  184SLPC  H15C21091   4.027   3.616  11.022  0.5440 -1.1860 -0.0135
  184SLPC   C1221092   4.123   3.801  10.849 -0.1230  0.2304  0.7959
  184SLPC  H12A21093   4.199   3.847  10.787 -0.3520 -1.1818 -0.5912
  184SLPC  H12B21094   4.045   3.875  10.857 -1.8042 -1.0258 -2.0547
  184SLPC   C1121095   4.059   3.694  10.754 -0.1939 -0.0453 -0.2157
  184SLPC  H11A21096   4.000   3.747  10.676  1.0086  0.8759 -0.5293
  184SLPC  H11B21097   3.979   3.646  10.815 -1.7050  0.8400 -1.3946
  184SLPC     P21098   4.242   3.651  10.570 -0.0476  0.0617 -0.0579
  184SLPC   O1321099   4.252   3.797  10.588  0.1918 -0.1232  0.7762
  184SLPC   O1421100   4.368   3.572  10.541 -0.0624 -0.0442  0.1179
  184SLPC   O1221101   4.153   3.601  10.691  0.1205 -0.5573 -0.0013
  184SLPC   O1121102   4.140   3.621  10.449  0.1735  0.6027 -0.8818
  184SLPC    C121103   4.090   3.489  10.426  0.8829  0.0929  0.2869
  184SLPC    HA21104   4.158   3.438  10.354  0.9059 -1.1715  1.1833
  184SLPC    HB21105   4.080   3.433  10.521  1.3178  1.6857  1.3130
  184SLPC    C221106   3.949   3.494  10.363  0.2089 -0.3741  0.3348
  184SLPC    HS21107   3.898   3.395  10.361 -1.3009  0.3203 -3.1593
  184SLPC   O2121108   3.940   3.553  10.229  0.7533  0.3738  0.3134
  184SLPC   C2121109   4.001   3.497  10.133  0.6905  0.2459  0.3969
  184SLPC   O2221110   4.056   3.388  10.129  0.3850  0.0172  0.2425
  184SLPC   C2221111   3.971   3.585  10.018  0.7173 -0.5460  0.0462
  184SLPC   H2R21112   3.863   3.568   9.997  0.7129  0.8694 -1.1980
  184SLPC   H2S21113   3.977   3.693  10.042 -0.8597 -0.7377  1.5000
  184SLPC    C321114   3.860   3.583  10.457  0.7902  0.9770 -0.5165
  184SLPC    HX21115   3.904   3.682  10.430  0.5176  0.3203 -3.8651
  184SLPC    HY21116   3.884   3.551  10.560  1.0157  0.9735 -0.5695
  184SLPC   O3121117   3.716   3.588  10.430  0.0337 -0.5091  0.3212
  184SLPC   C3121118   3.640   3.482  10.447 -0.2126 -0.4830  0.4634
  184SLPC   O3221119   3.678   3.377  10.496 -1.3427  0.3056 -0.3866
  184SLPC   C3221120   3.507   3.505  10.379 -0.0589 -0.2739 -0.0831
  184SLPC   H2X21121   3.472   3.606  10.407  0.4742  0.4868 -2.0031
  184SLPC   H2Y21122   3.425   3.437  10.411 -0.3624 -0.6464 -1.5984
  184SLPC   C2321123   4.044   3.530   9.897  0.0389 -0.4396  0.4424
  184SLPC   H3R21124   4.005   3.426   9.889 -0.2387 -0.3331  0.4140
  184SLPC   H3S21125   4.154   3.530   9.914  0.0361 -1.8976  0.6146
  184SLPC   C2421126   4.015   3.590   9.765 -0.0851 -0.1358  0.1631
  184SLPC   H4R21127   4.048   3.695   9.749 -1.8656  0.3671 -0.4921
  184SLPC   H4S21128   3.905   3.597   9.751 -0.2584 -1.6311  0.6255
  184SLPC   C2521129   4.068   3.504   9.656 -0.5551  0.5125 -0.3124
  184SLPC   H5R21130   4.021   3.404   9.668  1.4630 -0.3333  0.9071
  184SLPC   H5S21131   4.177   3.489   9.663 -0.8369 -1.2826  0.8406
  184SLPC   C2621132   4.043   3.571   9.518 -0.1544  0.2193  0.3442
  184SLPC   H6R21133   4.114   3.524   9.447 -0.6721 -1.0586  0.6466
  184SLPC   H6S21134   4.076   3.677   9.518  1.0878 -0.1547 -0.4445
  184SLPC   C2721135   3.897   3.565   9.465  0.4251  0.4411 -0.0169
  184SLPC   H7R21136   3.854   3.642   9.532  2.2686 -0.2159  2.0185
  184SLPC   H7S21137   3.868   3.458   9.474  0.1945  0.5192  0.1447
  184SLPC   C2821138   3.880   3.611   9.314 -0.3717  0.3970 -0.6952
  184SLPC   H8R21139   3.774   3.608   9.281 -0.0882  3.2945 -2.1681
  184SLPC   H8S21140   3.928   3.539   9.244  0.1993  0.0219  0.0669
  184SLPC   C2921141   3.949   3.750   9.289 -0.5083  0.2383  0.0668
  184SLPC   H9R21142   3.937   3.832   9.362 -3.1492  0.2073 -0.2435
  184SLPC  C21021143   4.030   3.785   9.185 -0.1583  0.5068  0.0007
  184SLPC  H10R21144   4.041   3.894   9.173  1.3208  0.3490 -0.2965
  184SLPC  C21121145   4.075   3.714   9.066  0.0540 -0.6875  0.3411
  184SLPC  H11R21146   3.989   3.695   8.998  0.8826  0.9553 -1.2345
  184SLPC  H11S21147   4.119   3.615   9.091 -1.8772 -3.0003 -4.2407
  184SLPC  C21221148   4.178   3.787   8.985 -0.5930 -0.1942  0.2203
  184SLPC  H12R21149   4.227   3.872   9.035 -1.0714 -0.5537  1.3238
  184SLPC  C21321150   4.224   3.756   8.869  0.4535 -0.0003  0.7041
  184SLPC  H13R21151   4.294   3.819   8.812 -1.8433 -0.5667 -3.1722
  184SLPC  C21421152   4.181   3.635   8.779 -0.3071  0.9160  0.3643
  184SLPC  H14R21153   4.074   3.624   8.804 -0.7472  0.6496 -1.5019
  184SLPC  H14S21154   4.251   3.552   8.806  0.2535  0.9114 -0.9974
  184SLPC  C21521155   4.182   3.656   8.628 -0.3165 -0.0466  0.3552
  184SLPC  H15R21156   4.118   3.746   8.612 -3.1510 -1.7471  1.2363
  184SLPC  H15S21157   4.122   3.577   8.577  2.3501 -1.7003 -0.3960
  184SLPC  C21621158   4.322   3.671   8.567 -0.6970 -0.4925  0.5007
  184SLPC  H16R21159   4.387   3.584   8.588  1.0566  0.3077 -1.2443
  184SLPC  H16S21160   4.373   3.761   8.607  1.1162 -1.5407  0.6334
  184SLPC  C21721161   4.328   3.686   8.411  0.4898  1.0171 -0.5596
  184SLPC  H17R21162   4.422   3.728   8.369  1.0366  1.4483  1.0070
  184SLPC  H17S21163   4.259   3.771   8.392  0.6694  2.5594  4.1783
  184SLPC  C21821164   4.288   3.545   8.346  0.4334 -0.8606  0.0066
  184SLPC  H18R21165   4.303   3.556   8.236  0.7462 -1.4147 -0.0084
  184SLPC  H18S21166   4.183   3.515   8.362  0.1972 -1.3269 -2.1342
  184SLPC  H18T21167   4.360   3.467   8.379  2.1125  0.3773 -0.5693
  184SLPC   C3321168   3.529   3.501  10.232 -0.8026  0.3997 -0.3014
  184SLPC   H3X21169   3.576   3.404  10.208  0.3101  0.1206  2.6462
  184SLPC   H3Y21170   3.607   3.575  10.206  0.1880 -0.8082 -0.8310
  184SLPC   C3421171   3.399   3.527  10.152 -0.5029 -0.6083  0.3445
  184SLPC   H4X21172   3.329   3.565  10.230  2.1442  0.9543  2.1397
  184SLPC   H4Y21173   3.349   3.430  10.132 -0.5667 -0.5585  0.2632
  184SLPC   C3521174   3.422   3.617  10.030  0.9236 -0.0942  0.3010
  184SLPC   H5X21175   3.496   3.574   9.959 -0.1270 -1.0378 -0.2474
  184SLPC   H5Y21176   3.454   3.714  10.074 -1.2641  0.9807 -0.3087
  184SLPC   C3621177   3.280   3.652   9.968 -0.3016 -0.3012 -0.3453
  184SLPC   H6X21178   3.218   3.676  10.057  0.2092  0.7729 -0.2682
  184SLPC   H6Y21179   3.233   3.557   9.935 -2.0922 -0.1950  1.6604
  184SLPC   C3721180   3.273   3.754   9.870  0.3034 -0.2137 -0.0111
  184SLPC   H7X21181   3.357   3.823   9.894 -0.7124  1.0281  0.1029
  184SLPC   H7Y21182   3.189   3.824   9.889 -2.4634 -3.2227 -0.2374
  184SLPC   C3821183   3.281   3.696   9.728  0.5483  0.6668 -0.1060
  184SLPC   H8X21184   3.207   3.612   9.724  1.3173 -0.0080 -0.3765
  184SLPC   H8Y21185   3.385   3.662   9.709  0.9029  0.1284  2.3592
  184SLPC   C3921186   3.233   3.787   9.619 -0.8078 -0.3013  0.1098
  184SLPC   H9X21187   3.304   3.871   9.606  0.2355 -1.4076 -1.6832
  184SLPC   H9Y21188   3.134   3.827   9.649 -0.7057  0.7701 -0.8890
  184SLPC  C31021189   3.218   3.717   9.483 -0.1949 -0.4426 -0.9127
  184SLPC  H10X21190   3.156   3.785   9.421 -1.2466 -1.5134 -1.0793
  184SLPC  H10Y21191   3.147   3.632   9.496 -1.0506  0.3202 -0.4017
  184SLPC  C31121192   3.338   3.698   9.390  0.1577  0.4118 -0.6265
  184SLPC  H11X21193   3.414   3.629   9.432 -1.2009 -0.1670  0.9821
  184SLPC  H11Y21194   3.394   3.794   9.392 -1.1566  1.1992  1.4147
  184SLPC  C31221195   3.307   3.664   9.247  0.1989 -1.1448  0.5525
  184SLPC  H12X21196   3.226   3.725   9.199  0.3043  0.7745  2.6346
  184SLPC  H12Y21197   3.265   3.562   9.239 -0.5690 -0.6841 -3.0054
  184SLPC  C31321198   3.427   3.690   9.160 -0.2674 -0.7531 -0.4003
  184SLPC  H13X21199   3.518   3.646   9.206 -0.7309 -0.1942  1.1240
  184SLPC  H13Y21200   3.449   3.798   9.158  2.8273 -1.2050  1.6767
  184SLPC  C31421201   3.407   3.637   9.018  0.0741 -0.2069 -0.2518
  184SLPC  H14X21202   3.346   3.709   8.961 -0.2029  0.5546  0.9641
  184SLPC  H14Y21203   3.347   3.543   9.009  0.0933 -0.4344  1.5408
  184SLPC  C31521204   3.543   3.629   8.956  0.0088  0.1227  0.6154
  184SLPC  H15X21205   3.584   3.530   8.985 -2.4647 -1.6290 -1.4017
  184SLPC  H15Y21206   3.609   3.713   8.987  1.2245 -0.8651  0.7425
  184SLPC  C31621207   3.534   3.635   8.798 -0.0332 -0.9200  0.3106
  184SLPC  H16X21208   3.457   3.562   8.765  1.6584 -1.7079 -2.1519
  184SLPC  H16Y21209   3.627   3.599   8.750  0.2948 -0.9487  0.9501
  184SLPC  C31721210   3.502   3.771   8.752  0.1914  0.6731  0.1299
  184SLPC  H17X21211   3.530   3.845   8.830 -1.1467  0.0784  1.2236
  184SLPC  H17Y21212   3.393   3.782   8.731  0.7760  2.0478 -2.7878
  184SLPC  C31821213   3.576   3.797   8.617  0.2816 -0.2937 -0.0587
  184SLPC  H18X21214   3.548   3.707   8.559 -0.6387 -1.1117  1.5930
  184SLPC  H18Y21215   3.686   3.799   8.635  0.5734 -2.1969 -1.3728
  184SLPC  H18Z21216   3.537   3.893   8.576  0.1184  0.3166  1.4404
  185SLPC     N21217   0.445   5.155   6.484  0.6644 -0.2129 -0.1747
  185SLPC   C1321218   0.351   5.209   6.389  0.9573 -0.1402  0.0559
  185SLPC  H13A21219   0.399   5.281   6.325 -1.0916  0.3122 -1.0543
  185SLPC  H13B21220   0.310   5.137   6.318  0.2918  0.7102 -0.4434
  185SLPC  H13C21221   0.262   5.250   6.435  1.9709  0.7322  1.2854
  185SLPC   C1421222   0.376   5.040   6.561 -0.3735  0.1159 -0.9402
  185SLPC  H14A21223   0.298   5.079   6.625 -2.7108 -1.7241 -2.4641
  185SLPC  H14B21224   0.336   4.975   6.484 -0.6902 -2.7792  1.4800
  185SLPC  H14C21225   0.445   4.978   6.616  0.4706  1.3250 -0.6074
  185SLPC   C1521226   0.461   5.275   6.574  0.3393 -0.4004 -0.3706
  185SLPC  H15A21227   0.361   5.298   6.608  0.6368 -0.8807  0.8980
  185SLPC  H15B21228   0.519   5.256   6.664 -3.6161 -4.8722  1.6691
  185SLPC  H15C21229   0.498   5.361   6.520 -3.0141  2.6036  1.6698
  185SLPC   C1221230   0.583   5.118   6.420  0.3411  0.8065 -0.1636
  185SLPC  H12A21231   0.607   5.205   6.360  1.1131  1.3429  0.8956
  185SLPC  H12B21232   0.570   5.039   6.348 -1.0663  1.9003 -1.1564
  185SLPC   C1121233   0.700   5.090   6.517  0.0050 -0.6886 -0.0679
  185SLPC  H11A21234   0.734   5.177   6.578 -2.4231 -0.9688  1.8565
  185SLPC  H11B21235   0.789   5.067   6.455  1.2959  0.3101  1.3497
  185SLPC     P21236   0.699   4.837   6.574  0.2830  0.3499  0.1307
  185SLPC   O1321237   0.588   4.791   6.485  0.2800  0.2550 -0.2092
  185SLPC   O1421238   0.837   4.809   6.527  0.3671  0.6451  0.2472
  185SLPC   O1221239   0.676   4.992   6.613  0.3975 -0.0407  0.6526
  185SLPC   O1121240   0.678   4.770   6.716 -0.6414  0.0124  0.0021
  185SLPC    C121241   0.788   4.751   6.805  0.3646 -0.1136 -0.6452
  185SLPC    HA21242   0.858   4.672   6.771  3.1107  1.5648  0.6573
  185SLPC    HB21243   0.843   4.848   6.804 -2.3144  1.5176 -0.4406
  185SLPC    C221244   0.741   4.731   6.950  1.1588 -0.0111  0.0039
  185SLPC    HS21245   0.828   4.701   7.012  0.2654 -0.0746  1.2637
  185SLPC   O2121246   0.633   4.639   6.952  0.5769  0.1446  0.4418
  185SLPC   C2121247   0.670   4.520   6.946 -0.6553  0.6757 -0.1685
  185SLPC   O2221248   0.783   4.484   6.909  0.2572 -0.2649 -0.1652
  185SLPC   C2221249   0.555   4.425   6.982  0.2075 -0.6622 -0.5634
  185SLPC   H2R21250   0.492   4.436   6.891  0.5908 -0.6784 -0.8340
  185SLPC   H2S21251   0.601   4.324   6.980  0.4248 -0.6112  0.9794
  185SLPC    C321252   0.693   4.867   7.011  0.4470 -0.0952  0.6499
  185SLPC    HX21253   0.619   4.922   6.949  1.2359  1.3012  0.9130
  185SLPC    HY21254   0.778   4.937   6.999 -0.6919  1.0169 -1.6058
  185SLPC   O3121255   0.655   4.851   7.150  0.2803  0.2595 -0.0153
  185SLPC   C3121256   0.527   4.842   7.167  0.7449 -0.0900 -0.8959
  185SLPC   O3221257   0.438   4.829   7.089 -0.1062  0.9009  0.5819
  185SLPC   C3221258   0.509   4.817   7.319 -0.5287  0.1170  0.0466
  185SLPC   H2X21259   0.575   4.883   7.379 -2.4288  1.3128  0.8926
  185SLPC   H2Y21260   0.545   4.712   7.313 -0.0336  0.2691  0.2959
  185SLPC   C2321261   0.492   4.452   7.122  1.1291  0.1373  0.0492
  185SLPC   H3R21262   0.429   4.542   7.110  2.1635  1.0407  1.1358
  185SLPC   H3S21263   0.574   4.470   7.196  0.8655 -1.0442  0.6581
  185SLPC   C2421264   0.399   4.348   7.189 -0.1119  0.5347  0.2070
  185SLPC   H4R21265   0.451   4.250   7.195 -0.0727  0.4095 -1.4963
  185SLPC   H4S21266   0.318   4.321   7.117 -0.5023 -0.5814  1.0422
  185SLPC   C2521267   0.358   4.407   7.329  0.5609 -0.5910  0.5449
  185SLPC   H5R21268   0.301   4.501   7.317 -1.0693 -1.1400  3.2029
  185SLPC   H5S21269   0.447   4.434   7.389 -0.3555  0.0582  1.6561
  185SLPC   C2621270   0.270   4.328   7.422  0.1488 -0.4332  0.2232
  185SLPC   H6R21271   0.325   4.234   7.448  0.4685  0.1563  1.7723
  185SLPC   H6S21272   0.180   4.311   7.359  0.9752 -0.3964 -1.0084
  185SLPC   C2721273   0.233   4.395   7.554 -0.3628  0.1795 -0.2920
  185SLPC   H7R21274   0.125   4.391   7.579 -0.5327  3.0485 -0.1877
  185SLPC   H7S21275   0.236   4.506   7.540  2.3115  0.1732 -0.1281
  185SLPC   C2821276   0.323   4.361   7.686 -0.1984  0.0936  0.1887
  185SLPC   H8R21277   0.277   4.437   7.753 -0.7470 -1.0811  1.1671
  185SLPC   H8S21278   0.434   4.370   7.677 -0.3331  0.7491 -1.0908
  185SLPC   C2921279   0.285   4.228   7.747 -0.0813 -0.2743  0.5571
  185SLPC   H9R21280   0.332   4.137   7.706 -2.3787 -2.0587  1.6448
  185SLPC  C21021281   0.187   4.222   7.841 -0.2311 -0.7749 -0.0322
  185SLPC  H10R21282   0.168   4.125   7.888  1.0406 -1.9259 -1.7836
  185SLPC  C21121283   0.107   4.339   7.898  0.3437  0.7502 -0.1121
  185SLPC  H11R21284   0.059   4.400   7.818  0.2725  2.2327  1.0190
  185SLPC  H11S21285   0.183   4.407   7.941  1.4512  0.5744 -1.6907
  185SLPC  C21221286  -0.001   4.301   7.999 -0.4517  0.7744 -0.4653
  185SLPC  H12R21287  -0.106   4.302   7.968 -1.0130 -0.9810  1.2092
  185SLPC  C21321288   0.027   4.249   8.123  1.3900 -0.1493 -0.1282
  185SLPC  H13R21289  -0.062   4.234   8.186 -0.0167 -3.6548 -2.6193
  185SLPC  C21421290   0.160   4.226   8.183 -0.5350  0.1083  1.1837
  185SLPC  H14R21291   0.238   4.234   8.104 -0.2435 -1.5471  1.2685
  185SLPC  H14S21292   0.165   4.131   8.239  0.4052 -0.3857  0.2845
  185SLPC  C21521293   0.194   4.350   8.273  0.1279 -0.1033  0.1634
  185SLPC  H15R21294   0.208   4.439   8.207 -0.6208 -1.9415 -2.6700
  185SLPC  H15S21295   0.294   4.335   8.319 -0.7515  1.2345  2.6889
  185SLPC  C21621296   0.102   4.366   8.394 -0.3114 -0.1597 -0.1752
  185SLPC  H16R21297   0.114   4.274   8.456 -4.0156  1.1485  2.9407
  185SLPC  H16S21298  -0.004   4.366   8.359  0.1534 -0.5735 -1.6488
  185SLPC  C21721299   0.137   4.483   8.492  0.4254  0.1847  0.0227
  185SLPC  H17R21300   0.234   4.473   8.545 -1.4075  2.8347  4.4025
  185SLPC  H17S21301   0.052   4.481   8.562  0.7367  0.6902  0.4225
  185SLPC  C21821302   0.131   4.622   8.429  0.3292 -0.2222 -0.0271
  185SLPC  H18R21303   0.026   4.655   8.417 -0.1645 -1.4298  0.7009
  185SLPC  H18S21304   0.180   4.621   8.330  2.6618 -0.6062  1.0532
  185SLPC  H18T21305   0.197   4.682   8.495  0.1842 -0.0142 -0.0726
  185SLPC   C3321306   0.364   4.852   7.351  0.3454 -0.4317  0.7602
  185SLPC   H3X21307   0.302   4.797   7.276  3.6670 -0.7910 -1.9939
  185SLPC   H3Y21308   0.330   4.956   7.331 -2.3659 -1.4296 -0.3794
  185SLPC   C3421309   0.319   4.829   7.489  0.0209  0.6438  0.0480
  185SLPC   H4X21310   0.362   4.730   7.516 -0.3237  0.7070  0.8554
  185SLPC   H4Y21311   0.209   4.811   7.487  0.1290 -0.0367 -1.2376
  185SLPC   C3521312   0.358   4.939   7.594 -0.5046 -0.2659 -0.7349
  185SLPC   H5X21313   0.310   5.038   7.575 -0.1987 -0.0308 -0.2981
  185SLPC   H5Y21314   0.465   4.962   7.578 -0.4685 -0.7308 -1.1635
  185SLPC   C3621315   0.321   4.899   7.737  0.0977 -0.2465 -0.3303
  185SLPC   H6X21316   0.213   4.873   7.750 -0.0592  0.1898 -0.7288
  185SLPC   H6Y21317   0.333   4.990   7.799 -1.3061  1.0184 -1.8203
  185SLPC   C3721318   0.420   4.804   7.799  0.2323 -0.0589  0.3210
  185SLPC   H7X21319   0.514   4.857   7.825  1.2075 -2.6062  2.4948
  185SLPC   H7Y21320   0.451   4.723   7.729 -1.1239 -0.0919 -0.2733
  185SLPC   C3821321   0.363   4.748   7.928 -0.2633  0.1072 -0.6636
  185SLPC   H8X21322   0.272   4.694   7.896 -0.5107  0.3226 -0.3312
  185SLPC   H8Y21323   0.348   4.836   7.995  1.4151 -0.2032  0.1885
  185SLPC   C3921324   0.458   4.645   7.991 -0.2927 -0.0433 -0.8827
  185SLPC   H9X21325   0.557   4.693   7.975  1.0105 -2.5587 -0.7340
  185SLPC   H9Y21326   0.446   4.554   7.929 -3.5596 -1.5457  1.6450
  185SLPC  C31021327   0.432   4.628   8.137  0.2019  0.2012  0.0747
  185SLPC  H10X21328   0.406   4.521   8.149  0.7644 -0.3462 -2.7732
  185SLPC  H10Y21329   0.340   4.687   8.154  1.0336  1.5993 -0.1325
  185SLPC  C31121330   0.544   4.661   8.236  0.5927 -0.0935  0.6000
  185SLPC  H11X21331   0.584   4.764   8.227  0.0580 -0.0556 -1.8630
  185SLPC  H11Y21332   0.626   4.589   8.212  0.6481  0.2458 -0.2579
  185SLPC  C31221333   0.517   4.639   8.388  1.2703 -0.1137  0.7496
  185SLPC  H12X21334   0.480   4.536   8.405 -1.5109  0.3801 -1.5904
  185SLPC  H12Y21335   0.429   4.706   8.404  1.5439  0.3688  0.2628
  185SLPC  C31321336   0.637   4.660   8.482 -0.2681 -0.4254  0.6330
  185SLPC  H13X21337   0.683   4.761   8.477 -2.0620  0.4618  1.1065
  185SLPC  H13Y21338   0.718   4.586   8.465 -2.4443 -2.9470  0.6109
  185SLPC  C31421339   0.586   4.631   8.623 -0.5961 -0.3586 -0.0576
  185SLPC  H14X21340   0.577   4.522   8.642  0.1752 -0.3568  0.3407
  185SLPC  H14Y21341   0.483   4.671   8.630 -0.5750 -0.4381  0.8325
  185SLPC  C31521342   0.673   4.684   8.732 -0.2948  0.9536 -0.0673
  185SLPC  H15X21343   0.657   4.790   8.762  1.2808  1.2606 -0.2207
  185SLPC  H15Y21344   0.778   4.659   8.707 -0.0954  0.5410  1.1168
  185SLPC  C31621345   0.656   4.602   8.866  0.3065  0.1607 -0.7193
  185SLPC  H16X21346   0.684   4.498   8.837 -1.6635  0.0834 -2.5799
  185SLPC  H16Y21347   0.550   4.615   8.895  0.7196  0.5792  0.6924
  185SLPC  C31721348   0.748   4.656   8.975 -0.2592  0.5533 -0.2641
  185SLPC  H17X21349   0.729   4.766   8.981  2.1256  1.0978 -1.3717
  185SLPC  H17Y21350   0.852   4.648   8.939  0.7492  0.8540  2.3295
  185SLPC  C31821351   0.746   4.581   9.108 -0.0844 -0.0755 -0.2702
  185SLPC  H18X21352   0.824   4.627   9.174 -0.6276  1.3029 -0.5513
  185SLPC  H18Y21353   0.764   4.478   9.071  0.2777 -0.8591  1.9435
  185SLPC  H18Z21354   0.649   4.582   9.162  1.0783  4.1620  2.2586
  186SLPC     N21355   0.290   2.445   6.173  0.2914  0.3370 -0.3655
  186SLPC   C1321356   0.277   2.592   6.196 -0.2573 -0.1299 -0.1616
  186SLPC  H13A21357   0.181   2.611   6.243 -0.8420 -2.4575 -0.2761
  186SLPC  H13B21358   0.357   2.626   6.259  0.2679 -0.6431 -0.5465
  186SLPC  H13C21359   0.291   2.651   6.106  0.1334  0.6602  0.4034
  186SLPC   C1421360   0.400   2.419   6.078  0.0896 -0.1595  0.2020
  186SLPC  H14A21361   0.373   2.452   5.979  2.0830 -1.2892 -0.7779
  186SLPC  H14B21362   0.493   2.465   6.107  0.2481 -0.8107  0.7466
  186SLPC  H14C21363   0.422   2.313   6.079 -0.9581 -0.4200  2.1599
  186SLPC   C1521364   0.158   2.398   6.109 -0.3247 -0.4753  0.3201
  186SLPC  H15A21365   0.075   2.401   6.178 -0.2982 -0.6898  0.3638
  186SLPC  H15B21366   0.156   2.458   6.020  1.4938 -1.3131 -0.3276
  186SLPC  H15C21367   0.169   2.294   6.079 -0.1351 -0.3673  0.0176
  186SLPC   C1221368   0.314   2.372   6.298 -0.4339  0.2363  0.0916
  186SLPC  H12A21369   0.246   2.403   6.376 -1.1487  0.4365 -0.6066
  186SLPC  H12B21370   0.408   2.406   6.339  0.9741 -1.3426 -1.6440
  186SLPC   C1121371   0.313   2.215   6.302  0.3826 -0.3755 -0.0302
  186SLPC  H11A21372   0.218   2.178   6.257 -0.0847 -2.2351  2.3104
  186SLPC  H11B21373   0.300   2.194   6.410 -2.3848  3.7176  0.6470
  186SLPC     P21374   0.431   1.999   6.220 -0.6521 -0.6812  0.2545
  186SLPC   O1321375   0.333   1.961   6.115 -0.0442 -0.5403 -0.1889
  186SLPC   O1421376   0.573   1.960   6.201  0.2017  0.1109  0.5087
  186SLPC   O1221377   0.426   2.159   6.242  0.4574  0.4655  0.5225
  186SLPC   O1121378   0.382   1.935   6.342 -0.5864 -0.3657  0.0286
  186SLPC    C121379   0.451   1.953   6.474 -0.9594 -0.1099 -0.0311
  186SLPC    HA21380   0.525   2.035   6.481  0.1538 -1.1380  0.5532
  186SLPC    HB21381   0.383   1.973   6.559  1.4092 -0.4878  2.0564
  186SLPC    C221382   0.518   1.820   6.516  0.1673  0.7164 -0.1214
  186SLPC    HS21383   0.564   1.767   6.430  2.4341 -0.9618  1.9369
  186SLPC   O2121384   0.427   1.732   6.580 -0.0875  0.6667  0.0359
  186SLPC   C2121385   0.457   1.609   6.574  0.5578  0.0941 -1.5306
  186SLPC   O2221386   0.546   1.551   6.517  0.3537  0.6568 -0.1595
  186SLPC   C2221387   0.330   1.531   6.622  0.2266 -0.1639  0.8879
  186SLPC   H2R21388   0.285   1.593   6.702  0.8720  0.5733  0.7071
  186SLPC   H2S21389   0.276   1.535   6.525  3.9621  1.7360 -1.3974
  186SLPC    C321390   0.640   1.848   6.610  0.3626 -0.5266  0.4445
  186SLPC    HX21391   0.604   1.899   6.703  2.3814  1.3186  0.2945
  186SLPC    HY21392   0.710   1.921   6.564 -0.6245 -0.8014 -1.5753
  186SLPC   O3121393   0.705   1.731   6.659 -1.2280  0.5353 -0.2865
  186SLPC   C3121394   0.802   1.682   6.584  0.3785 -0.6168 -0.0608
  186SLPC   O3221395   0.826   1.720   6.471 -0.3817  0.1911 -0.1829
  186SLPC   C3221396   0.865   1.567   6.661  0.1589  0.5453 -0.3706
  186SLPC   H2X21397   0.961   1.534   6.617 -0.0110  1.5550 -1.5411
  186SLPC   H2Y21398   0.795   1.481   6.663  1.4375 -0.6150 -2.3284
  186SLPC   C2321399   0.355   1.391   6.679 -0.3301  0.0892  0.4291
  186SLPC   H3R21400   0.382   1.325   6.594 -1.0434  0.1283  0.1654
  186SLPC   H3S21401   0.255   1.359   6.716 -0.1210 -1.4359 -0.2675
  186SLPC   C2421402   0.464   1.389   6.791  0.9236  0.2400 -1.4853
  186SLPC   H4R21403   0.437   1.467   6.864 -0.5295  1.2062 -2.9695
  186SLPC   H4S21404   0.567   1.402   6.752  2.0154 -0.8195  0.8628
  186SLPC   C2521405   0.457   1.255   6.873 -0.2156  0.5375  0.4115
  186SLPC   H5R21406   0.509   1.172   6.819  0.0225 -1.3810  3.3367
  186SLPC   H5S21407   0.351   1.224   6.881 -0.1782  0.0752 -0.6382
  186SLPC   C2621408   0.519   1.279   7.007  0.4926  0.1359 -0.5787
  186SLPC   H6R21409   0.452   1.342   7.068  0.2230 -0.8206  0.1408
  186SLPC   H6S21410   0.618   1.329   7.001  1.5221 -1.5508  1.3134
  186SLPC   C2721411   0.537   1.152   7.088 -0.1530 -0.1270  0.3743
  186SLPC   H7R21412   0.598   1.084   7.024  0.3164 -1.1050  1.8096
  186SLPC   H7S21413   0.439   1.104   7.111 -0.9003  0.1591 -1.9886
  186SLPC   C2821414   0.603   1.201   7.224 -0.2991 -0.2945  0.3398
  186SLPC   H8R21415   0.576   1.118   7.292 -3.2546 -1.5136 -2.1014
  186SLPC   H8S21416   0.546   1.290   7.258  1.1689  0.8828 -0.1088
  186SLPC   C2921417   0.747   1.237   7.229 -0.5712  1.1903 -0.7688
  186SLPC   H9R21418   0.785   1.276   7.133  0.6211 -0.0620 -0.8215
  186SLPC  C21021419   0.830   1.218   7.330  0.7810  0.6727  0.6368
  186SLPC  H10R21420   0.935   1.239   7.305  1.0457 -0.2472  0.9330
  186SLPC  C21121421   0.804   1.159   7.467  0.3499 -0.0775  0.6547
  186SLPC  H11R21422   0.900   1.140   7.518  1.3997  2.6031 -0.1586
  186SLPC  H11S21423   0.758   1.058   7.455  1.1229 -0.7049  2.5668
  186SLPC  C21221424   0.717   1.235   7.565 -0.1066 -0.4983 -0.7281
  186SLPC  H12R21425   0.624   1.276   7.523 -1.2597 -2.5467 -0.2657
  186SLPC  C21321426   0.735   1.265   7.694  0.4917  0.2458  1.1071
  186SLPC  H13R21427   0.664   1.329   7.747 -0.7363 -0.5475  0.4696
  186SLPC  C21421428   0.850   1.231   7.787 -0.3062 -0.4747  0.6505
  186SLPC  H14R21429   0.920   1.317   7.795  1.7017 -1.6496 -2.3802
  186SLPC  H14S21430   0.910   1.151   7.739  0.0757  1.1443 -1.7708
  186SLPC  C21521431   0.802   1.171   7.923 -0.2696  0.1784  0.0477
  186SLPC  H15R21432   0.893   1.126   7.967  1.2275  1.6858 -1.3853
  186SLPC  H15S21433   0.734   1.085   7.907  0.7267 -0.5793 -0.2076
  186SLPC  C21621434   0.730   1.274   8.018  0.2881 -0.4634 -0.3851
  186SLPC  H16R21435   0.647   1.309   7.952 -0.9466 -0.7568  0.9485
  186SLPC  H16S21436   0.783   1.370   8.035 -1.1864 -0.0136  2.2610
  186SLPC  C21721437   0.662   1.214   8.141 -0.3612 -0.1110  0.2569
  186SLPC  H17R21438   0.742   1.196   8.217  0.6211 -1.1479 -0.9842
  186SLPC  H17S21439   0.619   1.113   8.121 -1.1086  0.3694 -0.5908
  186SLPC  C21821440   0.551   1.302   8.201 -0.2905 -0.4996  0.2965
  186SLPC  H18R21441   0.474   1.309   8.121 -0.3815  1.8304  0.5368
  186SLPC  H18S21442   0.586   1.402   8.232 -0.4317 -0.8362  1.6072
  186SLPC  H18T21443   0.506   1.258   8.293 -1.8955 -0.5061 -0.4686
  186SLPC   C3321444   0.909   1.602   6.802  0.1314 -0.2530 -0.0940
  186SLPC   H3X21445   0.933   1.507   6.854 -0.9201 -1.5143 -1.8019
  186SLPC   H3Y21446   0.823   1.645   6.859 -0.2925 -0.0932 -0.8312
  186SLPC   C3421447   1.025   1.707   6.804  0.3867  0.0411  0.1111
  186SLPC   H4X21448   1.002   1.792   6.736  0.8297  0.0286 -0.0575
  186SLPC   H4Y21449   1.110   1.644   6.769  1.2314  1.8431 -1.2204
  186SLPC   C3521450   1.045   1.767   6.938 -0.4522 -0.5922 -0.1115
  186SLPC   H5X21451   1.139   1.816   6.972 -0.7221  0.9155 -1.4041
  186SLPC   H5Y21452   1.026   1.690   7.016 -0.9178 -0.5345 -0.1666
  186SLPC   C3621453   0.943   1.873   6.970  0.2096  0.7801  0.1148
  186SLPC   H6X21454   0.846   1.842   6.926  0.5270  0.2004 -0.1751
  186SLPC   H6Y21455   0.967   1.970   6.922 -0.9143  1.1885  0.3308
  186SLPC   C3721456   0.934   1.908   7.117  0.1433 -0.0846 -0.3383
  186SLPC   H7X21457   1.036   1.933   7.155  0.4203  0.3297 -1.3168
  186SLPC   H7Y21458   0.892   1.823   7.175 -0.5959 -0.9822 -2.1248
  186SLPC   C3821459   0.858   2.041   7.151  0.1574  0.4735  0.6297
  186SLPC   H8X21460   0.748   2.031   7.137  0.2096  0.2359  0.3723
  186SLPC   H8Y21461   0.888   2.113   7.072 -3.3553  0.8173 -0.5740
  186SLPC   C3921462   0.878   2.100   7.294 -0.1168  0.2023  0.6944
  186SLPC   H9X21463   0.830   2.199   7.309 -1.3124 -0.2237 -0.1948
  186SLPC   H9Y21464   0.986   2.111   7.321 -0.5635  0.0704  2.7295
  186SLPC  C31021465   0.811   2.010   7.401 -0.2713  0.1003 -0.3503
  186SLPC  H10X21466   0.863   1.913   7.394  2.8161  1.7387 -2.3568
  186SLPC  H10Y21467   0.704   1.992   7.373 -0.1834  1.0634 -1.3928
  186SLPC  C31121468   0.830   2.060   7.548 -0.1977 -0.2439  0.2699
  186SLPC  H11X21469   0.765   1.997   7.613 -2.5584 -0.1216 -1.8002
  186SLPC  H11Y21470   0.797   2.165   7.558  4.0268  1.2219  0.6861
  186SLPC  C31221471   0.976   2.076   7.591  0.1145 -0.6323  0.2603
  186SLPC  H12X21472   1.025   2.141   7.516 -0.5295  2.1310  2.1016
  186SLPC  H12Y21473   1.017   1.974   7.607 -0.1689 -0.9048 -0.6832
  186SLPC  C31321474   0.977   2.148   7.730  0.6132 -0.1895  0.6264
  186SLPC  H13X21475   0.921   2.244   7.725  0.8146 -0.0402  1.1314
  186SLPC  H13Y21476   1.084   2.176   7.745  0.9291 -0.2011 -1.3168
  186SLPC  C31421477   0.927   2.071   7.842 -0.1374 -0.0967  0.2729
  186SLPC  H14X21478   0.819   2.050   7.828 -0.4558  0.2004  1.9902
  186SLPC  H14Y21479   0.921   2.144   7.926  1.5678 -0.3102  0.6129
  186SLPC  C31521480   1.011   1.940   7.870 -0.1968 -0.2224 -0.2140
  186SLPC  H15X21481   1.115   1.977   7.881 -0.1939 -0.5945  1.2492
  186SLPC  H15Y21482   1.007   1.857   7.796 -0.4125  0.2531 -0.7413
  186SLPC  C31621483   0.989   1.871   8.006 -0.3310 -0.1704  0.3214
  186SLPC  H16X21484   0.881   1.877   8.031 -0.7092 -1.4596 -0.8596
  186SLPC  H16Y21485   1.026   1.946   8.078  1.0743 -0.5550  0.0208
  186SLPC  C31721486   1.040   1.734   8.009 -0.1945  0.0783 -0.2407
  186SLPC  H17X21487   1.147   1.736   7.978 -0.3541  2.6735 -0.8773
  186SLPC  H17Y21488   0.988   1.669   7.935 -1.4403 -0.3211  0.9547
  186SLPC  C31821489   1.015   1.664   8.141 -0.2545 -0.7733  0.4445
  186SLPC  H18X21490   1.027   1.553   8.137  0.7575 -0.6468 -0.5287
  186SLPC  H18Y21491   0.918   1.701   8.179  0.9811  1.2809  1.7558
  186SLPC  H18Z21492   1.091   1.702   8.213 -1.2812 -0.7043  1.5214
  187SLPC     N21493   4.339   3.337   6.237  0.3432  0.0699 -0.2836
  187SLPC   C1321494   4.374   3.221   6.143  0.1601  0.1759  0.4678
  187SLPC  H13A21495   4.322   3.131   6.171  1.0219  0.0366  1.7131
  187SLPC  H13B21496   4.352   3.255   6.043  2.1089  2.4890  0.7289
  187SLPC  H13C21497   4.478   3.200   6.162  0.4444  1.6291  0.6139
  187SLPC   C1421498   4.195   3.376   6.229 -0.3104  0.0399  0.0139
  187SLPC  H14A21499   4.164   3.387   6.126 -1.6281  0.5297  0.4453
  187SLPC  H14B21500   4.135   3.295   6.266 -1.7239  0.4599 -1.2793
  187SLPC  H14C21501   4.182   3.466   6.288  0.2439 -0.0429  0.2676
  187SLPC   C1521502   4.420   3.453   6.205  0.2515 -0.3886  0.3732
  187SLPC  H15A21503   4.525   3.426   6.205  0.7660  1.3424  1.6503
  187SLPC  H15B21504   4.406   3.477   6.101 -2.4177 -1.6376  0.3540
  187SLPC  H15C21505   4.395   3.540   6.265 -0.6962  0.1610 -0.7705
  187SLPC   C1221506   4.367   3.293   6.388  0.3864 -0.7006 -0.6764
  187SLPC  H12A21507   4.336   3.378   6.447  0.3322  0.0071 -1.6914
  187SLPC  H12B21508   4.474   3.281   6.401  0.3249 -0.5700 -0.0135
  187SLPC   C1121509   4.291   3.168   6.437 -0.2926  0.5740  0.0042
  187SLPC  H11A21510   4.344   3.135   6.529 -0.0939  0.4989 -0.1360
  187SLPC  H11B21511   4.302   3.088   6.360  0.0565 -0.1144  0.7472
  187SLPC     P21512   4.064   3.085   6.518  0.3020 -0.4024  0.3595
  187SLPC   O1321513   3.931   3.136   6.497  0.7603  0.1746 -0.0668
  187SLPC   O1421514   4.098   2.957   6.453 -0.1679 -0.2006  0.7311
  187SLPC   O1221515   4.152   3.200   6.456  0.3179  0.3502 -0.4280
  187SLPC   O1121516   4.096   3.069   6.676 -0.1825 -0.1833  0.4089
  187SLPC    C121517   4.109   3.187   6.761  0.4225 -0.6160  0.0752
  187SLPC    HA21518   4.050   3.271   6.717  1.2078 -0.6367 -1.0471
  187SLPC    HB21519   4.078   3.172   6.867  0.1990  2.0478  0.4795
  187SLPC    C221520   4.256   3.230   6.784 -0.9731  0.4099  0.5336
  187SLPC    HS21521   4.310   3.247   6.689  0.5111 -0.1831  1.2448
  187SLPC   O2121522   4.328   3.130   6.869 -0.0953  0.1996  0.0957
  187SLPC   C2121523   4.464   3.120   6.858 -0.2809 -0.5081  0.0355
  187SLPC   O2221524   4.526   3.186   6.777 -0.2709 -0.7470  0.4427
  187SLPC   C2221525   4.533   3.012   6.946 -0.1180  0.3314  0.2678
  187SLPC   H2R21526   4.465   2.983   7.029 -0.6229  0.1322 -0.2121
  187SLPC   H2S21527   4.544   2.921   6.883 -2.7970  1.3260 -1.7882
  187SLPC    C321528   4.268   3.371   6.852  0.1772 -0.4260  0.1893
  187SLPC    HX21529   4.213   3.442   6.786 -0.2758  1.5539  2.5610
  187SLPC    HY21530   4.371   3.411   6.846  0.1128 -0.3691 -0.6907
  187SLPC   O3121531   4.200   3.373   6.977 -0.0150 -0.1171 -0.1673
  187SLPC   C3121532   4.277   3.336   7.076  0.1940 -0.0971  0.7949
  187SLPC   O3221533   4.397   3.319   7.069 -0.6615 -0.4703 -0.4182
  187SLPC   C3221534   4.198   3.327   7.208  0.0855  0.3530  0.7259
  187SLPC   H2X21535   4.093   3.358   7.192 -0.3810  0.0313  2.8061
  187SLPC   H2Y21536   4.243   3.396   7.283 -1.5613 -0.7810  2.8603
  187SLPC   C2321537   4.665   3.063   7.011  0.3615 -0.2739 -0.1049
  187SLPC   H3R21538   4.669   3.174   7.019 -2.2627  0.0272 -1.7177
  187SLPC   H3S21539   4.743   3.034   6.937 -0.5106  1.0798 -1.6041
  187SLPC   C2421540   4.696   3.004   7.145  0.1810  0.0668  0.7118
  187SLPC   H4R21541   4.804   3.003   7.171  0.5209  0.9221 -0.5614
  187SLPC   H4S21542   4.656   2.902   7.159 -1.4259  0.5565 -0.0552
  187SLPC   C2521543   4.610   3.073   7.251  0.0654  0.8247  0.0325
  187SLPC   H5R21544   4.502   3.050   7.238 -0.2230  0.7526  2.2051
  187SLPC   H5S21545   4.622   3.183   7.237  1.1608  0.4927 -1.9180
  187SLPC   C2621546   4.650   3.040   7.394 -0.5709 -0.3295  0.0533
  187SLPC   H6R21547   4.751   3.077   7.421 -0.3835 -0.5988 -0.2687
  187SLPC   H6S21548   4.662   2.930   7.411 -1.1775 -0.2021  1.4035
  187SLPC   C2721549   4.547   3.102   7.492  0.0418  0.0468  0.1124
  187SLPC   H7R21550   4.463   3.029   7.495 -0.8144  1.0321  2.4999
  187SLPC   H7S21551   4.521   3.207   7.466 -3.0622 -0.6971 -0.2699
  187SLPC   C2821552   4.598   3.102   7.632 -0.1989  0.1620 -0.1076
  187SLPC   H8R21553   4.679   3.176   7.647  0.6174 -1.2097  3.1576
  187SLPC   H8S21554   4.652   3.006   7.647  3.7036  1.8242 -2.0992
  187SLPC   C2921555   4.486   3.133   7.730  0.2464 -0.2606 -0.3554
  187SLPC   H9R21556   4.390   3.082   7.719  1.5442 -2.8675 -0.4117
  187SLPC  C21021557   4.491   3.240   7.820 -0.4423 -0.3900 -0.7783
  187SLPC  H10R21558   4.397   3.265   7.872 -0.6522  0.5786 -1.6103
  187SLPC  C21121559   4.592   3.346   7.848  0.1238 -0.3488  0.0304
  187SLPC  H11R21560   4.529   3.437   7.857 -0.2005 -0.5425 -0.2256
  187SLPC  H11S21561   4.662   3.365   7.764  0.4921  0.1595  0.4470
  187SLPC  C21221562   4.672   3.319   7.980  0.9144 -0.4966  0.0105
  187SLPC  H12R21563   4.728   3.225   7.988 -0.9364 -1.7346 -0.8361
  187SLPC  C21321564   4.689   3.406   8.083 -0.6887  0.6706 -0.3857
  187SLPC  H13R21565   4.755   3.377   8.166 -2.3449  2.0348  1.4683
  187SLPC  C21421566   4.634   3.543   8.102 -0.2694 -0.0616  0.1027
  187SLPC  H14R21567   4.563   3.542   8.188  0.6261 -1.0496  0.8540
  187SLPC  H14S21568   4.567   3.576   8.019 -1.0604 -0.4055  0.5869
  187SLPC  C21521569   4.735   3.656   8.112  0.2145 -0.4230  0.1024
  187SLPC  H15R21570   4.761   3.691   8.010 -0.6134  1.2198  0.4224
  187SLPC  H15S21571   4.825   3.619   8.165 -0.1133  2.2157  2.7891
  187SLPC  C21621572   4.677   3.779   8.184 -0.1643 -0.3571  0.0724
  187SLPC  H16R21573   4.656   3.761   8.292  0.4822  1.3198  0.5109
  187SLPC  H16S21574   4.578   3.807   8.141  0.7774  1.6390 -0.9313
  187SLPC  C21721575   4.759   3.904   8.180 -1.2055  0.2581  0.5867
  187SLPC  H17R21576   4.716   3.991   8.236  1.4745  1.0369  1.5760
  187SLPC  H17S21577   4.772   3.933   8.074  0.1773  3.2907  1.4784
  187SLPC  C21821578   4.899   3.881   8.245  0.4926  0.4315  0.6311
  187SLPC  H18R21579   4.879   3.830   8.342  1.2442 -0.2890  0.4236
  187SLPC  H18S21580   4.958   3.972   8.268 -0.0810  1.7280 -2.5297
  187SLPC  H18T21581   4.966   3.821   8.179 -1.8611 -1.2267 -0.3934
  187SLPC   C3321582   4.194   3.185   7.260  0.2259  0.2454 -0.4024
  187SLPC   H3X21583   4.295   3.177   7.306  0.0857 -3.2822 -0.4489
  187SLPC   H3Y21584   4.177   3.112   7.179 -0.0387 -0.8914  0.6475
  187SLPC   C3421585   4.107   3.158   7.379 -0.1639 -0.8119 -0.0889
  187SLPC   H4X21586   4.141   3.055   7.402 -0.9250 -1.0242  0.0989
  187SLPC   H4Y21587   3.998   3.148   7.361 -0.1458  1.7397 -2.2761
  187SLPC   C3521588   4.139   3.256   7.497  0.4572  0.1719  0.6666
  187SLPC   H5X21589   4.095   3.355   7.473  1.4352  0.7640  1.2457
  187SLPC   H5Y21590   4.249   3.271   7.494  0.2843  1.4505  0.3549
  187SLPC   C3621591   4.077   3.208   7.627  0.1199  0.2549 -0.1588
  187SLPC   H6X21592   4.110   3.104   7.647 -1.0839 -0.2455 -0.7052
  187SLPC   H6Y21593   3.967   3.201   7.614 -0.1152  2.2884  0.2981
  187SLPC   C3721594   4.124   3.286   7.747  0.1658 -0.0038 -0.2565
  187SLPC   H7X21595   4.234   3.273   7.746  0.0998 -0.8161  1.0084
  187SLPC   H7Y21596   4.104   3.395   7.730  0.7190  0.1013 -0.2456
  187SLPC   C3821597   4.069   3.242   7.890 -0.3724 -0.5106  0.4020
  187SLPC   H8X21598   4.130   3.153   7.917  2.0503  0.5760 -1.0738
  187SLPC   H8Y21599   3.961   3.217   7.894 -0.6300  0.6695  1.6558
  187SLPC   C3921600   4.089   3.354   7.996 -0.0872  0.7963 -1.1926
  187SLPC   H9X21601   4.021   3.441   7.982  0.2727  1.4079  0.5901
  187SLPC   H9Y21602   4.195   3.384   7.991 -0.6333  2.9683 -0.7214
  187SLPC  C31021603   4.063   3.312   8.141 -0.0506 -0.7088  0.1734
  187SLPC  H10X21604   4.107   3.392   8.204 -2.9470  1.3129 -0.1655
  187SLPC  H10Y21605   4.127   3.222   8.152  0.9615  0.1268  1.4530
  187SLPC  C31121606   3.921   3.289   8.181  0.3174 -0.1254  0.2237
  187SLPC  H11X21607   3.893   3.182   8.178  3.0109 -0.8953 -0.0278
  187SLPC  H11Y21608   3.856   3.352   8.115  1.3248 -1.4519 -2.1255
  187SLPC  C31221609   3.901   3.326   8.330  0.0272  0.5976  0.0353
  187SLPC  H12X21610   3.793   3.321   8.354  0.1470 -0.1280  0.4725
  187SLPC  H12Y21611   3.939   3.430   8.338  1.0696  0.2153  0.2266
  187SLPC  C31321612   3.985   3.241   8.428 -0.2048  0.2058  0.6663
  187SLPC  H13X21613   4.087   3.277   8.405 -0.8865  0.7795 -1.7090
  187SLPC  H13Y21614   3.975   3.132   8.409 -3.5589  0.5817 -0.4044
  187SLPC  C31421615   3.958   3.272   8.576 -0.3855  0.3884  0.6608
  187SLPC  H14X21616   3.920   3.376   8.585 -1.5506 -0.1664  2.9880
  187SLPC  H14Y21617   4.051   3.252   8.634  0.3009 -1.7869 -1.0549
  187SLPC  C31521618   3.857   3.181   8.643 -0.4534 -0.5794 -0.4131
  187SLPC  H15X21619   3.890   3.075   8.639  3.1539  0.2723  1.9908
  187SLPC  H15Y21620   3.757   3.178   8.597 -1.5369 -1.1167  1.8101
  187SLPC  C31621621   3.835   3.197   8.796  0.4884  0.0589 -0.0162
  187SLPC  H16X21622   3.934   3.199   8.847 -0.5082  2.6908  2.0758
  187SLPC  H16Y21623   3.776   3.110   8.834  1.0736 -0.7912 -1.0120
  187SLPC  C31721624   3.764   3.330   8.830 -0.7121  0.2035  0.6110
  187SLPC  H17X21625   3.691   3.313   8.913 -0.5117 -1.5219  0.4729
  187SLPC  H17Y21626   3.710   3.354   8.736  1.2165 -3.3345 -1.6242
  187SLPC  C31821627   3.864   3.434   8.878 -0.9849 -0.1432 -0.1757
  187SLPC  H18X21628   3.902   3.394   8.974  2.0468  0.4158 -1.0218
  187SLPC  H18Y21629   3.814   3.532   8.886 -2.1935 -0.7812  0.2227
  187SLPC  H18Z21630   3.952   3.434   8.810  0.2544  0.9098  1.3553
  188SLPC     N21631   4.290   2.614   6.355  0.4198 -0.0446  0.0571
  188SLPC   C1321632   4.179   2.582   6.263 -0.2710 -0.1738  0.5790
  188SLPC  H13A21633   4.091   2.627   6.309 -0.1190  2.3553 -1.3643
  188SLPC  H13B21634   4.198   2.640   6.174  1.7776 -1.0954  0.3849
  188SLPC  H13C21635   4.168   2.476   6.244  1.2258 -0.5551  1.6619
  188SLPC   C1421636   4.321   2.762   6.360  0.0359  0.0177  0.7050
  188SLPC  H14A21637   4.416   2.782   6.406  0.0796  1.9136 -0.1296
  188SLPC  H14B21638   4.329   2.791   6.256  0.8474 -2.9641 -0.1643
  188SLPC  H14C21639   4.241   2.821   6.403 -2.8514 -1.6169 -1.9951
  188SLPC   C1521640   4.419   2.546   6.305  0.3640 -0.1855 -0.6515
  188SLPC  H15A21641   4.501   2.574   6.369 -0.5218 -0.5070  0.6440
  188SLPC  H15B21642   4.404   2.440   6.288  3.3860 -0.8165  0.0701
  188SLPC  H15C21643   4.439   2.589   6.207 -0.0106  3.9778  0.8992
  188SLPC   C1221644   4.264   2.582   6.505 -0.0241  0.1531 -0.1930
  188SLPC  H12A21645   4.162   2.606   6.530  0.3428  1.3946  0.1904
  188SLPC  H12B21646   4.329   2.647   6.562  1.4536  0.0627 -1.6878
  188SLPC   C1121647   4.290   2.432   6.560  0.4007 -0.1333 -0.0646
  188SLPC  H11A21648   4.300   2.449   6.669 -3.5850  0.4410  0.3664
  188SLPC  H11B21649   4.387   2.394   6.522  0.4135  0.2379 -0.4084
  188SLPC     P21650   4.051   2.333   6.599  0.4020 -0.2056 -0.1448
  188SLPC   O1321651   4.041   2.444   6.700  0.5368 -0.1619  0.0454
  188SLPC   O1421652   3.942   2.328   6.500 -0.3517  0.1393 -0.1552
  188SLPC   O1221653   4.186   2.345   6.523  0.5293  0.3394 -0.0772
  188SLPC   O1121654   4.059   2.193   6.668  0.0026 -0.5157 -0.3195
  188SLPC    C121655   4.116   2.075   6.610 -0.2765 -0.2821 -0.0058
  188SLPC    HA21656   4.037   1.998   6.613 -0.2699 -0.3361 -0.8386
  188SLPC    HB21657   4.150   2.086   6.504 -0.8720 -0.5788 -0.2316
  188SLPC    C221658   4.243   2.026   6.683  1.1913  0.2496 -0.4507
  188SLPC    HS21659   4.291   1.944   6.624  1.4669  0.4641 -0.5293
  188SLPC   O2121660   4.198   1.979   6.809 -0.2733 -0.3847  1.1090
  188SLPC   C2121661   4.145   1.862   6.803 -0.0080  0.0487 -0.2761
  188SLPC   O2221662   4.139   1.789   6.700 -0.0445 -0.4022 -0.8169
  188SLPC   C2221663   4.065   1.838   6.933  0.2123  0.3205 -0.3035
  188SLPC   H2R21664   4.114   1.892   7.016 -0.1263  2.4945 -1.4628
  188SLPC   H2S21665   3.962   1.879   6.937 -0.4078 -1.2671  2.1517
  188SLPC    C321666   4.350   2.141   6.704  0.7174  0.0380  0.0240
  188SLPC    HX21667   4.312   2.221   6.772  1.5845 -2.2752  3.4935
  188SLPC    HY21668   4.361   2.181   6.601  3.2383 -0.4332  0.0580
  188SLPC   O3121669   4.485   2.100   6.758  0.5139  0.0630 -0.5760
  188SLPC   C3121670   4.559   2.204   6.778  0.1607  0.0183 -0.1856
  188SLPC   O3221671   4.546   2.315   6.736  0.0115 -0.5832 -0.0455
  188SLPC   C3221672   4.684   2.168   6.852 -0.7250 -0.3957  0.5577
  188SLPC   H2X21673   4.769   2.178   6.781 -1.8389 -0.2571 -0.7942
  188SLPC   H2Y21674   4.677   2.065   6.892  0.8504 -0.8221 -0.1840
  188SLPC   C2321675   4.050   1.687   6.943 -0.4062  0.1509 -0.0701
  188SLPC   H3R21676   4.149   1.638   6.945 -0.1208  0.7115 -0.2676
  188SLPC   H3S21677   4.006   1.641   6.852  0.0877 -1.5806  0.5400
  188SLPC   C2421678   3.948   1.650   7.054 -0.4009 -0.4218  0.3604
  188SLPC   H4R21679   3.923   1.545   7.029  2.2353 -1.4059  1.4541
  188SLPC   H4S21680   3.861   1.718   7.063 -1.3981 -1.8091  2.2253
  188SLPC   C2521681   4.021   1.634   7.189 -0.0511 -0.0512 -0.5796
  188SLPC   H5R21682   4.022   1.739   7.226  1.0254 -0.1159 -0.3975
  188SLPC   H5S21683   4.128   1.607   7.176  0.4506  0.7960  1.5060
  188SLPC   C2621684   3.940   1.553   7.300  0.9085  0.5543  0.3919
  188SLPC   H6R21685   3.943   1.448   7.265  4.8485  0.5662  0.1585
  188SLPC   H6S21686   3.835   1.589   7.297  1.0689  1.0010 -0.0572
  188SLPC   C2721687   3.994   1.561   7.446 -0.3890 -0.0858 -0.0487
  188SLPC   H7R21688   4.102   1.535   7.446 -0.4884 -0.5627  0.7904
  188SLPC   H7S21689   3.948   1.476   7.501  1.0777 -2.3640 -2.1455
  188SLPC   C2821690   3.972   1.697   7.519 -0.2749 -0.3026  0.1616
  188SLPC   H8R21691   3.862   1.705   7.528 -0.4957 -1.9314 -0.7091
  188SLPC   H8S21692   4.015   1.773   7.451  0.8406 -1.9758 -1.0890
  188SLPC   C2921693   4.035   1.700   7.650 -0.5677 -0.5543  0.0136
  188SLPC   H9R21694   4.139   1.735   7.651 -0.7394  0.0324 -1.1819
  188SLPC  C21021695   3.982   1.678   7.772  0.5724  0.0779 -0.0783
  188SLPC  H10R21696   4.040   1.670   7.865  0.1540 -1.3796  0.0758
  188SLPC  C21121697   3.846   1.625   7.786  0.1773  0.0449  0.1908
  188SLPC  H11R21698   3.850   1.548   7.867  0.8518  1.3578  1.4574
  188SLPC  H11S21699   3.810   1.565   7.700  3.6348  1.1856 -2.2725
  188SLPC  C21221700   3.744   1.733   7.814  0.3692 -0.1979  0.1423
  188SLPC  H12R21701   3.775   1.836   7.839  1.7540 -0.5931  0.1364
  188SLPC  C21321702   3.610   1.723   7.805  1.0815  0.0791 -0.5341
  188SLPC  H13R21703   3.548   1.813   7.818 -3.0164 -2.6167  0.5427
  188SLPC  C21421704   3.531   1.600   7.768 -0.8673 -0.1646 -0.0156
  188SLPC  H14R21705   3.436   1.600   7.827 -0.9073  0.9130 -0.0623
  188SLPC  H14S21706   3.584   1.505   7.788  0.2804 -0.1206 -2.5430
  188SLPC  C21521707   3.478   1.604   7.620  0.8415 -0.1259 -0.4001
  188SLPC  H15R21708   3.568   1.607   7.554 -0.0537  0.6834 -1.6286
  188SLPC  H15S21709   3.421   1.699   7.608  0.9011  0.3722  2.4916
  188SLPC  C21621710   3.388   1.484   7.577 -0.5800 -0.1912  0.1375
  188SLPC  H16R21711   3.303   1.489   7.648 -0.7778  1.2367 -0.1721
  188SLPC  H16S21712   3.447   1.390   7.589  0.2482  0.4010  0.8757
  188SLPC  C21721713   3.335   1.495   7.433 -0.6925  0.0303  0.0755
  188SLPC  H17R21714   3.420   1.508   7.362 -1.9707  0.4905 -1.4317
  188SLPC  H17S21715   3.266   1.582   7.431  0.9278  1.3780  0.6357
  188SLPC  C21821716   3.256   1.367   7.397  0.4019 -0.8974  0.1918
  188SLPC  H18R21717   3.315   1.288   7.449  1.2168  1.0915  2.4826
  188SLPC  H18S21718   3.268   1.347   7.288  0.4927 -0.8245  0.1884
  188SLPC  H18T21719   3.146   1.369   7.413  0.0442 -0.2315 -1.9455
  188SLPC   C3321720   4.710   2.250   6.978 -0.2453 -0.6593  0.0858
  188SLPC   H3X21721   4.696   2.356   6.946  1.2071 -0.1868  0.9425
  188SLPC   H3Y21722   4.810   2.223   7.018 -0.8547 -0.9783  1.4470
  188SLPC   C3421723   4.613   2.217   7.093  0.3234  0.2402 -0.2689
  188SLPC   H4X21724   4.574   2.113   7.079 -0.8329  0.7295 -0.8726
  188SLPC   H4Y21725   4.520   2.278   7.085  0.2819  0.3828  1.1537
  188SLPC   C3521726   4.665   2.211   7.237 -0.0223 -0.0717  0.0792
  188SLPC   H5X21727   4.705   2.313   7.255 -1.0693  0.5117 -0.7815
  188SLPC   H5Y21728   4.759   2.153   7.236  0.5876  0.8894 -1.0195
  188SLPC   C3621729   4.567   2.189   7.343  0.7256  0.0711 -0.0438
  188SLPC   H6X21730   4.530   2.085   7.325 -1.7693  0.5310  1.8085
  188SLPC   H6Y21731   4.484   2.263   7.337 -0.6197 -1.3054  0.7755
  188SLPC   C3721732   4.622   2.206   7.485  0.6743 -0.2188  0.9692
  188SLPC   H7X21733   4.680   2.300   7.499  2.0957 -1.3704  3.7164
  188SLPC   H7Y21734   4.688   2.117   7.496 -1.9431 -2.1577  2.1838
  188SLPC   C3821735   4.515   2.205   7.589 -0.5483 -0.4348  0.2004
  188SLPC   H8X21736   4.446   2.124   7.561  0.6983 -0.7479 -2.2601
  188SLPC   H8Y21737   4.473   2.308   7.589 -0.5455 -0.4083 -1.5263
  188SLPC   C3921738   4.574   2.178   7.725  0.9997 -0.9572 -0.1105
  188SLPC   H9X21739   4.655   2.248   7.755 -0.8088  1.4632 -0.5357
  188SLPC   H9Y21740   4.622   2.078   7.730  1.4364 -0.7334  0.2548
  188SLPC  C31021741   4.459   2.185   7.823 -0.1960 -0.0021  0.2057
  188SLPC  H10X21742   4.397   2.097   7.796 -0.4840  0.5038 -0.8402
  188SLPC  H10Y21743   4.392   2.273   7.811 -1.0155 -0.5831  0.4067
  188SLPC  C31121744   4.502   2.169   7.974 -0.0706 -0.2335 -0.6622
  188SLPC  H11X21745   4.586   2.239   7.997 -1.0635  1.0716 -0.8524
  188SLPC  H11Y21746   4.537   2.064   7.982 -1.2001 -0.4860  2.6676
  188SLPC  C31221747   4.393   2.186   8.081  0.0850  0.0430 -0.0212
  188SLPC  H12X21748   4.327   2.103   8.049 -0.8424  1.1615 -1.0876
  188SLPC  H12Y21749   4.347   2.287   8.067 -0.3048  0.0122  0.9393
  188SLPC  C31321750   4.438   2.160   8.229  0.0469  0.8802 -0.0517
  188SLPC  H13X21751   4.526   2.222   8.258  3.1673 -0.3826 -5.4596
  188SLPC  H13Y21752   4.486   2.061   8.244  1.6989  1.6448 -0.0993
  188SLPC  C31421753   4.335   2.153   8.336 -0.0665 -0.0210 -0.5201
  188SLPC  H14X21754   4.387   2.146   8.434 -1.2132  0.4176  0.1406
  188SLPC  H14Y21755   4.271   2.062   8.338 -0.5167  0.2355  2.3489
  188SLPC  C31521756   4.252   2.280   8.353 -0.2469 -0.0275 -0.5159
  188SLPC  H15X21757   4.171   2.277   8.430  0.7301  1.2082  0.6062
  188SLPC  H15Y21758   4.205   2.298   8.254 -0.6132 -0.1097 -0.3609
  188SLPC  C31621759   4.342   2.412   8.370  0.4598  0.8554  0.6713
  188SLPC  H16X21760   4.420   2.415   8.291  0.9206  1.0498  1.1277
  188SLPC  H16Y21761   4.397   2.399   8.466  1.7511 -0.2155 -0.1908
  188SLPC  C31721762   4.255   2.539   8.381 -0.0178 -0.8021  0.6216
  188SLPC  H17X21763   4.187   2.560   8.296  2.0080  1.4822 -0.5702
  188SLPC  H17Y21764   4.324   2.626   8.376 -0.4900 -0.3954  1.1234
  188SLPC  C31821765   4.196   2.554   8.518  0.4580  0.4283 -1.1296
  188SLPC  H18X21766   4.120   2.477   8.540  0.0119  0.5764 -2.1037
  188SLPC  H18Y21767   4.148   2.654   8.526  1.0952  0.6340  0.5851
  188SLPC  H18Z21768   4.268   2.548   8.603 -2.1728  0.1357  1.2341
  189SLPC     N21769   5.501   0.854   6.190  0.6659 -0.6008 -0.0476
  189SLPC   C1321770   5.442   0.927   6.310  0.8528 -0.0286 -0.6225
  189SLPC  H13A21771   5.444   1.034   6.302 -0.3699  0.3850  2.8871
  189SLPC  H13B21772   5.337   0.902   6.321  0.5173  0.2858 -2.6639
  189SLPC  H13C21773   5.494   0.904   6.402  1.4322 -1.7683 -1.3416
  189SLPC   C1421774   5.645   0.892   6.192  1.1257 -0.2321 -0.6137
  189SLPC  H14A21775   5.657   0.999   6.186  0.6690 -0.0401  1.2806
  189SLPC  H14B21776   5.690   0.869   6.287  2.8075 -1.3532 -1.6436
  189SLPC  H14C21777   5.714   0.846   6.123  0.2615 -1.9736 -0.3905
  189SLPC   C1521778   5.439   0.902   6.064 -0.3006 -0.6606  0.4817
  189SLPC  H15A21779   5.500   0.868   5.981  0.3859 -0.7188  1.0043
  189SLPC  H15B21780   5.337   0.868   6.058 -0.5545 -0.4308  2.6826
  189SLPC  H15C21781   5.439   1.010   6.056  0.5653 -0.7351 -1.0233
  189SLPC   C1221782   5.488   0.702   6.210 -0.2231 -0.2235 -0.3247
  189SLPC  H12A21783   5.384   0.674   6.206 -1.0590  2.3963  0.6928
  189SLPC  H12B21784   5.519   0.670   6.308  0.9984  1.2059 -0.2065
  189SLPC   C1121785   5.561   0.616   6.106 -0.6099 -0.5277  0.1694
  189SLPC  H11A21786   5.670   0.617   6.128 -0.7458 -3.4825  1.4631
  189SLPC  H11B21787   5.549   0.657   6.004  1.6163  0.0063  0.0745
  189SLPC     P21788   5.562   0.368   6.188  0.1626 -0.2283  0.5330
  189SLPC   O1321789   5.452   0.300   6.250  0.6528 -0.3736 -0.1962
  189SLPC   O1421790   5.652   0.296   6.097 -1.0587  0.3824 -0.3408
  189SLPC   O1221791   5.505   0.485   6.108 -0.5639  0.1305  0.3318
  189SLPC   O1121792   5.646   0.449   6.297 -0.7906  0.2338  0.0285
  189SLPC    C121793   5.603   0.478   6.429  0.4790 -0.3229 -0.2185
  189SLPC    HA21794   5.676   0.553   6.466 -2.1467  3.4325 -1.9859
  189SLPC    HB21795   5.495   0.501   6.441  0.4459 -1.6785  2.9017
  189SLPC    C221796   5.622   0.363   6.531 -0.4407  0.4445 -0.3241
  189SLPC    HS21797   5.535   0.295   6.518  0.9547 -0.8855 -4.3148
  189SLPC   O2121798   5.644   0.417   6.659  0.1348 -0.4270 -0.5630
  189SLPC   C2121799   5.550   0.398   6.746 -0.4167  0.0520 -0.0727
  189SLPC   O2221800   5.438   0.371   6.723  0.5504 -0.1406  0.4356
  189SLPC   C2221801   5.614   0.442   6.878  0.0995  0.3810  0.6408
  189SLPC   H2R21802   5.700   0.377   6.906 -1.6542 -1.6677  1.5917
  189SLPC   H2S21803   5.660   0.541   6.858 -0.3838  0.4068 -0.4348
  189SLPC    C321804   5.739   0.272   6.498 -0.9538  0.0783  0.0495
  189SLPC    HX21805   5.835   0.328   6.486 -2.7870  2.7973 -4.6472
  189SLPC    HY21806   5.730   0.220   6.400 -0.7733 -2.6926  1.4164
  189SLPC   O3121807   5.746   0.156   6.588  0.1798  0.1807  0.4675
  189SLPC   C3121808   5.832   0.157   6.692  0.6417 -0.5227  0.4368
  189SLPC   O3221809   5.898   0.256   6.723  0.0038  0.5396  0.2082
  189SLPC   C3221810   5.833   0.015   6.761  0.3474  0.2811 -0.4280
  189SLPC   H2X21811   5.937  -0.003   6.796  0.5100 -0.3243 -1.1979
  189SLPC   H2Y21812   5.806  -0.065   6.689 -2.5833 -0.5867  1.4692
  189SLPC   C2321813   5.510   0.440   6.995  0.0074  0.5482  0.2810
  189SLPC   H3R21814   5.474   0.338   7.017  0.5054  0.1604 -0.6346
  189SLPC   H3S21815   5.422   0.505   6.974 -0.2195  0.0242 -0.4096
  189SLPC   C2421816   5.572   0.471   7.137 -0.2445  0.2750 -0.3527
  189SLPC   H4R21817   5.582   0.581   7.147 -3.6799  0.7473 -0.9240
  189SLPC   H4S21818   5.672   0.426   7.157 -1.7162 -2.7085  0.9156
  189SLPC   C2521819   5.487   0.429   7.250 -0.8774 -0.5326 -0.1901
  189SLPC   H5R21820   5.493   0.319   7.263 -0.2626 -0.3318  1.6613
  189SLPC   H5S21821   5.380   0.457   7.238 -1.4476 -1.8561  1.4203
  189SLPC   C2621822   5.507   0.486   7.388  0.2349  0.0279 -0.1122
  189SLPC   H6R21823   5.449   0.581   7.392  1.8556  1.0991 -0.8320
  189SLPC   H6S21824   5.611   0.509   7.419 -0.1342  2.0165 -0.2367
  189SLPC   C2721825   5.465   0.383   7.498 -0.2110 -0.1431 -0.9293
  189SLPC   H7R21826   5.552   0.318   7.522  0.8973  2.7984  4.7916
  189SLPC   H7S21827   5.377   0.326   7.462 -0.4347  0.2435 -0.9953
  189SLPC   C2821828   5.432   0.453   7.627  0.5213  0.6333 -0.0829
  189SLPC   H8R21829   5.352   0.529   7.615  1.1538  1.1090 -1.4137
  189SLPC   H8S21830   5.528   0.506   7.649  0.9885 -0.0058 -0.5571
  189SLPC   C2921831   5.389   0.362   7.741  0.9655  0.3161  0.3122
  189SLPC   H9R21832   5.281   0.341   7.735  1.3321 -1.9564  0.8243
  189SLPC  C21021833   5.449   0.320   7.850  0.7865  0.2129 -0.8349
  189SLPC  H10R21834   5.407   0.243   7.917  1.8562 -0.2922 -0.7091
  189SLPC  C21121835   5.586   0.353   7.894 -0.6907 -0.7415 -0.3836
  189SLPC  H11R21836   5.589   0.431   7.973  0.4468 -2.0518  0.9147
  189SLPC  H11S21837   5.648   0.397   7.813 -1.5054  1.7952  0.2761
  189SLPC  C21221838   5.654   0.229   7.942  0.7779 -0.3677 -0.0653
  189SLPC  H12R21839   5.661   0.156   7.860  2.6946  1.1351 -1.3046
  189SLPC  C21321840   5.704   0.203   8.063 -0.2244  0.0315  0.7835
  189SLPC  H13R21841   5.741   0.099   8.072  2.2640  0.6617 -1.0104
  189SLPC  C21421842   5.715   0.280   8.189  1.0224  0.0514 -0.5825
  189SLPC  H14R21843   5.638   0.360   8.191  0.3867 -0.5436 -0.7963
  189SLPC  H14S21844   5.818   0.321   8.194  0.2389  1.9583  2.2635
  189SLPC  C21521845   5.693   0.205   8.323 -0.0805 -0.6531  0.4686
  189SLPC  H15R21846   5.739   0.260   8.409 -3.1318  1.3054  1.0010
  189SLPC  H15S21847   5.766   0.121   8.317  2.6418  1.5935 -0.0590
  189SLPC  C21621848   5.556   0.181   8.372  0.0455  0.4719 -0.7813
  189SLPC  H16R21849   5.507   0.104   8.308  0.8722  0.2132 -1.1183
  189SLPC  H16S21850   5.500   0.276   8.360  0.4478  0.5282 -2.5372
  189SLPC  C21721851   5.557   0.121   8.520  0.5361  0.3653  0.4290
  189SLPC  H17R21852   5.618   0.028   8.524  1.1828  0.8250  3.6361
  189SLPC  H17S21853   5.452   0.088   8.534  0.1746  0.9526 -0.7821
  189SLPC  C21821854   5.592   0.220   8.630 -0.7637 -0.1504 -0.6596
  189SLPC  H18R21855   5.694   0.264   8.616 -1.3260  1.1626 -0.7727
  189SLPC  H18S21856   5.578   0.173   8.730  1.1664  1.3356  0.3920
  189SLPC  H18T21857   5.524   0.308   8.628 -0.8012 -0.1567  0.1351
  189SLPC   C3321858   5.752   0.016   6.896 -0.4145 -0.4050 -0.0976
  189SLPC   H3X21859   5.697  -0.080   6.894  0.9461 -1.2312  1.2476
  189SLPC   H3Y21860   5.682   0.103   6.893  0.2624  0.1610  0.2085
  189SLPC   C3421861   5.843   0.011   7.023  0.1882 -0.1701  0.6141
  189SLPC   H4X21862   5.915   0.095   7.024 -1.1268  0.9986  2.1155
  189SLPC   H4Y21863   5.892  -0.089   7.017 -2.4496 -1.4800 -1.1693
  189SLPC   C3521864   5.754   0.032   7.152  0.4124 -0.7708  0.2906
  189SLPC   H5X21865   5.663  -0.032   7.156  1.2430 -1.9834  0.1005
  189SLPC   H5Y21866   5.723   0.137   7.173  2.3982 -0.1557  0.2949
  189SLPC   C3621867   5.821  -0.015   7.281 -0.2361 -0.0157 -0.5047
  189SLPC   H6X21868   5.917   0.038   7.298 -0.1659 -0.5948  1.0063
  189SLPC   H6Y21869   5.852  -0.122   7.280 -1.1034 -0.2686 -0.9926
  189SLPC   C3721870   5.729   0.014   7.409  0.3941  0.4363  0.3763
  189SLPC   H7X21871   5.633  -0.036   7.382  1.0651  0.3151 -1.9727
  189SLPC   H7Y21872   5.695   0.119   7.413 -0.3449  0.2165  0.0268
  189SLPC   C3821873   5.793  -0.055   7.532  0.5224  0.7804 -0.7372
  189SLPC   H8X21874   5.886   0.006   7.536  1.0406  0.2111 -2.7923
  189SLPC   H8Y21875   5.818  -0.159   7.504 -1.1425  0.1298  0.0989
  189SLPC   C3921876   5.708  -0.028   7.656  0.0470  0.1684  0.1428
  189SLPC   H9X21877   5.676   0.078   7.649 -1.5248 -0.2257  0.8790
  189SLPC   H9Y21878   5.770  -0.041   7.748 -0.0788  1.2784  0.4072
  189SLPC  C31021879   5.578  -0.108   7.655  0.3826  0.2431 -0.1345
  189SLPC  H10X21880   5.596  -0.217   7.639  0.7207  0.2797 -0.0123
  189SLPC  H10Y21881   5.518  -0.072   7.569  0.5664  1.5351  0.2536
  189SLPC  C31121882   5.485  -0.078   7.771 -0.7054 -0.0468  0.3152
  189SLPC  H11X21883   5.388  -0.131   7.755 -0.6215 -1.4347  3.5306
  189SLPC  H11Y21884   5.465   0.030   7.784 -0.6174 -0.1558  1.4174
  189SLPC  C31221885   5.537  -0.134   7.903  0.4399 -0.9448  0.3187
  189SLPC  H12X21886   5.642  -0.103   7.925 -0.5021  3.1841 -0.2769
  189SLPC  H12Y21887   5.522  -0.244   7.897  0.2857 -0.9740  1.1343
  189SLPC  C31321888   5.448  -0.082   8.020  0.4521  0.7141 -0.0774
  189SLPC  H13X21889   5.346  -0.098   7.978  0.8242  0.6297 -0.9699
  189SLPC  H13Y21890   5.458   0.026   8.044  0.1143  0.8580 -0.5771
  189SLPC  C31421891   5.455  -0.169   8.146  0.0196 -0.5504 -0.8576
  189SLPC  H14X21892   5.545  -0.129   8.197  0.4048 -1.3941 -0.8577
  189SLPC  H14Y21893   5.482  -0.277   8.139 -1.7027 -1.0064 -1.0763
  189SLPC  C31521894   5.325  -0.143   8.227  0.2593 -0.3019 -1.8481
  189SLPC  H15X21895   5.240  -0.208   8.196 -1.6124  1.2989 -0.3384
  189SLPC  H15Y21896   5.295  -0.036   8.218 -0.1172 -0.4022 -1.8064
  189SLPC  C31621897   5.346  -0.175   8.382  0.1887  0.2135 -0.2719
  189SLPC  H16X21898   5.412  -0.096   8.425  1.1826  0.9429 -2.9376
  189SLPC  H16Y21899   5.402  -0.271   8.383  0.9279  0.6175 -1.1350
  189SLPC  C31721900   5.221  -0.195   8.462  0.4202 -0.0485 -0.2866
  189SLPC  H17X21901   5.158  -0.274   8.414  1.1285 -0.5087 -0.4641
  189SLPC  H17Y21902   5.157  -0.104   8.454  1.9529  1.0960  0.0322
  189SLPC  C31821903   5.237  -0.238   8.611 -0.2506 -1.0113  0.4710
  189SLPC  H18X21904   5.138  -0.252   8.659 -0.9834 -1.9691 -1.2153
  189SLPC  H18Y21905   5.295  -0.157   8.661 -0.2303 -0.8836  0.2463
  189SLPC  H18Z21906   5.289  -0.334   8.629  1.0574 -0.3481  0.4252
  190SLPC     N21907   0.119   3.526   6.288 -0.8415 -1.0025  0.6437
  190SLPC   C1321908   0.055   3.506   6.155 -0.4102  0.4457 -0.0270
  190SLPC  H13A21909   0.039   3.400   6.141  0.5596  0.3638 -0.6348
  190SLPC  H13B21910  -0.045   3.545   6.154  0.1850  2.1074  1.2197
  190SLPC  H13C21911   0.112   3.546   6.072  1.1757 -1.1432  0.2247
  190SLPC   C1421912   0.140   3.672   6.309 -0.1864 -0.0165 -0.5520
  190SLPC  H14A21913   0.203   3.715   6.232  0.8582 -0.0544  0.2525
  190SLPC  H14B21914   0.050   3.731   6.316  0.0587  0.4295 -1.0457
  190SLPC  H14C21915   0.186   3.685   6.406  1.4910  0.6411 -1.3926
  190SLPC   C1521916   0.250   3.462   6.273 -0.2781 -0.2466  0.2457
  190SLPC  H15A21917   0.312   3.466   6.362  1.6286  1.5621 -1.0543
  190SLPC  H15B21918   0.246   3.357   6.246 -1.8856  0.3933 -2.2419
  190SLPC  H15C21919   0.301   3.522   6.200 -0.8340 -0.1235 -0.0436
  190SLPC   C1221920   0.043   3.477   6.406 -0.3284  0.3598  0.1682
  190SLPC  H12A21921   0.113   3.502   6.484 -0.6790  2.1285 -0.0443
  190SLPC  H12B21922   0.038   3.370   6.392 -0.3994  0.4393 -0.4368
  190SLPC   C1121923  -0.090   3.540   6.456 -0.8058  0.0923  0.8163
  190SLPC  H11A21924  -0.069   3.645   6.487  0.9396  0.2001 -0.5516
  190SLPC  H11B21925  -0.114   3.477   6.544 -0.7485  0.1820  0.8969
  190SLPC     P21926  -0.315   3.453   6.340 -0.0862  0.4217  0.0729
  190SLPC   O1321927  -0.353   3.428   6.196 -0.5912 -0.1560  0.1377
  190SLPC   O1421928  -0.296   3.334   6.424  0.2193 -0.1776 -0.5353
  190SLPC   O1221929  -0.187   3.540   6.350 -0.1526 -0.0217  0.2336
  190SLPC   O1121930  -0.418   3.555   6.395 -0.4068 -0.1705  0.0187
  190SLPC    C121931  -0.404   3.648   6.501 -0.4892 -0.3495 -0.3691
  190SLPC    HA21932  -0.310   3.706   6.487  0.2200 -1.3730  0.0590
  190SLPC    HB21933  -0.486   3.723   6.495 -0.9688 -0.5498  2.4061
  190SLPC    C221934  -0.405   3.566   6.628 -0.1784  0.2072  0.0671
  190SLPC    HS21935  -0.328   3.487   6.615 -1.5179 -1.1900  0.2364
  190SLPC   O2121936  -0.540   3.507   6.631  0.9137 -0.0098  0.7772
  190SLPC   C2121937  -0.548   3.390   6.685 -0.8441 -0.5169 -0.1516
  190SLPC   O2221938  -0.454   3.325   6.736  0.0877 -0.2068 -0.3110
  190SLPC   C2221939  -0.687   3.349   6.712 -0.1692  0.1558 -0.0853
  190SLPC   H2R21940  -0.761   3.374   6.633  1.3249 -1.3186 -2.0755
  190SLPC   H2S21941  -0.687   3.238   6.717 -1.5604  0.0826 -1.0491
  190SLPC    C321942  -0.378   3.655   6.759 -0.2676 -1.4100  0.0450
  190SLPC    HX21943  -0.455   3.733   6.740 -1.6764 -2.6684  0.3312
  190SLPC    HY21944  -0.283   3.712   6.746  0.6422 -2.7388  0.6599
  190SLPC   O3121945  -0.403   3.588   6.884 -0.0524 -0.1482  0.1109
  190SLPC   C3121946  -0.291   3.553   6.942 -0.0449  0.1041  0.1814
  190SLPC   O3221947  -0.180   3.549   6.898 -0.5891  0.1012 -0.8679
  190SLPC   C3221948  -0.326   3.539   7.088 -0.1688 -0.4976 -0.7796
  190SLPC   H2X21949  -0.408   3.466   7.108 -0.0635  0.1588  2.6230
  190SLPC   H2Y21950  -0.364   3.635   7.129  2.1619 -0.6756  2.1084
  190SLPC   C2321951  -0.749   3.417   6.836  0.3338  0.5745  0.5973
  190SLPC   H3R21952  -0.856   3.393   6.851 -0.2087  2.1721 -0.5919
  190SLPC   H3S21953  -0.742   3.526   6.816  0.6529  0.1171 -2.1803
  190SLPC   C2421954  -0.672   3.378   6.964 -0.0354 -0.0935 -0.4291
  190SLPC   H4R21955  -0.563   3.395   6.951 -0.1339  1.4598  0.5768
  190SLPC   H4S21956  -0.688   3.268   6.971  0.5514 -0.1109  0.7240
  190SLPC   C2521957  -0.733   3.433   7.090 -0.4325 -0.2411  0.0641
  190SLPC   H5R21958  -0.696   3.366   7.170 -1.4141  0.7338  1.3842
  190SLPC   H5S21959  -0.844   3.437   7.080 -0.3555 -0.6106 -1.1038
  190SLPC   C2621960  -0.686   3.574   7.131  0.7340  0.2704 -0.1547
  190SLPC   H6R21961  -0.708   3.639   7.044  1.7427  0.0820 -0.5609
  190SLPC   H6S21962  -0.579   3.582   7.161  0.1814  2.6573  1.3804
  190SLPC   C2721963  -0.762   3.632   7.255  0.7779 -0.3996  0.3193
  190SLPC   H7R21964  -0.861   3.584   7.269  0.0498  1.6975  3.2223
  190SLPC   H7S21965  -0.805   3.732   7.233 -3.8213 -1.8437  1.5974
  190SLPC   C2821966  -0.684   3.629   7.388 -0.6038  0.0056  0.1534
  190SLPC   H8R21967  -0.751   3.680   7.461 -0.5720  0.8850 -0.4117
  190SLPC   H8S21968  -0.600   3.702   7.381 -1.2197  0.6884 -0.2928
  190SLPC   C2921969  -0.648   3.489   7.441 -0.7347 -0.8907  0.5750
  190SLPC   H9R21970  -0.633   3.410   7.366 -2.8339 -2.2156  1.4765
  190SLPC  C21021971  -0.636   3.450   7.565  0.1503 -0.0488 -0.1690
  190SLPC  H10R21972  -0.611   3.346   7.589  1.8638  0.2631 -0.4819
  190SLPC  C21121973  -0.665   3.535   7.688  0.3066  0.1880 -0.1194
  190SLPC  H11R21974  -0.714   3.479   7.771  2.1559 -0.2625  0.7142
  190SLPC  H11S21975  -0.739   3.613   7.659 -2.3326 -1.3916  1.8565
  190SLPC  C21221976  -0.532   3.596   7.729 -0.2353 -0.2054 -0.0317
  190SLPC  H12R21977  -0.479   3.626   7.638  0.1165 -0.9228 -0.0721
  190SLPC  C21321978  -0.471   3.607   7.854 -0.6359 -0.1870  0.6176
  190SLPC  H13R21979  -0.369   3.648   7.859 -0.9449  0.8461 -0.7671
  190SLPC  C21421980  -0.531   3.559   7.978  0.5313  1.4051 -0.0598
  190SLPC  H14R21981  -0.453   3.519   8.046  1.5070  4.0163  0.4717
  190SLPC  H14S21982  -0.615   3.491   7.950  0.5403  1.1934  0.4219
  190SLPC  C21521983  -0.599   3.675   8.060  0.0470  0.9062 -0.9342
  190SLPC  H15R21984  -0.675   3.722   7.993 -0.2997  0.9947 -0.4814
  190SLPC  H15S21985  -0.533   3.755   8.098 -0.5825  0.4004  1.3529
  190SLPC  C21621986  -0.664   3.618   8.183  0.2054  0.3127 -0.1990
  190SLPC  H16R21987  -0.576   3.583   8.241 -0.3092  1.1081  1.1187
  190SLPC  H16S21988  -0.729   3.530   8.163  0.1900  0.1645  0.4491
  190SLPC  C21721989  -0.748   3.719   8.259 -0.1371  0.0759  0.1234
  190SLPC  H17R21990  -0.855   3.736   8.236  0.4663  3.0067 -0.9773
  190SLPC  H17S21991  -0.698   3.817   8.244  0.8766 -0.2653  1.1394
  190SLPC  C21821992  -0.743   3.688   8.404  0.2233 -0.4011  0.0385
  190SLPC  H18R21993  -0.770   3.581   8.417 -2.7054  0.2905  0.2067
  190SLPC  H18S21994  -0.812   3.762   8.451  2.4354  2.0033 -0.2701
  190SLPC  H18T21995  -0.645   3.715   8.450  0.0647 -0.3110  0.3273
  190SLPC   C3321996  -0.208   3.507   7.170 -0.5500 -0.4964  0.5619
  190SLPC   H3X21997  -0.130   3.584   7.152 -0.6963 -0.5493 -0.3677
  190SLPC   H3Y21998  -0.169   3.406   7.148 -0.6840 -0.3941 -0.1863
  190SLPC   C3421999  -0.248   3.510   7.316 -0.2747 -0.2092  0.5417
  190SLPC   H4X22000  -0.328   3.437   7.341 -2.5632  1.0222 -2.5610
  190SLPC   H4Y22001  -0.295   3.608   7.337  0.0334  0.3778 -1.3598
  190SLPC   C3522002  -0.127   3.477   7.400 -0.2449  0.5694 -0.1466
  190SLPC   H5X22003  -0.045   3.551   7.388  1.0613 -0.9468 -0.9442
  190SLPC   H5Y22004  -0.088   3.380   7.362 -0.5259  0.2013  0.4828
  190SLPC   C3622005  -0.157   3.462   7.549  0.2211 -0.1201 -0.4976
  190SLPC   H6X22006  -0.240   3.392   7.572  1.7144 -0.9535  2.8969
  190SLPC   H6Y22007  -0.190   3.563   7.583 -0.0467 -0.1343 -0.7145
  190SLPC   C3722008  -0.041   3.409   7.627  0.2511 -0.5597 -0.4850
  190SLPC   H7X22009   0.056   3.458   7.605  0.6753 -2.1279 -2.4808
  190SLPC   H7Y22010  -0.031   3.303   7.594 -0.7374 -0.8469  0.1157
  190SLPC   C3822011  -0.075   3.419   7.778 -0.0105 -0.0184 -0.1878
  190SLPC   H8X22012  -0.156   3.343   7.788 -0.4462  0.2125 -1.6951
  190SLPC   H8Y22013  -0.104   3.524   7.802 -1.4598  0.0117 -1.8471
  190SLPC   C3922014   0.040   3.369   7.866  0.3788 -0.3372  0.4964
  190SLPC   H9X22015   0.127   3.433   7.843  0.1334  0.7305  2.3110
  190SLPC   H9Y22016   0.058   3.263   7.841 -0.1027  0.0698 -1.8324
  190SLPC  C31022017   0.001   3.383   8.016  0.3495 -0.1280 -0.1511
  190SLPC  H10X22018  -0.040   3.485   8.034 -0.4357 -0.3688 -0.5334
  190SLPC  H10Y22019   0.091   3.375   8.081  0.9851  3.2230 -0.3993
  190SLPC  C31122020  -0.105   3.291   8.055  0.9742  0.3251 -0.2129
  190SLPC  H11X22021  -0.073   3.185   8.042 -1.2270 -0.5668  1.1171
  190SLPC  H11Y22022  -0.190   3.312   7.986  0.6178 -2.9332 -0.9337
  190SLPC  C31222023  -0.155   3.311   8.197 -0.8111 -0.6739  0.5756
  190SLPC  H12X22024  -0.257   3.270   8.211 -1.9589  1.2907 -1.3687
  190SLPC  H12Y22025  -0.157   3.418   8.226  3.0129 -0.1529 -0.5311
  190SLPC  C31322026  -0.062   3.243   8.292  0.0139 -0.5401 -0.0981
  190SLPC  H13X22027   0.040   3.266   8.256 -0.1568  1.4883  0.5808
  190SLPC  H13Y22028  -0.078   3.133   8.291  0.2329 -0.5967  1.0845
  190SLPC  C31422029  -0.078   3.292   8.442  0.0063 -0.0409  0.5913
  190SLPC  H14X22030  -0.154   3.228   8.493 -0.5195 -0.5697 -0.8153
  190SLPC  H14Y22031  -0.101   3.400   8.450  0.5635  0.0507  0.9725
  190SLPC  C31522032   0.052   3.272   8.523  0.6806 -0.4172 -0.4214
  190SLPC  H15X22033   0.114   3.358   8.492 -0.0688  0.6822  1.0129
  190SLPC  H15Y22034   0.107   3.178   8.500 -0.0348 -0.7440 -0.8384
  190SLPC  C31622035   0.021   3.286   8.678 -0.0430  0.6177  0.8009
  190SLPC  H16X22036   0.120   3.274   8.727  0.4224  1.6278  0.1328
  190SLPC  H16Y22037  -0.037   3.194   8.703 -1.1763  1.4551  1.3425
  190SLPC  C31722038  -0.050   3.411   8.717  0.1429  0.0524 -0.1592
  190SLPC  H17X22039  -0.154   3.410   8.676  0.3243  1.2350 -0.6944
  190SLPC  H17Y22040  -0.001   3.506   8.685  0.1732  0.1234  0.0955
  190SLPC  C31822041  -0.063   3.429   8.871  0.5410 -0.4241  0.1424
  190SLPC  H18X22042  -0.116   3.521   8.903  1.0441 -0.1747  0.2729
  190SLPC  H18Y22043   0.038   3.443   8.917  0.9191  1.9494 -1.2160
  190SLPC  H18Z22044  -0.101   3.332   8.908  0.8456 -0.7587 -0.4026
  191SLPC     N22045   5.560   0.557   5.656  0.1665 -0.3829  0.5821
  191SLPC   C1322046   5.544   0.481   5.534 -0.1548 -1.0973 -0.4571
  191SLPC  H13A22047   5.578   0.379   5.546  1.9203 -0.2749  1.2242
  191SLPC  H13B22048   5.440   0.467   5.509 -0.5834  0.3748  0.3983
  191SLPC  H13C22049   5.599   0.517   5.448 -0.7668  0.0487 -0.3861
  191SLPC   C1422050   5.525   0.705   5.633  0.5605 -0.3209  0.2484
  191SLPC  H14A22051   5.596   0.761   5.574 -1.4129  2.3396  0.2005
  191SLPC  H14B22052   5.428   0.715   5.587  0.4659 -1.1299  0.2651
  191SLPC  H14C22053   5.537   0.755   5.728 -0.5137  0.0093  0.2236
  191SLPC   C1522054   5.706   0.572   5.685  0.0569  0.2496 -0.6819
  191SLPC  H15A22055   5.730   0.611   5.783 -0.5151 -1.2932  0.0985
  191SLPC  H15B22056   5.738   0.470   5.694 -1.1007 -0.1789 -1.2123
  191SLPC  H15C22057   5.755   0.628   5.607 -0.1919  1.1506 -0.2062
  191SLPC   C1222058   5.489   0.490   5.770  0.1920 -0.2716 -0.3691
  191SLPC  H12A22059   5.385   0.488   5.740  0.0230  2.1780 -0.1853
  191SLPC  H12B22060   5.485   0.546   5.863  2.2570  1.2111 -1.1016
  191SLPC   C1122061   5.523   0.347   5.801  0.1731  0.8306  0.1236
  191SLPC  H11A22062   5.496   0.315   5.904  3.7339  2.4951  1.7984
  191SLPC  H11B22063   5.634   0.334   5.801  0.1945  0.9244  1.1239
  191SLPC     P22064   5.320   0.213   5.697 -0.0582  0.1908  0.0578
  191SLPC   O1322065   5.237   0.334   5.665  0.2092  0.5269 -0.0562
  191SLPC   O1422066   5.305   0.108   5.601 -0.3240  0.4183  0.0577
  191SLPC   O1222067   5.468   0.255   5.700 -0.3606  0.1889 -0.2897
  191SLPC   O1122068   5.301   0.152   5.844 -0.2966  0.0736  0.7812
  191SLPC    C122069   5.403   0.072   5.904  0.2802 -0.3415 -0.1741
  191SLPC    HA22070   5.485   0.045   5.834 -1.9271 -2.4799 -2.1237
  191SLPC    HB22071   5.439   0.111   6.002  0.2852 -3.0091  0.9945
  191SLPC    C222072   5.355  -0.069   5.951 -0.3688 -0.3483 -0.3810
  191SLPC    HS22073   5.327  -0.112   5.853 -0.6349 -0.1829 -0.3782
  191SLPC   O2122074   5.238  -0.054   6.038  0.1479 -0.0319  0.1612
  191SLPC   C2122075   5.160  -0.155   6.031  0.2328 -0.4648 -0.2096
  191SLPC   O2222076   5.175  -0.252   5.962  0.3802  0.2090 -0.2480
  191SLPC   C2222077   5.045  -0.146   6.141  0.7488 -0.3569  0.7519
  191SLPC   H2R22078   5.067  -0.060   6.207  0.2565 -0.5994  1.2374
  191SLPC   H2S22079   4.961  -0.101   6.083 -0.5889 -0.4454  2.5613
  191SLPC    C322080   5.470  -0.156   6.001  0.1442  0.3721  0.2220
  191SLPC    HX22081   5.557  -0.160   5.932 -0.6382 -1.6193 -0.7394
  191SLPC    HY22082   5.449  -0.265   5.997  2.4103 -0.0841 -0.5117
  191SLPC   O3122083   5.510  -0.110   6.133  0.1627 -0.1434 -0.2654
  191SLPC   C3122084   5.434  -0.156   6.227  0.7356 -0.5043  0.0979
  191SLPC   O3222085   5.352  -0.247   6.219  0.6917  0.2255  0.2922
  191SLPC   C3222086   5.470  -0.081   6.360 -0.6675 -0.6754  0.4229
  191SLPC   H2X22087   5.475   0.028   6.343  0.5528 -0.6805  0.6034
  191SLPC   H2Y22088   5.574  -0.119   6.373 -0.1315 -1.2941 -4.0757
  191SLPC   C2322089   5.010  -0.278   6.214 -0.3766 -0.0405  0.1043
  191SLPC   H3R22090   5.094  -0.306   6.281  1.3015  0.7249 -1.5863
  191SLPC   H3S22091   5.002  -0.360   6.138  0.4871 -0.8717  0.8856
  191SLPC   C2422092   4.896  -0.265   6.310  0.5397  0.3418  0.2936
  191SLPC   H4R22093   4.858  -0.364   6.343 -0.5655  0.2782 -1.0909
  191SLPC   H4S22094   4.816  -0.207   6.259  0.6193 -0.5919 -0.9220
  191SLPC   C2522095   4.927  -0.173   6.436  0.1673  1.0409  0.7046
  191SLPC   H5R22096   4.920  -0.064   6.419  0.6131  0.9304 -0.2246
  191SLPC   H5S22097   5.034  -0.196   6.452  0.1313 -1.0051 -1.4953
  191SLPC   C2622098   4.840  -0.221   6.561 -0.2828 -0.7646  0.0332
  191SLPC   H6R22099   4.853  -0.330   6.573  1.4111 -0.6086 -0.1410
  191SLPC   H6S22100   4.732  -0.203   6.541 -0.5097 -2.3253 -0.3052
  191SLPC   C2722101   4.899  -0.149   6.692  0.0571 -0.0884  0.1669
  191SLPC   H7R22102   4.861  -0.045   6.699  0.4880  0.2944 -2.4054
  191SLPC   H7S22103   5.005  -0.144   6.659  0.3916 -1.5341  0.9679
  191SLPC   C2822104   4.885  -0.240   6.817  1.1781 -0.7949  0.8225
  191SLPC   H8R22105   4.917  -0.342   6.786 -2.4751 -1.0570 -3.1397
  191SLPC   H8S22106   4.775  -0.254   6.829  1.3045 -2.0363  0.7255
  191SLPC   C2922107   4.940  -0.174   6.943  0.0711  0.1621 -0.2688
  191SLPC   H9R22108   5.050  -0.178   6.944  0.0635 -1.2727 -1.2694
  191SLPC  C21022109   4.872  -0.132   7.052 -0.9064  0.3297 -0.0239
  191SLPC  H10R22110   4.938  -0.090   7.130  0.1492 -0.0965 -0.6695
  191SLPC  C21122111   4.728  -0.133   7.083 -0.1431 -0.3098 -0.5352
  191SLPC  H11R22112   4.661  -0.113   6.997 -0.7276  1.7497  0.3584
  191SLPC  H11S22113   4.719  -0.046   7.151 -0.7235 -1.0126  0.3144
  191SLPC  C21222114   4.692  -0.254   7.163  0.8304  0.6515 -0.5306
  191SLPC  H12R22115   4.657  -0.329   7.091  1.7548  0.9875 -1.3455
  191SLPC  C21322116   4.692  -0.283   7.301 -0.1635  0.1335  0.4112
  191SLPC  H13R22117   4.657  -0.384   7.328  0.5869  0.1543  1.4739
  191SLPC  C21422118   4.731  -0.185   7.408 -0.0510 -0.2272  0.0944
  191SLPC  H14R22119   4.818  -0.125   7.377  2.1367 -3.2929 -0.2175
  191SLPC  H14S22120   4.776  -0.246   7.490  0.7582 -2.5829 -1.9712
  191SLPC  C21522121   4.616  -0.103   7.476  0.3915 -0.6384  0.9996
  191SLPC  H15R22122   4.544  -0.180   7.512 -1.7077  1.0927  0.7324
  191SLPC  H15S22123   4.568  -0.048   7.392 -0.3515  0.6569  2.2207
  191SLPC  C21622124   4.668  -0.009   7.583  0.0868 -0.0109 -0.5062
  191SLPC  H16R22125   4.759   0.042   7.546 -0.1848  3.4885  2.9006
  191SLPC  H16S22126   4.699  -0.051   7.681  0.3121  1.3152  0.0239
  191SLPC  C21722127   4.568   0.095   7.619  0.7850 -0.0805 -0.5061
  191SLPC  H17R22128   4.541   0.142   7.521  0.1014  0.4289 -0.0819
  191SLPC  H17S22129   4.619   0.170   7.684 -0.2383 -1.9038  2.5704
  191SLPC  C21822130   4.453   0.028   7.696 -0.2520 -0.5654 -1.0194
  191SLPC  H18R22131   4.384  -0.024   7.625 -1.6071 -2.9942  1.8423
  191SLPC  H18S22132   4.401   0.111   7.749  0.3910 -1.2562  0.7524
  191SLPC  H18T22133   4.490  -0.038   7.776  3.0135  1.0859 -1.0066
  191SLPC   C3322134   5.386  -0.127   6.479  0.5098  0.3580 -0.4063
  191SLPC   H3X22135   5.400  -0.230   6.516  1.1596  1.3877  2.4603
  191SLPC   H3Y22136   5.278  -0.105   6.462  0.8232  2.3503 -0.0711
  191SLPC   C3422137   5.409  -0.042   6.607  0.1269 -0.5945  0.1501
  191SLPC   H4X22138   5.400   0.068   6.591  1.8409 -0.5066 -0.3820
  191SLPC   H4Y22139   5.517  -0.046   6.631  0.4389 -0.5204 -1.1556
  191SLPC   C3522140   5.324  -0.075   6.731  0.3158  0.3355 -0.3525
  191SLPC   H5X22141   5.348  -0.170   6.784 -0.2990  0.7762  0.7415
  191SLPC   H5Y22142   5.216  -0.082   6.709  0.1171  1.3138  0.2648
  191SLPC   C3622143   5.338   0.027   6.842  0.4656  1.3058  0.4293
  191SLPC   H6X22144   5.326   0.132   6.806  1.2151  1.3044  0.1500
  191SLPC   H6Y22145   5.440   0.014   6.885  1.3701  1.4651 -1.5846
  191SLPC   C3722146   5.243   0.005   6.961  0.6695 -0.1371 -0.7530
  191SLPC   H7X22147   5.262  -0.101   6.990 -0.7974 -0.7751 -1.9329
  191SLPC   H7Y22148   5.139   0.013   6.922 -0.5368 -1.6675  1.8987
  191SLPC   C3822149   5.270   0.107   7.075  0.0393 -0.2075  0.5416
  191SLPC   H8X22150   5.281   0.204   7.022 -0.5929  0.9753  2.4700
  191SLPC   H8Y22151   5.371   0.081   7.114  0.7898 -0.5233 -1.4984
  191SLPC   C3922152   5.163   0.110   7.189  0.2765 -0.3762  0.7793
  191SLPC   H9X22153   5.059   0.117   7.151  1.1671  1.4503 -1.6127
  191SLPC   H9Y22154   5.186   0.207   7.238  0.8401 -1.3215  2.4731
  191SLPC  C31022155   5.189   0.013   7.304 -0.1986 -0.1193  0.0549
  191SLPC  H10X22156   5.297   0.006   7.328 -0.6210 -1.7135  1.7578
  191SLPC  H10Y22157   5.149  -0.086   7.271  1.6486 -1.1834  0.8704
  191SLPC  C31122158   5.116   0.055   7.434  0.3152  0.5232  0.3947
  191SLPC  H11X22159   5.009   0.050   7.406  0.4276 -1.0406  0.1875
  191SLPC  H11Y22160   5.125   0.164   7.454 -2.9737  1.4959 -2.4104
  191SLPC  C31222161   5.148  -0.027   7.563 -0.6474 -0.1920 -0.4472
  191SLPC  H12X22162   5.253  -0.007   7.592 -1.5406  2.5218  1.2853
  191SLPC  H12Y22163   5.142  -0.136   7.542  0.3034 -0.0067 -1.8044
  191SLPC  C31322164   5.061   0.014   7.679 -0.4252  0.9109 -0.1903
  191SLPC  H13X22165   4.952   0.011   7.662 -0.2765 -1.2252 -1.0784
  191SLPC  H13Y22166   5.104   0.112   7.710 -0.5163  0.3519  1.8289
  191SLPC  C31422167   5.097  -0.072   7.799  0.2562  0.0103 -0.4934
  191SLPC  H14X22168   5.043  -0.022   7.883 -0.4186 -0.0269 -0.9036
  191SLPC  H14Y22169   5.204  -0.064   7.830  0.1756 -1.0384  0.0970
  191SLPC  C31522170   5.040  -0.211   7.798  0.0352 -0.1755 -0.1157
  191SLPC  H15X22171   5.114  -0.293   7.791 -0.7741 -0.8129 -2.3795
  191SLPC  H15Y22172   4.975  -0.226   7.709  1.1506  0.3065 -1.0433
  191SLPC  C31622173   4.944  -0.239   7.916 -0.0747  0.6280  0.3914
  191SLPC  H16X22174   4.864  -0.161   7.919  0.7836  1.5858 -0.9228
  191SLPC  H16Y22175   5.007  -0.226   8.007  0.2659  2.9240 -0.1076
  191SLPC  C31722176   4.879  -0.371   7.916 -0.1951  0.4605  0.5891
  191SLPC  H17X22177   4.954  -0.449   7.891  1.0093  1.6661  0.3091
  191SLPC  H17Y22178   4.794  -0.376   7.846 -0.0545 -0.2256  0.4658
  191SLPC  C31822179   4.823  -0.390   8.053 -0.7300  0.3739  0.4617
  191SLPC  H18X22180   4.760  -0.481   8.051 -0.4393  0.1228  1.7679
  191SLPC  H18Y22181   4.777  -0.294   8.083  0.7563  1.4839 -0.6432
  191SLPC  H18Z22182   4.911  -0.421   8.114  0.2826 -0.4721 -1.3402
  192SLPC     N22183   4.207   1.564   6.153  0.2076  0.5213  0.1015
  192SLPC   C1322184   4.099   1.662   6.120 -0.0621  0.3156 -0.9199
  192SLPC  H13A22185   4.100   1.702   6.019  1.1464 -2.9004 -2.3009
  192SLPC  H13B22186   4.005   1.610   6.130  0.2089 -0.1812 -0.9256
  192SLPC  H13C22187   4.119   1.745   6.187  2.3484 -2.4363  2.0910
  192SLPC   C1422188   4.331   1.641   6.152 -0.5049  0.3662 -0.1139
  192SLPC  H14A22189   4.352   1.689   6.058 -3.1937 -2.2566 -2.2365
  192SLPC  H14B22190   4.324   1.717   6.228 -2.9801  0.7674 -0.6848
  192SLPC  H14C22191   4.419   1.580   6.166  1.3428  2.4383 -1.9607
  192SLPC   C1522192   4.209   1.462   6.042  0.7779  0.6637  1.1463
  192SLPC  H15A22193   4.281   1.389   6.075 -0.5596  0.1905  3.2493
  192SLPC  H15B22194   4.115   1.413   6.023  0.9881 -0.5097  2.9020
  192SLPC  H15C22195   4.242   1.502   5.948 -0.4485  1.2708  0.9642
  192SLPC   C1222196   4.182   1.497   6.288  0.2288 -0.0055  0.4623
  192SLPC  H12A22197   4.079   1.463   6.286  0.9508 -2.3848 -1.8464
  192SLPC  H12B22198   4.201   1.558   6.375 -1.9828  1.5515 -0.0614
  192SLPC   C1122199   4.270   1.365   6.311  0.1952 -0.5009 -0.1006
  192SLPC  H11A22200   4.295   1.346   6.418 -1.4569  1.2080  0.6475
  192SLPC  H11B22201   4.370   1.393   6.271  0.0080 -0.1333 -0.3107
  192SLPC     P22202   4.093   1.185   6.318  0.0678 -0.0127 -0.3555
  192SLPC   O1322203   3.980   1.275   6.288  0.7537  0.0022  0.5152
  192SLPC   O1422204   4.073   1.048   6.267 -0.3365  0.5946  0.5567
  192SLPC   O1222205   4.223   1.242   6.251  0.0413 -0.2473 -0.0236
  192SLPC   O1122206   4.131   1.176   6.471  0.8138 -0.0900 -0.9207
  192SLPC    C122207   4.209   1.073   6.524  0.3062  0.3239 -0.5653
  192SLPC    HA22208   4.261   1.012   6.447 -0.8473 -0.7763 -0.4998
  192SLPC    HB22209   4.286   1.130   6.580  1.7707 -2.3884  0.3753
  192SLPC    C222210   4.124   0.965   6.600 -0.0955  0.1427 -0.4592
  192SLPC    HS22211   4.104   0.883   6.528 -2.0715 -0.5009  0.7357
  192SLPC   O2122212   4.003   1.028   6.646 -0.3493  0.1781 -0.4462
  192SLPC   C2122213   3.901   0.953   6.672  0.2678 -0.4444  0.2506
  192SLPC   O2222214   3.905   0.828   6.657 -0.2642  0.2031 -0.2030
  192SLPC   C2222215   3.784   1.031   6.738 -0.8437  0.1111  0.7272
  192SLPC   H2R22216   3.831   1.113   6.796 -0.0426  0.1689  0.0318
  192SLPC   H2S22217   3.721   1.065   6.653 -0.8742 -1.6197  0.0139
  192SLPC    C322218   4.206   0.888   6.709 -0.1207 -0.3451 -0.3171
  192SLPC    HX22219   4.278   0.815   6.665 -0.5843 -0.2814 -1.1968
  192SLPC    HY22220   4.132   0.833   6.770 -0.3981  1.4068  1.0038
  192SLPC   O3122221   4.274   0.992   6.781  0.2968 -0.0646  0.6137
  192SLPC   C3122222   4.224   1.044   6.901  1.0353  0.1561 -0.4112
  192SLPC   O3222223   4.123   1.005   6.950  0.1017 -0.1378 -0.5607
  192SLPC   C3222224   4.315   1.154   6.946 -0.0168 -0.4132  0.0945
  192SLPC   H2X22225   4.332   1.228   6.865  1.8272 -0.0495  0.7614
  192SLPC   H2Y22226   4.416   1.117   6.976 -0.0269 -2.5481 -2.1451
  192SLPC   C2322227   3.689   0.941   6.825 -0.1840 -0.0924  0.0384
  192SLPC   H3R22228   3.658   0.859   6.757 -2.0961 -1.1608  2.0822
  192SLPC   H3S22229   3.595   0.996   6.847 -0.0854  0.2476 -0.3702
  192SLPC   C2422230   3.750   0.883   6.951 -0.2493  0.4787  0.0503
  192SLPC   H4R22231   3.832   0.814   6.918  1.6088  2.6250 -0.0363
  192SLPC   H4S22232   3.671   0.823   7.002  0.2369  0.1265  0.4033
  192SLPC   C2522233   3.804   0.982   7.054  0.4008  0.6704 -0.3705
  192SLPC   H5R22234   3.876   1.054   7.011  0.8990  1.5451  1.7664
  192SLPC   H5S22235   3.853   0.937   7.143  1.1650  2.9804  0.4696
  192SLPC   C2622236   3.683   1.059   7.119  0.0552  0.6017 -0.4579
  192SLPC   H6R22237   3.602   0.996   7.161  0.8409  0.3536  0.7368
  192SLPC   H6S22238   3.641   1.128   7.044 -0.9041 -1.0214 -1.4762
  192SLPC   C2722239   3.735   1.150   7.237  0.4869 -0.5345 -0.0484
  192SLPC   H7R22240   3.791   1.233   7.189  0.3761 -0.0773  0.5928
  192SLPC   H7S22241   3.800   1.095   7.308 -0.9567 -2.4546 -0.1526
  192SLPC   C2822242   3.618   1.208   7.320  0.0568  0.0453 -0.6695
  192SLPC   H8R22243   3.570   1.117   7.362 -3.0197  1.9572  0.3246
  192SLPC   H8S22244   3.548   1.259   7.250 -0.3398  1.0224  0.4248
  192SLPC   C2922245   3.667   1.299   7.422  0.1231  0.0265 -0.4914
  192SLPC   H9R22246   3.699   1.397   7.383  0.5204  0.4926  0.9554
  192SLPC  C21022247   3.679   1.282   7.557 -0.1267 -0.4850  0.1411
  192SLPC  H10R22248   3.730   1.359   7.617 -0.1153 -0.6022  0.2801
  192SLPC  C21122249   3.641   1.163   7.646  0.4025 -0.3424  0.3427
  192SLPC  H11R22250   3.734   1.117   7.684  0.1394 -2.7401 -1.6645
  192SLPC  H11S22251   3.597   1.080   7.587 -1.1707 -0.0133  0.9941
  192SLPC  C21222252   3.546   1.199   7.759 -0.2773 -0.0452  0.5993
  192SLPC  H12R22253   3.441   1.177   7.733  0.5557 -2.9192 -0.7638
  192SLPC  C21322254   3.577   1.244   7.879 -0.4070 -0.4442  0.3091
  192SLPC  H13R22255   3.501   1.271   7.953  0.3674  1.1995  0.5504
  192SLPC  C21422256   3.715   1.289   7.914 -0.8981 -0.4435 -0.4549
  192SLPC  H14R22257   3.694   1.386   7.964 -1.7604 -0.0993 -1.4580
  192SLPC  H14S22258   3.779   1.306   7.825  0.5699 -0.0366  0.6420
  192SLPC  C21522259   3.796   1.198   8.011  0.0302 -0.6456 -0.0773
  192SLPC  H15R22260   3.751   1.213   8.112  1.9617 -0.6084  0.8227
  192SLPC  H15S22261   3.898   1.232   8.035  0.5136 -1.5395 -0.8133
  192SLPC  C21622262   3.810   1.050   7.972  0.8288  0.7792 -0.5005
  192SLPC  H16R22263   3.832   1.049   7.863 -1.9278  0.3092 -1.1203
  192SLPC  H16S22264   3.718   0.992   7.993 -0.2365  2.1301 -1.2448
  192SLPC  C21722265   3.924   0.978   8.033  1.1820 -0.0594 -0.2111
  192SLPC  H17R22266   4.020   1.025   8.005  1.2957 -0.0594  0.1812
  192SLPC  H17S22267   3.904   1.001   8.140 -0.8288  0.9943 -0.7597
  192SLPC  C21822268   3.926   0.829   8.029 -0.1804  1.0369  0.4851
  192SLPC  H18R22269   3.826   0.788   8.055  0.0077 -1.5282 -2.2086
  192SLPC  H18S22270   4.005   0.791   8.097  0.6784  2.4475  0.2858
  192SLPC  H18T22271   3.961   0.789   7.932  1.6871 -0.4928  1.7194
  192SLPC   C3322272   4.266   1.239   7.070 -0.6636 -0.0457 -0.3387
  192SLPC   H3X22273   4.226   1.190   7.161 -0.1605  0.3538  0.0978
  192SLPC   H3Y22274   4.179   1.295   7.028 -1.2762 -0.7354 -0.0142
  192SLPC   C3422275   4.370   1.347   7.124 -0.2336 -0.0004  0.4453
  192SLPC   H4X22276   4.311   1.423   7.180 -0.2859  0.5357 -0.3299
  192SLPC   H4Y22277   4.422   1.396   7.039  0.2513  1.2492  1.4280
  192SLPC   C3522278   4.479   1.288   7.219  0.1303  0.3339 -0.1478
  192SLPC   H5X22279   4.545   1.214   7.169  3.3304  0.8548  2.9039
  192SLPC   H5Y22280   4.429   1.239   7.305 -0.6886  1.8672  0.3028
  192SLPC   C3622281   4.567   1.394   7.287 -0.0124  0.2721 -0.2918
  192SLPC   H6X22282   4.508   1.472   7.341  0.1520 -0.1064  0.4422
  192SLPC   H6Y22283   4.628   1.443   7.209 -1.9233  1.0372 -1.3797
  192SLPC   C3722284   4.664   1.322   7.389  0.5006 -0.2374 -0.2929
  192SLPC   H7X22285   4.708   1.242   7.326  1.5072  0.2953 -0.2971
  192SLPC   H7Y22286   4.601   1.274   7.466 -1.4642 -0.5756 -2.0283
  192SLPC   C3822287   4.781   1.418   7.415 -0.4916  0.0530  1.7709
  192SLPC   H8X22288   4.737   1.518   7.434 -0.2254  0.2642  1.2734
  192SLPC   H8Y22289   4.846   1.413   7.325 -2.1341 -6.3935  0.3960
  192SLPC   C3922290   4.866   1.369   7.533 -0.5947  0.2761  0.3043
  192SLPC   H9X22291   4.952   1.437   7.550 -0.5480  0.0235  1.1165
  192SLPC   H9Y22292   4.915   1.270   7.523  1.5177  1.3545 -0.5309
  192SLPC  C31022293   4.792   1.368   7.667  0.1815  0.6727  0.1392
  192SLPC  H10X22294   4.703   1.304   7.656  0.2640  0.7089 -0.8786
  192SLPC  H10Y22295   4.755   1.470   7.688  1.3980  0.9351  1.1588
  192SLPC  C31122296   4.874   1.301   7.781  0.2959  1.2601  0.5881
  192SLPC  H11X22297   4.919   1.207   7.741  0.3096  1.2418  0.6450
  192SLPC  H11Y22298   4.795   1.267   7.851 -2.3016  0.6997 -2.3779
  192SLPC  C31222299   4.974   1.392   7.843 -0.6500 -0.7832 -0.4851
  192SLPC  H12X22300   4.930   1.491   7.870  1.7562 -0.1735  1.5798
  192SLPC  H12Y22301   5.053   1.416   7.768 -0.0081 -0.5906  0.2408
  192SLPC  C31322302   5.046   1.332   7.973 -0.2566 -0.1697  0.1460
  192SLPC  H13X22303   5.126   1.269   7.929 -0.2592  1.1524 -1.9286
  192SLPC  H13Y22304   4.969   1.277   8.031  1.3348 -3.8286 -0.9189
  192SLPC  C31422305   5.115   1.445   8.055  0.0055  0.1478  0.1358
  192SLPC  H14X22306   5.163   1.523   7.992 -0.3192 -0.9684 -1.5513
  192SLPC  H14Y22307   5.200   1.397   8.108  1.1603 -1.0529 -2.6053
  192SLPC  C31522308   5.012   1.503   8.152 -0.8565 -0.7221 -0.5370
  192SLPC  H15X22309   4.907   1.474   8.131 -1.2499 -0.1564  0.5660
  192SLPC  H15Y22310   5.027   1.612   8.139  0.6040 -0.9594 -1.0418
  192SLPC  C31622311   5.034   1.448   8.298 -0.1533  0.0717 -0.3685
  192SLPC  H16X22312   5.032   1.337   8.285  2.0427  0.0193 -0.6262
  192SLPC  H16Y22313   4.948   1.485   8.359 -0.2536  1.9284 -1.5591
  192SLPC  C31722314   5.142   1.499   8.380 -0.0350  0.0755  0.4005
  192SLPC  H17X22315   5.107   1.603   8.401  3.0248  1.1146  0.8352
  192SLPC  H17Y22316   5.233   1.508   8.318  0.5597 -0.4381  1.1789
  192SLPC  C31822317   5.173   1.430   8.513  0.1788  0.1365 -0.2544
  192SLPC  H18X22318   5.085   1.383   8.563 -0.3856  1.3466 -0.0719
  192SLPC  H18Y22319   5.204   1.507   8.586  0.7100 -0.8418  0.5754
  192SLPC  H18Z22320   5.259   1.361   8.506 -0.2693 -0.4659  0.1197
  193SOD    SOD22321   6.021   5.265   3.842  0.3119 -0.6028 -0.5940
  194SOD    SOD22322   4.477   0.952   6.061  0.2462 -0.1200  0.1856
  195SOD    SOD22323   4.585   5.454   4.232  0.2820  0.0367 -0.1209
  196SOD    SOD22324   0.215   2.141   3.456 -0.3948 -0.6515  0.1878
  197SOD    SOD22325   2.895   0.282   5.925 -0.0522  0.2107 -0.0436
  198SOD    SOD22326   1.713   5.308  11.488 -0.2377 -0.2406 -0.5774
  199SOD    SOD22327   3.185   0.557   1.323 -0.6461 -0.3882  0.0158
  200SOD    SOD22328   3.181   1.474  13.253  0.2721  0.1330 -0.4870
  201SOD    SOD22329   5.117   5.920   1.277 -0.0405 -0.4068 -0.7542
  202SOD    SOD22330   5.468   1.498  17.219 -0.2957  0.4489 -0.0123
  203SOD    SOD22331   1.673   1.676  12.124  0.4686  0.0384  0.0704
  204SOD    SOD22332   6.452   2.519  13.586 -0.4005  0.0587 -0.2674
  205SOD    SOD22333   0.631   4.566  13.865  0.6553  0.2712 -0.2669
  206SOD    SOD22334   1.530   3.969   6.386 -0.0699  0.0730 -0.2462
  207SOD    SOD22335   3.362   2.831  14.333 -0.9421  0.8478 -0.8189
  208SOD    SOD22336   2.049   2.566  14.066  0.3431 -0.3064  0.5550
  209SOD    SOD22337   4.050   0.640  14.318 -0.0558  0.2286 -0.2652
  210SOD    SOD22338   3.153   4.334   5.047  0.0914 -0.0306  0.2093
  211SOD    SOD22339   2.041   0.453   4.864  0.2510 -0.2453  0.4120
  212SOD    SOD22340   6.041   5.684  12.249 -0.2966  0.0998  0.2796
  213SOD    SOD22341   2.813   4.756  13.070 -0.1763 -0.3712 -0.0694
  214SOD    SOD22342   5.523   4.421   6.346  0.0204 -0.1824 -0.6832
  215SOD    SOD22343   1.162   1.068   0.660  0.0934 -0.6806 -0.2936
  216SOD    SOD22344   0.390   2.355  16.024  0.2393  0.4781  0.3894
  217SOD    SOD22345   0.548   5.417   2.739 -0.5352 -0.2838 -0.1607
  218SOD    SOD22346   2.324   5.801   2.652 -0.3744  0.1154  0.5414
  219SOD    SOD22347   2.001   0.736  11.276  0.0938 -0.4812  0.0811
  220SOD    SOD22348   3.183   2.142  17.235  0.3048 -0.0560  0.1483
  221SOD    SOD22349   0.954   3.441   2.775 -0.0625 -0.7794  0.6599
  222SOD    SOD22350   2.049   1.834  11.309 -0.1221 -0.0195  0.2881
  223SOD    SOD22351   2.082   1.815  13.136 -0.4454  0.3138 -0.0862
  224SOD    SOD22352   3.338   5.637  11.009 -0.2377 -0.3365 -0.0341
  225SOD    SOD22353   2.999   2.286  11.956 -0.0142 -0.0648 -0.2028
  226SOD    SOD22354   4.554   4.736  14.184 -0.3152  0.6520 -0.0256
  227SOD    SOD22355   1.805   2.567  15.952 -0.0582  0.1164 -0.1079
  228SOD    SOD22356   4.455   1.925   3.800 -0.0535 -0.1543  0.2654
  229SOD    SOD22357   0.241   5.316  14.347 -0.4089  0.5020 -0.0208
  230SOD    SOD22358   5.943   0.148  15.267  0.2237 -0.3574  0.0759
  231SOD    SOD22359   1.489   6.014  14.744  0.1612  0.4707 -0.4952
  232SOD    SOD22360   4.365   1.642   4.855 -0.1595 -0.0075 -0.0132
  233SOD    SOD22361   4.145   2.088  13.331  0.3501 -0.3747  0.3651
  234SOD    SOD22362   2.551   0.630   2.975  0.5809  0.1347  0.0285
  235SOD    SOD22363   5.181   6.306   5.871 -0.3898  0.3389  0.2117
  236SOD    SOD22364   5.156   3.593  12.615 -0.3298 -0.0472 -0.5378
  237SOD    SOD22365   5.676   0.508  14.287  0.3141  0.1114  0.2683
  238SOD    SOD22366   3.101   2.555   4.256  0.0969  0.1740  0.0504
  239SOD    SOD22367   0.897   2.052  14.535 -0.4085  0.0604  0.1488
  240SOD    SOD22368   5.572   5.337  14.766  0.3497 -0.0751  0.3231
  241SOD    SOD22369   6.512   3.312   5.983  0.0620  0.0317  0.5259
  242SOD    SOD22370   6.120   0.862  11.067  0.5065 -0.2834  0.2758
  243SOD    SOD22371   3.399   3.404   6.239 -0.7918 -0.1831 -0.4340
  244SOD    SOD22372   5.289   3.349  16.513  0.0065  0.1194  0.1136
  245SOD    SOD22373   3.723   2.234  11.810  0.0192  0.1563 -0.6818
  246SOD    SOD22374   6.331   3.067  11.103  0.0353  0.1544  0.2901
  247SOD    SOD22375   4.470   2.453  15.944  0.1809 -0.0286  0.4297
  248SOD    SOD22376   2.694   4.522  14.190 -0.3558  0.4205  0.4075
  249SOD    SOD22377   1.432   6.540  17.032  0.3748  0.3098 -0.5426
  250SOD    SOD22378   6.249   0.654   0.766  0.2168  0.0807 -0.6130
  251SOD    SOD22379   0.636   1.225   3.584  0.1631 -0.3910 -0.1215
  252SOD    SOD22380   3.764   3.173   1.445  0.2269 -0.1522 -0.3096
  253SOD    SOD22381   3.476   0.389  14.362 -0.5411  0.5015  0.1084
  254SOD    SOD22382   5.444   3.811   4.263  0.5444  0.0485  0.3881
  255SOD    SOD22383   0.439   5.829  10.985 -0.1260  0.3901 -0.3231
  256SOD    SOD22384   2.088   5.468   3.924 -0.7880  0.0508  0.6299
  257SOD    SOD22385   0.736   1.053   4.200 -0.1583  0.0849 -0.5165
  258SOD    SOD22386   6.364   2.566  15.579  0.5923 -0.0811  0.3619
  259SOD    SOD22387   6.472   6.392   4.698 -0.2617 -0.4284  0.2211
  260SOD    SOD22388   0.916   5.301  11.421 -0.1648 -0.1846 -0.5743
  261SOD    SOD22389   5.468   1.975   5.871 -0.1158 -0.2889  0.3302
  262SOD    SOD22390   0.742   3.826  15.000 -0.1043 -0.6944 -0.0621
  263SOD    SOD22391   1.329   5.614  16.856 -0.7448  0.3528  0.1759
  264SOD    SOD22392   5.290   3.298  14.757 -0.4142  0.0661  0.3278
  265SOD    SOD22393   1.963   0.148   5.678  0.0771  0.0543 -0.0209
  266CLA    CLA22394   4.522   1.042   0.822  0.2198  0.1496  0.3033
  267CLA    CLA22395   5.746   5.807  13.257  0.2284  0.1213  0.3396
  268CLA    CLA22396   4.150   0.203  15.320 -0.1934  0.0681  0.4025
  269CLA    CLA22397   6.345   2.662   4.600 -0.0953  0.2963  0.0581
  270CLA    CLA22398   1.042   5.800   2.344 -0.3630  0.0308 -0.3314
  271CLA    CLA22399   1.955   2.629   1.293  0.6003 -0.0460  0.1941
  272CLA    CLA22400   1.644   0.742  16.268  0.2592 -0.1160 -0.3900
  273CLA    CLA22401   5.007   6.393  15.162  0.0639 -0.2693  0.1111
  274CLA    CLA22402   2.291   2.379  12.700  0.5506  0.0946  0.1219
  275CLA    CLA22403   2.992   1.344   2.056  0.2632 -0.5647  0.0782
  276CLA    CLA22404   0.399   0.623   4.833 -0.2939  0.3448  0.1952
  277CLA    CLA22405   2.140   1.945  12.004 -0.3279 -0.1214 -0.0172
  278CLA    CLA22406   5.403   1.374   3.864 -0.5161 -0.2159  0.2719
  279CLA    CLA22407   5.597   2.833  13.824  0.4891  0.4016 -0.3321
  280CLA    CLA22408   2.594   0.861  12.554  0.0129  0.2423  0.0385
  281CLA    CLA22409   3.336   0.603  15.105  0.4483  0.4006  0.3079
  282CLA    CLA22410   3.796   5.840   4.938  0.1796 -0.0443 -0.3032
  283CLA    CLA22411   2.061   1.608  13.320 -0.1664 -0.3780  0.4770
  284CLA    CLA22412   1.123   5.239  13.997  0.2556  0.2856 -0.5007
  285CLA    CLA22413   5.445   3.513   2.670 -0.3718  0.3736  0.0953
  286CLA    CLA22414   4.958   1.626   3.793  0.2404 -0.4428 -0.3094
  287CLA    CLA22415   4.986   0.441   3.835  0.2442 -0.2718  0.1273
  288CLA    CLA22416   1.809   2.601  14.237  0.4661 -0.1844  0.1553
  289CLA    CLA22417   2.714   0.947  16.751  0.0943 -0.0337  0.1181
  290CLA    CLA22418   3.933   5.790  11.909 -0.2592 -0.0844  0.1150
  291CLA    CLA22419   5.455   4.338  12.698 -0.3217  0.3610  0.0375
  292CLA    CLA22420   3.051   1.298   1.061  0.4078 -0.2003 -0.0842
  293CLA    CLA22421   5.330   2.774   0.591 -0.3526 -0.0607  0.4378
  294CLA    CLA22422   3.023   3.766  15.372 -0.1548  0.2018 -0.0377
  295CLA    CLA22423   6.639   0.112  13.766 -0.2244  0.1151  0.3335
  296CLA    CLA22424   2.273   3.994  11.881  0.7807  0.3023  0.3995
  297CLA    CLA22425   6.467   6.286   2.131 -0.5278  0.0760  0.0172
  298CLA    CLA22426   1.601   5.065   2.478  0.1346 -0.1044  0.3651
  299CLA    CLA22427   2.480   2.963  16.796  0.0033  0.5917 -0.2022
  300CLA    CLA22428   2.007   1.738   5.654 -0.3204 -0.1713  0.3447
  301CLA    CLA22429   1.205   0.865   4.234 -0.3098  0.0917 -0.3160
  302CLA    CLA22430   0.131   6.733  12.979  0.2511 -0.2600  0.0359
  303CLA    CLA22431   3.767   3.191  13.610 -0.1042  0.0713  0.0329
  304CLA    CLA22432   6.051   5.543  15.813 -0.3684 -0.1893 -0.2387
  305CLA    CLA22433   4.135   2.294   3.679 -0.0998  0.3859 -0.0896
  306CLA    CLA22434   4.998   0.537  15.794 -0.1051 -0.4038  0.1831
  307CLA    CLA22435   6.473   5.098   3.997 -0.1304  0.3532 -0.3066
  308CLA    CLA22436   6.574   2.900  13.778 -0.2626 -0.3171 -0.1592
  309CLA    CLA22437   4.257   5.958  13.280 -0.0528 -0.1213 -0.2373
  310CLA    CLA22438   5.926   1.586  15.259 -0.2858  0.2053  0.2547
  311CLA    CLA22439   2.709   3.571  13.658 -0.2181  0.1083  0.0708
  312CLA    CLA22440   0.349   5.764  16.368 -0.5650  0.1465 -0.1798
  313CLA    CLA22441   3.947   4.711  14.683  0.0270  0.1336  0.1525
  314CLA    CLA22442   5.094   0.886  16.891  0.3985  0.0619  0.3017
  315CLA    CLA22443   3.365   5.522   3.933 -0.2800 -0.3977 -0.1342
  316CLA    CLA22444   6.044   3.269   3.444  0.0657 -0.1533 -0.3975
  317CLA    CLA22445   1.312   6.282   4.803  0.6391 -0.3112  0.2434
  318CLA    CLA22446   1.537   1.779  14.939 -0.0788 -0.1457  0.4986
  319TIP3   OH222447   5.431   5.598   5.535 -0.0706  0.4062 -0.0843
  319TIP3    H122448   5.427   5.544   5.614 -1.9704  0.9025  0.2316
  319TIP3    H222449   5.475   5.544   5.470  1.5774  0.0068  1.3028
  320TIP3   OH222450   6.654   4.726   1.335  0.4063 -0.1045 -0.6242
  320TIP3    H122451   6.632   4.804   1.385  0.3045 -0.2604 -0.4206
  320TIP3    H222452   6.703   4.671   1.396 -0.0216 -0.4489 -0.5774
  321TIP3   OH222453   1.199   1.607   4.647  0.2072 -0.7215 -0.6712
  321TIP3    H122454   1.244   1.525   4.670  0.4198 -0.3804  0.1730
  321TIP3    H222455   1.116   1.578   4.609  0.0381 -1.3363  0.1305
  322TIP3   OH222456   5.640   4.952   4.713  0.1078  0.2624  0.3777
  322TIP3    H122457   5.602   4.959   4.801  0.9248  0.7890  0.6987
  322TIP3    H222458   5.663   4.859   4.704  1.9527  0.5538  1.5666
  323TIP3   OH222459   4.107   0.235  14.396 -0.4843  0.3141 -0.4246
  323TIP3    H122460   4.103   0.212  14.489  1.1407  0.6637 -0.2339
  323TIP3    H222461   4.018   0.222  14.364 -0.2797 -3.7883  0.2059
  324TIP3   OH222462   5.561   6.571   4.453 -0.1797 -0.6847  0.6621
  324TIP3    H122463   5.618   6.559   4.529 -0.2015 -0.5589  0.6981
  324TIP3    H222464   5.510   6.649   4.474  0.9416  0.3053 -0.1832
  325TIP3   OH222465   0.938   6.487   0.180  0.5511 -0.3738  0.0516
  325TIP3    H122466   0.904   6.547   0.246  0.6028  0.5231 -0.7179
  325TIP3    H222467   0.951   6.405   0.227 -0.4144 -0.0626  0.9090
  326TIP3   OH222468   4.194   0.950  14.509 -0.7000  1.0124  0.5799
  326TIP3    H122469   4.107   0.960  14.548 -0.3560  0.6144  1.4760
  326TIP3    H222470   4.187   0.871  14.456 -0.6074  0.3882  1.4742
  327TIP3   OH222471   0.040   2.968   0.073  0.9133 -0.0406 -0.0013
  327TIP3    H122472   0.104   3.000   0.137  0.0711 -0.1311  0.9168
  327TIP3    H222473   0.036   2.874   0.088 -0.4739  0.1315  0.9799
  328TIP3   OH222474   2.400   3.844   2.410  0.2325  0.0236 -0.2733
  328TIP3    H122475   2.390   3.890   2.494  0.6991  1.2834 -0.8863
  328TIP3    H222476   2.351   3.763   2.422 -0.3556  0.5247  0.9595
  329TIP3   OH222477   4.239   3.207   0.000  0.1743 -0.0071  0.4666
  329TIP3    H122478   4.189   3.162   0.069 -0.6468 -2.0961 -1.3787
  329TIP3    H222479   4.198   3.293  -0.007 -1.7562 -0.8666  0.5348
  330TIP3   OH222480   4.235   3.376  13.396 -0.1900 -0.0615 -0.4576
  330TIP3    H122481   4.194   3.354  13.313  0.2289  0.8255 -0.9059
  330TIP3    H222482   4.164   3.367  13.460 -0.4849 -0.8578 -0.8836
  331TIP3   OH222483   2.600   0.154   5.080  0.4090 -0.0471 -0.3631
  331TIP3    H122484   2.600   0.242   5.042 -0.7289  0.4541  0.7126
  331TIP3    H222485   2.594   0.169   5.175  0.3658 -1.2811 -0.1544
  332TIP3   OH222486   2.433   0.512  11.791  0.6651  0.1578  0.6471
  332TIP3    H122487   2.466   0.435  11.837 -0.0804 -0.3283  0.3755
  332TIP3    H222488   2.347   0.486  11.757  0.3433  1.1410  0.6570
  333TIP3   OH222489   3.408   4.590  15.201 -0.2385  0.8154 -0.0169
  333TIP3    H122490   3.480   4.531  15.224 -0.8655 -0.0462 -0.1974
  333TIP3    H222491   3.413   4.661  15.265  1.4556  1.3712 -0.7099
  334TIP3   OH222492   1.387   4.541  15.189 -0.1318 -0.0945  0.5688
  334TIP3    H122493   1.460   4.481  15.204 -0.0171 -0.3267 -0.7553
  334TIP3    H222494   1.323   4.518  15.256  0.6643 -0.4487  1.2309
  335TIP3   OH222495   3.475   3.319   2.871 -0.0825 -0.2306 -0.3228
  335TIP3    H122496   3.540   3.382   2.840 -1.0829  0.5233 -0.9113
  335TIP3    H222497   3.505   3.235   2.838  0.4270  0.1578 -0.8545
  336TIP3   OH222498   4.305   6.331   3.627 -0.3201 -0.0518  0.4311
  336TIP3    H122499   4.232   6.392   3.614  0.3610  0.6750 -0.1159
  336TIP3    H222500   4.294   6.300   3.717 -0.5599  1.0603  0.8101
  337TIP3   OH222501   1.546   5.568  15.006 -0.0631 -0.4648 -0.1213
  337TIP3    H122502   1.480   5.587  15.073 -0.5116 -0.1677 -0.6379
  337TIP3    H222503   1.616   5.630  15.022  1.5112 -2.6419  2.2907
  338TIP3   OH222504   6.417   5.980   1.170 -0.2491  0.8325 -0.2799
  338TIP3    H122505   6.332   5.990   1.213  0.6316 -0.6824  2.0024
  338TIP3    H222506   6.434   5.886   1.172  2.9274  1.2411  2.5946
  339TIP3   OH222507   4.271   4.969  17.186  0.0391  0.3780  0.1380
  339TIP3    H122508   4.253   5.054  17.227  0.7489  0.0659  1.1364
  339TIP3    H222509   4.325   4.923  17.250 -1.5767 -1.4196  0.3164
  340TIP3   OH222510   1.374   3.089  14.558 -0.4286  0.4976 -0.2532
  340TIP3    H122511   1.394   2.997  14.537 -0.4285  0.5389 -0.4307
  340TIP3    H222512   1.281   3.099  14.535 -0.4269  0.5447 -0.2394
  341TIP3   OH222513   5.356   0.571  13.739 -0.6299 -0.3177 -0.3470
  341TIP3    H122514   5.285   0.617  13.784 -1.0880  0.2282 -1.5920
  341TIP3    H222515   5.317   0.490  13.708 -0.2893 -0.7376  0.3065
  342TIP3   OH222516   2.159   1.721  14.970 -0.0629  0.3222  0.1940
  342TIP3    H122517   2.125   1.808  14.988  1.4545  0.6637  1.6101
  342TIP3    H222518   2.095   1.662  15.010  0.0872  0.8781  1.2865
  343TIP3   OH222519   1.708   2.505  11.423  0.1005 -0.6094 -0.0950
  343TIP3    H122520   1.655   2.539  11.495  1.2475 -1.1852  1.0618
  343TIP3    H222521   1.797   2.507  11.456  0.9395  0.9104 -2.2252
  344TIP3   OH222522   3.780   6.200   4.999 -0.1158  0.2726 -0.1734
  344TIP3    H122523   3.870   6.206   5.030 -0.5294 -2.0909  1.7244
  344TIP3    H222524   3.768   6.107   4.978 -2.0459  0.5814 -0.5974
  345TIP3   OH222525   1.784   6.057  11.766  0.1063  0.7949  0.2499
  345TIP3    H122526   1.695   6.087  11.747 -0.2871  0.0782  0.8455
  345TIP3    H222527   1.840   6.130  11.743 -0.7064  1.5364  0.5561
  346TIP3   OH222528   1.833   0.815   6.429  0.0404 -0.2227  0.0336
  346TIP3    H122529   1.859   0.879   6.363 -0.1833 -0.8212 -0.6448
  346TIP3    H222530   1.893   0.831   6.502  0.6828  0.0507 -0.5397
  347TIP3   OH222531   0.732   3.625  13.422 -0.1786  0.2147 -0.1128
  347TIP3    H122532   0.820   3.623  13.460  0.1824 -0.9517 -0.9357
  347TIP3    H222533   0.717   3.535  13.392 -1.2994  0.5994 -0.7867
  348TIP3   OH222534   1.138   4.966   4.675 -0.1573  0.1660  0.4757
  348TIP3    H122535   1.216   4.965   4.729 -0.8603 -2.0617  1.5918
  348TIP3    H222536   1.066   4.947   4.736 -1.2947  0.1170 -0.8254
  349TIP3   OH222537   0.769   0.633   5.845  0.0834  0.1312  0.3141
  349TIP3    H122538   0.705   0.571   5.812 -0.2909  1.1876 -1.0126
  349TIP3    H222539   0.801   0.593   5.926  1.3036 -2.7591 -1.4429
  350TIP3   OH222540   3.461   5.961   2.244 -0.1039 -0.1761 -0.1068
  350TIP3    H122541   3.419   6.047   2.238 -0.1546 -0.0036  1.9912
  350TIP3    H222542   3.402   5.910   2.301  1.2909 -0.7034  0.9145
  351TIP3   OH222543   0.578   5.194   2.667  0.4873 -0.1935  0.0394
  351TIP3    H122544   0.519   5.158   2.600 -1.0420  1.0174  0.6768
  351TIP3    H222545   0.656   5.139   2.661 -1.3405 -3.0946  0.3401
  352TIP3   OH222546   2.343   5.571   3.320 -0.0338 -0.5747  0.1342
  352TIP3    H122547   2.405   5.608   3.382  0.2971 -0.1959 -0.4166
  352TIP3    H222548   2.397   5.530   3.253 -0.3921 -1.6319  0.4674
  353TIP3   OH222549   1.113   5.114   3.125  0.0869 -0.5393 -0.2796
  353TIP3    H122550   1.064   5.194   3.105 -0.6316 -0.3894  1.8076
  353TIP3    H222551   1.047   5.044   3.122  0.3636 -0.7990 -0.4060
  354TIP3   OH222552   1.812   5.545  13.347  0.5155 -0.2675  0.1123
  354TIP3    H122553   1.859   5.619  13.309 -2.6132  0.1383 -3.5851
  354TIP3    H222554   1.742   5.586  13.399  0.4949 -0.7085  0.4357
  355TIP3   OH222555   6.417   1.221  16.105 -0.1349  0.1840  0.1127
  355TIP3    H122556   6.378   1.299  16.144  1.0202  1.3533 -0.9572
  355TIP3    H222557   6.480   1.255  16.042 -1.4301 -1.5818 -2.3329
  356TIP3   OH222558   1.567   4.426  15.960  0.0923 -0.4855 -0.3003
  356TIP3    H122559   1.591   4.501  15.906 -0.7933 -0.0516 -0.1165
  356TIP3    H222560   1.594   4.349  15.909  0.7704 -0.0470 -0.6050
  357TIP3   OH222561   2.342   1.064   1.130  0.3568  0.2152  0.3869
  357TIP3    H122562   2.265   1.096   1.083  1.3960  2.1419 -0.1403
  357TIP3    H222563   2.381   0.999   1.072  1.0358  1.8012 -1.0590
  358TIP3   OH222564   3.923   0.259  13.227 -0.1441 -0.1037 -0.2006
  358TIP3    H122565   3.970   0.207  13.292 -0.3442  0.4685  0.4039
  358TIP3    H222566   3.935   0.350  13.255 -2.2466  0.0258  0.4027
  359TIP3   OH222567   2.589   5.062   0.868 -0.2908  0.1471  0.1134
  359TIP3    H122568   2.519   5.000   0.885  0.0686 -0.6458 -1.1925
  359TIP3    H222569   2.545   5.147   0.862 -0.9602 -0.1589  0.5972
  360TIP3   OH222570   5.228   3.713  11.168  0.1977  0.4617 -0.6102
  360TIP3    H122571   5.205   3.797  11.128  0.0637  0.1456 -1.2012
  360TIP3    H222572   5.236   3.733  11.262 -0.1777  1.0633 -0.6989
  361TIP3   OH222573   6.304   5.390   6.426 -0.0134  0.0689  0.3425
  361TIP3    H122574   6.378   5.437   6.466 -0.7281  0.8638  0.7600
  361TIP3    H222575   6.339   5.303   6.406  1.2964  0.7149 -0.2968
  362TIP3   OH222576   1.065   4.649   1.400 -0.0986 -0.2286  0.0405
  362TIP3    H122577   1.126   4.583   1.433  1.3954  2.4804  3.3062
  362TIP3    H222578   1.114   4.696   1.332  0.1777 -0.2658  0.2121
  363TIP3   OH222579   0.461   5.661  13.877 -0.2304  0.3680 -0.6362
  363TIP3    H122580   0.442   5.755  13.881 -0.8516  0.2057  0.4540
  363TIP3    H222581   0.379   5.618  13.901  0.5644 -0.4102  0.8390
  364TIP3   OH222582   3.423   4.769  13.568  0.3036  0.1344  0.3841
  364TIP3    H122583   3.482   4.752  13.495  1.5089  1.6018  0.9708
  364TIP3    H222584   3.422   4.686  13.617  0.8773 -0.2970 -0.3127
  365TIP3   OH222585   5.931   3.093  12.554  0.1045 -0.2485  0.5896
  365TIP3    H122586   5.945   3.006  12.515  1.6038 -0.3705  1.3301
  365TIP3    H222587   5.883   3.141  12.488 -0.7558 -1.6378  0.1516
  366TIP3   OH222588   3.466   1.007  16.229  0.0325  0.1354  0.1785
  366TIP3    H122589   3.458   1.010  16.134  3.2215 -0.8166 -0.2403
  366TIP3    H222590   3.524   1.080  16.251 -2.1508  1.5259  1.7062
  367TIP3   OH222591   6.142   5.774  11.052 -0.2836 -0.0192 -0.6929
  367TIP3    H122592   6.112   5.807  11.137  2.3497 -0.1544  0.3660
  367TIP3    H222593   6.176   5.687  11.071  4.5812  1.5844 -0.7532
  368TIP3   OH222594   4.327   0.417   4.708 -0.0274  0.6565  0.2034
  368TIP3    H122595   4.385   0.419   4.632 -2.4270 -0.0632 -1.7879
  368TIP3    H222596   4.305   0.509   4.724  1.4741  0.9283  0.9086
  369TIP3   OH222597   4.341   4.660   3.876  0.4995  0.1090  0.3962
  369TIP3    H122598   4.268   4.678   3.816  0.2927 -1.0672  0.2860
  369TIP3    H222599   4.321   4.711   3.954  0.2465  0.8525 -0.1399
  370TIP3   OH222600   2.506   4.258  12.595  0.5215  0.9005 -0.1885
  370TIP3    H122601   2.559   4.265  12.516 -0.0210  2.6871 -0.4316
  370TIP3    H222602   2.441   4.191  12.574  0.7657  0.9201 -1.0364
  371TIP3   OH222603   6.442   0.499  13.517 -0.2459  0.0458  0.4289
  371TIP3    H122604   6.446   0.585  13.558  0.3729 -0.1553  0.8024
  371TIP3    H222605   6.357   0.497  13.473  0.1370  1.2143 -0.4113
  372TIP3   OH222606   2.537   1.053  11.629 -0.1245 -0.3719 -0.8934
  372TIP3    H122607   2.498   1.004  11.556  0.9564 -3.0463  0.2190
  372TIP3    H222608   2.606   0.996  11.663  1.5333  2.1512  0.2641
  373TIP3   OH222609   4.574   0.158  17.271  0.0039 -0.1295 -0.1038
  373TIP3    H122610   4.580   0.238  17.217 -0.8087  0.0211  0.0137
  373TIP3    H222611   4.486   0.161  17.308 -0.1749 -1.2800 -0.3983
  374TIP3   OH222612   5.455   0.849  12.105 -0.5429 -0.0719  0.4017
  374TIP3    H122613   5.369   0.808  12.097 -0.2503 -0.4983 -0.6804
  374TIP3    H222614   5.463   0.902  12.026  0.1724 -0.0010  0.5192
  375TIP3   OH222615   0.756   3.329   2.821  0.4003  0.0586 -0.7442
  375TIP3    H122616   0.668   3.348   2.788  0.5518  0.4200 -0.9462
  375TIP3    H222617   0.742   3.274   2.898 -0.0126  0.3350 -0.6220
  376TIP3   OH222618   5.610   1.056  15.733  0.4533  0.4661  0.9029
  376TIP3    H122619   5.682   1.120  15.732  0.7884  0.0971 -0.4579
  376TIP3    H222620   5.575   1.058  15.644  0.6179 -1.3961  0.7552
  377TIP3   OH222621   6.607   5.522  14.093  0.1544  0.5629 -0.3222
  377TIP3    H122622   6.660   5.506  14.171  0.4962 -1.1700 -0.8470
  377TIP3    H222623   6.662   5.492  14.020 -0.1362  2.1863 -1.2551
  378TIP3   OH222624   6.199   3.780   5.639 -0.2844  0.5238  0.0225
  378TIP3    H122625   6.178   3.767   5.547  0.6256  1.6128 -0.3680
  378TIP3    H222626   6.116   3.805   5.679 -0.2578  2.6083 -1.0480
  379TIP3   OH222627   3.333   4.694   4.555 -0.1169  0.3102 -0.0238
  379TIP3    H122628   3.302   4.721   4.468 -0.5428  0.5432  0.2014
  379TIP3    H222629   3.254   4.678   4.605  0.0875  1.5685  0.7600
  380TIP3   OH222630   4.690   3.731   0.257  0.1753  0.3050 -0.3277
  380TIP3    H122631   4.640   3.812   0.271 -1.0939 -0.2464 -1.4284
  380TIP3    H222632   4.772   3.761   0.218 -0.8351  1.0185 -2.0340
  381TIP3   OH222633   5.483   5.401  16.348  0.2100  0.4121 -0.1770
  381TIP3    H122634   5.440   5.485  16.365 -0.4203  0.0828 -0.1169
  381TIP3    H222635   5.426   5.336  16.389 -0.9400 -0.3297 -2.7078
  382TIP3   OH222636   6.253   3.632  13.720  0.4488 -0.2819  0.1145
  382TIP3    H122637   6.338   3.592  13.736  0.0054 -1.1999  0.1990
  382TIP3    H222638   6.263   3.676  13.635  1.2701  0.3889  0.5333
  383TIP3   OH222639   4.959   6.512   1.218 -0.0592  0.2117  0.5063
  383TIP3    H122640   4.971   6.432   1.168 -1.3519 -1.5688  2.8471
  383TIP3    H222641   4.882   6.554   1.179 -0.8250 -0.9583  0.6958
  384TIP3   OH222642   5.946   1.647  17.300  0.3737  0.3814 -0.1516
  384TIP3    H122643   5.987   1.569  17.338 -0.7044  0.3626  1.0746
  384TIP3    H222644   5.942   1.630  17.206 -2.1591 -2.2558  0.2893
  385TIP3   OH222645   5.637   3.847   4.812  0.0389  0.3843  0.1302
  385TIP3    H122646   5.662   3.765   4.854  1.3696  1.1776  0.9877
  385TIP3    H222647   5.687   3.847   4.730  1.5038  1.1258  0.9804
  386TIP3   OH222648   3.909   2.999  11.093  0.2573 -0.8153  0.4823
  386TIP3    H122649   3.872   2.925  11.044 -2.1615  0.8292 -0.3401
  386TIP3    H222650   3.850   3.010  11.167 -0.0527  0.8713  0.0340
  387TIP3   OH222651   1.624   4.697  13.959 -0.0562 -0.7952  0.3429
  387TIP3    H122652   1.672   4.753  14.019 -0.4866  0.4812 -0.4747
  387TIP3    H222653   1.533   4.726  13.967 -0.2221 -1.0796 -0.4173
  388TIP3   OH222654   4.775   6.061  11.908 -0.4694 -0.7727 -0.6878
  388TIP3    H122655   4.759   5.986  11.852  0.9315 -2.2193  0.7347
  388TIP3    H222656   4.721   6.046  11.985 -0.6460  0.0198 -0.6463
  389TIP3   OH222657   1.377   4.196  16.482  0.6414 -0.0661  0.3205
  389TIP3    H122658   1.348   4.284  16.458 -0.7619 -0.9805 -1.6078
  389TIP3    H222659   1.449   4.210  16.543  0.5925  2.4127 -0.1012
  390TIP3   OH222660   2.447   3.597  13.283 -0.4853  0.1961  0.1283
  390TIP3    H122661   2.509   3.646  13.228 -1.2978  0.0863 -0.9124
  390TIP3    H222662   2.453   3.639  13.369 -0.2900  1.3459 -0.4301
  391TIP3   OH222663   0.774   2.895   6.123  0.0966  0.1324 -0.3862
  391TIP3    H122664   0.859   2.850   6.122 -0.0428 -0.1562 -2.6390
  391TIP3    H222665   0.720   2.847   6.061 -0.7424  2.1248 -1.2935
  392TIP3   OH222666   1.442   3.304  14.246 -0.1166 -0.2937 -0.6457
  392TIP3    H122667   1.477   3.319  14.334  1.3155 -1.1475 -1.0323
  392TIP3    H222668   1.387   3.380  14.228  2.5211  1.7741 -0.4616
  393TIP3   OH222669   6.078   5.655   2.385 -0.2654 -0.6436 -0.6705
  393TIP3    H122670   5.998   5.708   2.376 -0.0767  0.1363  1.7698
  393TIP3    H222671   6.138   5.692   2.320 -1.4613 -0.5227 -1.7729
  394TIP3   OH222672   0.414   2.822   4.850  0.7393 -0.0301  0.1836
  394TIP3    H122673   0.471   2.898   4.842  1.3181 -0.5024 -0.3647
  394TIP3    H222674   0.441   2.780   4.931  2.7984 -1.4987 -1.1461
  395TIP3   OH222675   1.507   1.850   0.327 -0.4305 -0.6386 -0.1534
  395TIP3    H122676   1.593   1.870   0.290 -0.2596 -1.6471 -0.3375
  395TIP3    H222677   1.523   1.839   0.421 -0.2794 -1.2040 -0.2410
  396TIP3   OH222678   2.358   4.577  11.560 -0.0437  0.2831 -0.3828
  396TIP3    H122679   2.409   4.497  11.556 -1.5338 -0.6676 -1.4575
  396TIP3    H222680   2.420   4.646  11.533  0.9869 -0.6352 -0.4378
  397TIP3   OH222681   2.184   3.970   0.809 -0.6576  0.0431  0.4197
  397TIP3    H122682   2.106   3.995   0.858 -0.5886 -0.1246  0.6154
  397TIP3    H222683   2.153   3.904   0.747 -0.9878  1.0997 -0.5940
  398TIP3   OH222684   5.600   6.118  11.258  0.0532  0.0848 -0.0773
  398TIP3    H122685   5.510   6.152  11.261  0.1743  0.4973 -0.7683
  398TIP3    H222686   5.653   6.195  11.236  0.5842 -0.1487  0.3680
  399TIP3   OH222687   2.392   2.351  15.244 -0.9099 -0.1223 -0.1928
  399TIP3    H122688   2.399   2.429  15.189  0.5369  1.3033  1.8325
  399TIP3    H222689   2.480   2.315  15.247 -1.3985 -1.3893 -0.4321
  400TIP3   OH222690   2.953   4.533  13.060 -0.5150  0.3090  0.1439
  400TIP3    H122691   2.923   4.462  13.003 -2.8511  1.3852 -0.0863
  400TIP3    H222692   2.999   4.489  13.131  2.3719 -1.1135 -2.3143
  401TIP3   OH222693   0.464   2.805  17.216  0.2096  0.0653  0.4045
  401TIP3    H122694   0.435   2.889  17.252 -1.9836 -0.5011  0.0549
  401TIP3    H222695   0.408   2.789  17.141 -0.8784 -2.6660  1.6478
  402TIP3   OH222696   3.894   3.006  13.376  0.0955  0.1771  1.0690
  402TIP3    H122697   3.860   3.064  13.444 -0.5759  0.5855  0.4056
  402TIP3    H222698   3.816   2.969  13.335  0.4722  0.4151  0.1195
  403TIP3   OH222699   1.823   5.758  11.910 -0.0995 -0.2644 -0.1550
  403TIP3    H122700   1.814   5.686  11.847  2.4691  0.0742 -1.0525
  403TIP3    H222701   1.793   5.835  11.863 -1.9945 -0.5536  0.4967
  404TIP3   OH222702   5.955   1.155   1.088  0.0300 -0.9051 -0.4668
  404TIP3    H122703   5.959   1.215   1.013 -1.4914 -0.1828 -0.0156
  404TIP3    H222704   5.889   1.193   1.145  1.5867 -1.1179  1.5719
  405TIP3   OH222705   4.096   4.156  16.023 -0.1834 -0.0522  0.4021
  405TIP3    H122706   4.148   4.181  15.947  0.8440 -1.3406  0.6422
  405TIP3    H222707   4.124   4.215  16.093  1.8906 -1.4526  0.8480
  406TIP3   OH222708   2.832   6.186   0.810 -0.4419 -0.7126  0.1038
  406TIP3    H122709   2.779   6.239   0.869 -1.9305 -1.3157 -0.6174
  406TIP3    H222710   2.831   6.234   0.727  2.0849  0.4072  0.6261
  407TIP3   OH222711   0.452   1.218  11.469  0.1059 -0.1059  1.0110
  407TIP3    H122712   0.483   1.280  11.404  0.3551  1.2789  2.3852
  407TIP3    H222713   0.486   1.133  11.441  0.2489  0.4602 -0.5884
  408TIP3   OH222714   1.421   1.006   4.433  0.3158  0.3650  0.6261
  408TIP3    H122715   1.442   1.082   4.380 -1.4517  0.6701  0.2929
  408TIP3    H222716   1.356   0.957   4.382 -0.5070  0.0162  1.9350
  409TIP3   OH222717   3.382   2.382  11.572  0.7850 -0.3096  0.2689
  409TIP3    H122718   3.373   2.475  11.593 -1.1355 -0.1290 -1.0857
  409TIP3    H222719   3.450   2.379  11.504  1.1494  0.0408  0.6124
  410TIP3   OH222720   1.367   4.030   4.407  0.7812 -0.1957 -0.3324
  410TIP3    H122721   1.453   3.996   4.386  2.2013  1.0971  2.7710
  410TIP3    H222722   1.384   4.114   4.451 -2.1073  0.5811 -0.4734
  411TIP3   OH222723   4.379   3.549   2.643 -0.0639  0.2342  0.3732
  411TIP3    H122724   4.331   3.627   2.614 -0.7284  0.4570  1.9875
  411TIP3    H222725   4.377   3.553   2.739  2.1752 -0.3814  0.5054
  412TIP3   OH222726   0.865   5.748  11.129 -0.7215  0.3920  0.5065
  412TIP3    H122727   0.899   5.724  11.043  0.0799 -0.3880  1.0278
  412TIP3    H222728   0.771   5.762  11.114 -0.2582  2.4850 -0.9356
  413TIP3   OH222729   5.417   3.666   3.303 -0.1813 -0.6408 -0.0998
  413TIP3    H122730   5.480   3.708   3.361  1.6239 -3.1506 -0.0369
  413TIP3    H222731   5.429   3.708   3.219  0.9514 -0.4505  0.1456
  414TIP3   OH222732   4.288   5.697   0.375 -0.6181 -0.1309  0.5560
  414TIP3    H122733   4.229   5.725   0.444 -2.0088  0.8605 -0.9471
  414TIP3    H222734   4.307   5.605   0.395  0.4605  0.5680  3.1670
  415TIP3   OH222735   2.497   4.399  16.068  0.4719 -0.3041  0.1735
  415TIP3    H122736   2.425   4.439  16.020 -1.8954 -3.5756  0.6705
  415TIP3    H222737   2.544   4.347  16.002  0.1961 -0.9311  0.4599
  416TIP3   OH222738   6.679   5.441   2.948 -0.1660  0.0874  0.4292
  416TIP3    H122739   6.696   5.459   2.856 -2.2978  1.2644  0.2004
  416TIP3    H222740   6.763   5.412   2.983  0.7467 -0.1742 -1.8158
  417TIP3   OH222741   3.676   2.402   6.711 -0.5149 -0.3613  0.2984
  417TIP3    H122742   3.719   2.474   6.758 -0.2776  0.1426 -0.6707
  417TIP3    H222743   3.740   2.375   6.645 -1.8774  0.7955 -1.5793
  418TIP3   OH222744   1.691   0.323  13.477  0.1081 -0.0551 -0.2882
  418TIP3    H122745   1.672   0.230  13.490 -0.5595  0.1025 -0.1003
  418TIP3    H222746   1.607   0.366  13.490  0.3122  0.5287 -0.8876
  419TIP3   OH222747   6.069   6.788  14.397 -0.2889 -0.0214 -0.0071
  419TIP3    H122748   6.052   6.700  14.432  0.3932 -0.8136 -1.5706
  419TIP3    H222749   6.127   6.773  14.323  0.2785  1.8221  0.0262
  420TIP3   OH222750   3.613   0.137   5.322 -0.0549 -0.0322 -0.0767
  420TIP3    H122751   3.548   0.076   5.355  0.9424 -0.3689  1.3398
  420TIP3    H222752   3.657   0.090   5.251 -0.2682 -0.4000  0.0349
  421TIP3   OH222753   2.026   0.079   2.157 -0.3015 -0.2909 -0.2229
  421TIP3    H122754   2.092   0.010   2.160  0.0408  0.0563  0.2528
  421TIP3    H222755   1.963   0.056   2.225  0.2243  0.2709  0.4700
  422TIP3   OH222756   2.068   6.514   5.353 -0.3973 -0.0915  0.7530
  422TIP3    H122757   2.089   6.428   5.317  0.3955  0.3338  0.1637
  422TIP3    H222758   1.983   6.502   5.396 -1.8989 -0.4156 -2.0884
  423TIP3   OH222759   3.301   5.133  13.797 -0.0738 -0.4118 -0.2957
  423TIP3    H122760   3.366   5.204  13.799  0.3225 -0.7722 -0.4119
  423TIP3    H222761   3.225   5.172  13.754  0.2281 -0.1285 -0.5767
  424TIP3   OH222762   3.393   3.676   5.477 -0.0997  0.7109  0.0571
  424TIP3    H122763   3.414   3.746   5.539  2.1220 -0.5979  0.8805
  424TIP3    H222764   3.396   3.596   5.529 -1.1291 -0.1593 -1.1644
  425TIP3   OH222765   4.960   6.782   1.813 -0.2737 -0.9004 -0.1771
  425TIP3    H122766   5.041   6.740   1.784 -0.5299 -0.5491 -1.4503
  425TIP3    H222767   4.920   6.815   1.733  0.4369  2.7654  0.7739
  426TIP3   OH222768   0.988   0.756  14.906 -0.0695  0.3072  0.5833
  426TIP3    H122769   1.044   0.680  14.894 -1.4842 -0.8482  0.8999
  426TIP3    H222770   1.036   0.812  14.967  0.2456 -1.1953  1.7799
  427TIP3   OH222771   0.222   0.151   6.342 -0.0517 -0.1967  0.0167
  427TIP3    H122772   0.232   0.145   6.247 -1.6504 -2.0079 -0.0917
  427TIP3    H222773   0.229   0.245   6.360  1.4965  0.0837 -1.6946
  428TIP3   OH222774   1.167   2.613  12.801  0.5395  0.4390  0.0749
  428TIP3    H122775   1.119   2.691  12.827  0.1077 -0.3449  1.7209
  428TIP3    H222776   1.233   2.602  12.869  0.6420 -0.5947 -0.1809
  429TIP3   OH222777   0.537   5.427  11.884  0.3901  0.1172 -0.1769
  429TIP3    H122778   0.484   5.502  11.858 -3.2526 -1.9924  0.3499
  429TIP3    H222779   0.599   5.461  11.948  0.1525  2.9330 -1.3384
  430TIP3   OH222780   0.323   5.465  14.203  0.2715  0.6696  0.1417
  430TIP3    H122781   0.404   5.515  14.212  0.4043  0.6494 -0.8516
  430TIP3    H222782   0.274   5.510  14.133 -1.3468  1.6766  1.8251
  431TIP3   OH222783   4.742   5.468  10.936 -0.0179 -0.2623  0.8401
  431TIP3    H122784   4.663   5.442  10.888 -0.5327 -0.0861  1.5743
  431TIP3    H222785   4.756   5.396  10.999  1.2019 -0.9619 -0.1863
  432TIP3   OH222786   5.307   5.808  12.563 -0.0317 -0.6562  0.6112
  432TIP3    H122787   5.373   5.876  12.575 -0.7382  0.2960 -0.6385
  432TIP3    H222788   5.282   5.783  12.652  0.9932 -0.0366  1.0911
  433TIP3   OH222789   6.435   0.235   0.250 -0.9876 -0.4767 -0.0371
  433TIP3    H122790   6.431   0.189   0.167 -1.4187 -0.4811 -0.0146
  433TIP3    H222791   6.443   0.327   0.227 -0.8103 -0.5016 -0.0801
  434TIP3   OH222792   4.745   3.683  16.434  0.1164  0.0459 -0.1165
  434TIP3    H122793   4.651   3.677  16.450 -0.1449 -1.4202 -1.9280
  434TIP3    H222794   4.784   3.635  16.508 -0.5206  0.7076  0.6776
  435TIP3   OH222795   1.283   2.977  13.535  0.0910  0.0171 -0.1069
  435TIP3    H122796   1.370   3.015  13.519  0.4243  0.1704  1.8390
  435TIP3    H222797   1.260   3.006  13.623 -3.1587  2.2915 -1.4680
  436TIP3   OH222798   5.650   4.235  15.653  0.7220 -0.0566 -0.1946
  436TIP3    H122799   5.709   4.261  15.723  0.6330 -0.9100  0.2046
  436TIP3    H222800   5.707   4.195  15.587  1.1627  2.8771 -1.7644
  437TIP3   OH222801   3.035   3.078   1.663  0.2379  0.7099 -0.4957
  437TIP3    H122802   3.036   3.172   1.684  2.3084  0.8969 -1.2306
  437TIP3    H222803   3.104   3.041   1.717 -0.8065 -0.5060  0.0572
  438TIP3   OH222804   2.031   3.675  15.156 -0.1942 -0.1561 -0.4209
  438TIP3    H122805   2.084   3.751  15.134  2.0182 -2.0133 -2.0840
  438TIP3    H222806   1.941   3.707  15.157  0.7346  2.7126  0.3965
  439TIP3   OH222807   3.318   2.636   4.307 -0.2499 -0.5331  0.0070
  439TIP3    H122808   3.406   2.626   4.271  0.1666  0.0955  0.8335
  439TIP3    H222809   3.328   2.620   4.401 -1.1115 -0.9788  0.0304
  440TIP3   OH222810   3.313   0.826  12.144 -0.2934 -0.0745  0.3375
  440TIP3    H122811   3.288   0.747  12.096 -1.8102 -0.0735  1.0641
  440TIP3    H222812   3.408   0.829  12.139 -0.0557 -2.7778  1.5418
  441TIP3   OH222813   3.401   5.202  15.469  0.0199  0.0688 -0.0753
  441TIP3    H122814   3.488   5.169  15.491 -0.8819 -1.0642  1.9926
  441TIP3    H222815   3.399   5.289  15.509 -0.2210 -0.4067  0.9687
  442TIP3   OH222816   2.316   2.708  13.091 -0.4595 -0.0541  0.5499
  442TIP3    H122817   2.326   2.624  13.047 -1.4373  0.9457 -1.7608
  442TIP3    H222818   2.248   2.753  13.041 -0.4349  1.8666  2.1223
  443TIP3   OH222819   1.916   4.764  16.142 -0.0184  0.2394  0.7085
  443TIP3    H122820   1.923   4.782  16.236  2.1290 -0.3192  0.7082
  443TIP3    H222821   1.995   4.803  16.105  0.1264 -1.2116 -0.5842
  444TIP3   OH222822   3.317   5.229   1.757  0.5142  1.0307 -0.0967
  444TIP3    H122823   3.411   5.216   1.749  0.2887 -0.3599 -0.7261
  444TIP3    H222824   3.295   5.194   1.844  0.5518  1.1972 -0.0199
  445TIP3   OH222825   1.553   6.033  15.491  0.1427 -1.1669  0.1832
  445TIP3    H122826   1.526   6.105  15.548 -0.0370 -0.8531 -0.2878
  445TIP3    H222827   1.472   6.007  15.446  0.1078 -1.9885  0.7031
  446TIP3   OH222828   4.635   6.732   3.516 -0.5465  0.1595 -0.3155
  446TIP3    H122829   4.711   6.783   3.488 -0.7735  0.6153 -0.1069
  446TIP3    H222830   4.625   6.665   3.448 -1.0268  1.1847 -1.2920
  447TIP3   OH222831   0.873   2.786  11.146  0.6080  0.2237 -0.2487
  447TIP3    H122832   0.884   2.744  11.232  0.7377  0.3246 -0.2147
  447TIP3    H222833   0.779   2.780  11.128  0.7053 -0.6442 -0.5311
  448TIP3   OH222834   1.558   2.483   4.460 -0.0955 -0.1245  0.0162
  448TIP3    H122835   1.611   2.448   4.531  0.2395  0.3637  0.0106
  448TIP3    H222836   1.611   2.553   4.423 -0.5506  0.0600 -0.2917
  449TIP3   OH222837   5.433   3.098   6.618  0.2683  0.1368 -0.2593
  449TIP3    H122838   5.379   3.048   6.680 -0.6222  0.3572 -0.8313
  449TIP3    H222839   5.372   3.124   6.549  1.3372 -0.5288 -1.5128
  450TIP3   OH222840   5.607   1.030   5.443  0.1194 -0.0213 -0.2743
  450TIP3    H122841   5.632   1.059   5.355  2.4904  0.3276  0.4244
  450TIP3    H222842   5.685   0.984   5.475 -0.9125 -0.6650  1.4194
  451TIP3   OH222843   6.412   5.590   2.022 -0.0848 -0.2345 -0.1154
  451TIP3    H122844   6.476   5.523   2.047 -0.7087 -0.8351 -0.1052
  451TIP3    H222845   6.353   5.596   2.097  0.5942  1.1226  0.3412
  452TIP3   OH222846   6.586   0.901  11.306  0.0669 -0.4215  0.2351
  452TIP3    H122847   6.586   0.843  11.229  0.4497  0.4031 -0.4082
  452TIP3    H222848   6.522   0.862  11.365  1.8170 -2.7409  0.7880
  453TIP3   OH222849   2.381   2.130   6.195  0.4280  0.2802  0.5326
  453TIP3    H122850   2.306   2.091   6.150  0.4680 -0.6768  1.2807
  453TIP3    H222851   2.431   2.056   6.229  1.9363  0.8724 -0.2609
  454TIP3   OH222852   6.583   6.609   2.059 -0.2406 -0.5874  0.0729
  454TIP3    H122853   6.558   6.517   2.066  0.4130 -0.8630 -1.0122
  454TIP3    H222854   6.525   6.654   2.121 -3.7254 -1.1015 -2.5055
  455TIP3   OH222855   1.320   5.468  16.108  0.4820 -0.3960  0.3206
  455TIP3    H122856   1.254   5.434  16.169  0.3166 -1.1245 -0.2502
  455TIP3    H222857   1.390   5.403  16.110  1.6690  0.8576  1.6687
  456TIP3   OH222858   5.890   4.368  17.154 -0.1945  0.0330 -0.4156
  456TIP3    H122859   5.868   4.275  17.164  0.6961  0.0503  2.5468
  456TIP3    H222860   5.983   4.373  17.174 -0.2046  1.5683 -0.6641
  457TIP3   OH222861   3.945   3.166  11.449 -0.5495 -0.1586 -0.3494
  457TIP3    H122862   4.005   3.144  11.378 -1.0004  0.1598 -0.8301
  457TIP3    H222863   3.861   3.179  11.407 -0.6110  1.0461  0.1103
  458TIP3   OH222864   6.131   4.060  17.212 -1.0101  0.3682 -0.2913
  458TIP3    H122865   6.124   4.010  17.130 -0.8634  2.3786 -1.6077
  458TIP3    H222866   6.118   3.995  17.281 -1.3279 -1.3766 -1.9042
  459TIP3   OH222867   2.317   4.912   5.022 -0.1929  0.2781  0.2720
  459TIP3    H122868   2.312   4.985   4.961  0.3440 -0.5229 -0.7709
  459TIP3    H222869   2.255   4.934   5.092 -0.4054  1.4787 -0.2769
  460TIP3   OH222870   1.560   4.084  12.227 -0.0033 -0.5442  0.3665
  460TIP3    H122871   1.479   4.070  12.274  0.4614 -0.9453  1.0539
  460TIP3    H222872   1.533   4.107  12.138 -0.8693 -0.3051  0.6891
  461TIP3   OH222873   1.230   5.233  15.213 -0.2208 -0.3150 -1.0617
  461TIP3    H122874   1.183   5.215  15.294  0.4366  4.0978  0.6122
  461TIP3    H222875   1.171   5.290  15.163  0.5475 -0.5818 -2.3266
  462TIP3   OH222876   1.375   4.130  15.782 -0.1645 -0.0495 -0.1619
  462TIP3    H122877   1.410   4.120  15.870  0.0285 -0.0817 -0.2407
  462TIP3    H222878   1.280   4.130  15.793 -0.1815  2.2818  0.3320
  463TIP3   OH222879   2.170   0.964   3.333  0.3741 -0.0368 -0.3071
  463TIP3    H122880   2.185   1.021   3.258  0.7911 -0.9536 -0.9367
  463TIP3    H222881   2.244   0.982   3.392  0.8267 -0.3535 -0.7732
  464TIP3   OH222882   6.551   4.656  17.151 -0.4352 -0.3001  0.2110
  464TIP3    H122883   6.559   4.563  17.132  1.7000  0.0330 -0.7518
  464TIP3    H222884   6.615   4.672  17.220  1.1425  0.8947 -1.4536
  465TIP3   OH222885   3.752   3.564  15.191  0.2484  0.1830  0.2633
  465TIP3    H122886   3.681   3.503  15.212  0.9849 -0.3911  1.2006
  465TIP3    H222887   3.723   3.647  15.227  0.1056 -0.0762  0.7581
  466TIP3   OH222888   3.337   1.516  12.747 -0.5823 -0.0314  0.5462
  466TIP3    H122889   3.419   1.551  12.712  0.4424 -0.6339  2.2344
  466TIP3    H222890   3.269   1.555  12.692  0.5813  3.1805  1.1696
  467TIP3   OH222891   1.991   1.679  12.529 -0.2736  0.7189  0.0546
  467TIP3    H122892   1.994   1.764  12.572 -0.1753  0.2964  0.9089
  467TIP3    H222893   2.037   1.692  12.446  0.7833  1.2208  0.6966
  468TIP3   OH222894   5.140   1.344  15.053 -0.5315  0.1051 -0.1249
  468TIP3    H122895   5.153   1.331  15.147 -1.2498  0.2025 -0.0005
  468TIP3    H222896   5.118   1.437  15.045  0.1346  0.2342 -0.4644
  469TIP3   OH222897   1.349   3.580   4.714  0.6672  0.4195 -0.2378
  469TIP3    H122898   1.319   3.671   4.715  1.5693  0.7219  0.5321
  469TIP3    H222899   1.403   3.572   4.793  0.7567 -0.7343 -0.4007
  470TIP3   OH222900   2.604   3.646   6.135  0.1292 -0.1336  0.1075
  470TIP3    H122901   2.608   3.739   6.113 -0.0356  0.0714  0.9317
  470TIP3    H222902   2.643   3.640   6.222 -1.4051 -0.5931  0.7855
  471TIP3   OH222903   5.342   4.239   4.416  0.2647 -0.1805  0.2856
  471TIP3    H122904   5.332   4.145   4.397  1.3956 -0.4980  1.1748
  471TIP3    H222905   5.255   4.275   4.402  0.1145 -1.1114 -1.4122
  472TIP3   OH222906   2.240   2.743   0.901 -0.0458  0.1304  0.2617
  472TIP3    H122907   2.252   2.691   0.980 -0.0238 -1.3099 -0.6464
  472TIP3    H222908   2.151   2.777   0.908 -0.8758 -1.8206 -0.0817
  473TIP3   OH222909   6.237   0.784  14.661  0.1882 -0.2142  0.0926
  473TIP3    H122910   6.294   0.725  14.711  0.4359  0.7015  0.9302
  473TIP3    H222911   6.282   0.869  14.666 -0.2954  0.1052 -0.8608
  474TIP3   OH222912   0.732   6.313  12.026 -0.0337  0.5780 -1.0158
  474TIP3    H122913   0.714   6.313  12.120  1.3039 -0.5508 -0.7231
  474TIP3    H222914   0.803   6.250  12.015  0.3636  1.2601 -2.6935
  475TIP3   OH222915   1.631   2.334   2.143 -0.2410 -0.3059  0.7564
  475TIP3    H122916   1.662   2.252   2.181 -0.9024 -0.9776 -0.1263
  475TIP3    H222917   1.700   2.397   2.163  0.4503 -1.1550  1.1097
  476TIP3   OH222918   0.477   5.309  14.399  0.1328 -0.1587  0.0179
  476TIP3    H122919   0.530   5.236  14.432  0.2519  0.3228  0.9456
  476TIP3    H222920   0.525   5.387  14.427  0.1458  0.2857 -1.1972
  477TIP3   OH222921   6.460   1.679   2.854 -0.0555  0.1155  0.4825
  477TIP3    H122922   6.408   1.758   2.838  1.3242  1.0525  0.5162
  477TIP3    H222923   6.509   1.665   2.773 -0.3132 -0.7357  0.4645
  478TIP3   OH222924   0.155   5.716   0.792 -0.3071  0.1075  0.4027
  478TIP3    H122925   0.092   5.728   0.863 -1.2800  1.5696 -0.6302
  478TIP3    H222926   0.141   5.792   0.735  1.8372  0.0447 -0.3105
  479TIP3   OH222927   1.918   1.960  16.062 -0.4404  0.8659  0.5222
  479TIP3    H122928   1.895   1.875  16.024  2.5899 -0.0437  0.4121
  479TIP3    H222929   1.900   2.023  15.992 -2.4929  0.3126  0.5148
  480TIP3   OH222930   5.956   6.752  15.959  0.0513  0.1197 -0.1787
  480TIP3    H122931   5.958   6.657  15.963 -1.1477  0.0560 -0.8333
  480TIP3    H222932   5.907   6.773  15.880 -0.5975  1.2671  0.4865
  481TIP3   OH222933   0.219   0.176   1.632 -0.4009 -0.2312 -0.0193
  481TIP3    H122934   0.249   0.177   1.722 -2.3657 -0.1063  0.6848
  481TIP3    H222935   0.297   0.153   1.581  1.0095  0.8118  1.5638
  482TIP3   OH222936   0.978   0.179  12.946  1.1219  0.9343 -0.1038
  482TIP3    H122937   0.895   0.178  12.994  0.4907  0.7904 -1.1681
  482TIP3    H222938   1.035   0.235  12.999 -0.0137  1.9829  0.0688
  483TIP3   OH222939   1.884   3.040   5.438 -0.0717 -0.0151 -0.4004
  483TIP3    H122940   1.849   2.968   5.490 -0.9181 -0.8081 -1.9819
  483TIP3    H222941   1.874   3.117   5.493  0.5385 -1.0324  1.2115
  484TIP3   OH222942   2.681   0.365   1.763 -0.5441 -0.4829  0.1501
  484TIP3    H122943   2.718   0.285   1.800  2.3755  1.7107  2.5064
  484TIP3    H222944   2.604   0.383   1.815 -2.0443 -2.2968 -1.2682
  485TIP3   OH222945   0.241   1.087  13.370  0.1520  0.0356  0.4874
  485TIP3    H122946   0.243   1.049  13.282  0.6288 -1.0253  0.9408
  485TIP3    H222947   0.287   1.170  13.361  1.4435 -0.7032  0.0196
  486TIP3   OH222948   0.843   1.504   3.460  0.0678 -0.3991  0.3313
  486TIP3    H122949   0.891   1.587   3.463  1.1518 -0.9966  0.1394
  486TIP3    H222950   0.800   1.498   3.545 -0.1310  0.4202  0.2952
  487TIP3   OH222951   2.590   2.139  10.909 -0.1037  0.3955 -0.0398
  487TIP3    H122952   2.680   2.165  10.892  0.2875 -0.4510  0.6610
  487TIP3    H222953   2.566   2.084  10.833 -0.1966  0.9949 -0.4510
  488TIP3   OH222954   6.616   1.370  16.386  0.1645  0.4352 -0.2199
  488TIP3    H122955   6.606   1.281  16.418  1.2191  0.5413  0.4732
  488TIP3    H222956   6.711   1.385  16.388  0.0820  1.1986 -1.3571
  489TIP3   OH222957   5.799   0.789   6.465 -0.5336  0.1828  0.3537
  489TIP3    H122958   5.890   0.778   6.438 -0.3228 -0.3364  1.2359
  489TIP3    H222959   5.802   0.858   6.531 -0.1104 -2.5014  3.4166
  490TIP3   OH222960   6.758   6.613   0.048  0.4035 -0.3455  0.2119
  490TIP3    H122961   6.671   6.585   0.074  0.3477 -0.4625 -0.0866
  490TIP3    H222962   6.809   6.532   0.046  0.0268 -0.5937 -1.4998
  491TIP3   OH222963   4.989   6.472   0.169 -0.9989 -0.5497  0.2839
  491TIP3    H122964   4.910   6.448   0.217 -1.4168  0.0659 -0.0845
  491TIP3    H222965   4.957   6.514   0.089 -0.3006 -0.3168  0.1206
  492TIP3   OH222966   6.247   3.439   3.064  0.0417  0.0723 -0.2840
  492TIP3    H122967   6.228   3.351   3.096 -0.8422  0.6136  0.7544
  492TIP3    H222968   6.176   3.458   3.003  0.7249 -0.2567 -1.2054
  493TIP3   OH222969   6.455   0.360  15.073  0.0044  0.1385 -0.2269
  493TIP3    H122970   6.432   0.268  15.086  1.4131 -0.6593 -2.6550
  493TIP3    H222971   6.503   0.384  15.153 -0.6993 -1.0880  0.6077
  494TIP3   OH222972   4.511   2.186   5.203  0.2368 -0.2481  0.1930
  494TIP3    H122973   4.506   2.280   5.221  1.1700 -0.3993  1.3617
  494TIP3    H222974   4.439   2.148   5.253  0.7846 -0.3038  0.9577
  495TIP3   OH222975   0.921   5.536   5.896  0.1593  0.1534 -0.8154
  495TIP3    H122976   0.924   5.446   5.926 -0.4324 -0.4998 -2.5722
  495TIP3    H222977   0.858   5.535   5.824 -2.0691  2.5412  0.9113
  496TIP3   OH222978   6.059   1.312   4.048  0.8703 -0.0165 -0.3279
  496TIP3    H122979   5.978   1.314   4.099  1.3967  1.0256  0.5038
  496TIP3    H222980   6.117   1.255   4.097  1.5851  1.4612  0.6188
  497TIP3   OH222981   3.918   6.076   0.118 -0.3065 -0.0796  1.1246
  497TIP3    H122982   3.903   6.168   0.095  0.5053 -0.3127 -0.5003
  497TIP3    H222983   3.842   6.031   0.083 -0.1245 -0.1671  0.8385
  498TIP3   OH222984   1.661   3.636   3.354 -0.1899 -0.3941 -0.0327
  498TIP3    H122985   1.725   3.579   3.311 -1.0811  0.0481 -2.0658
  498TIP3    H222986   1.586   3.579   3.370 -0.2657 -0.3047 -0.0685
  499TIP3   OH222987   0.949   5.903   4.481 -0.2329  0.2608  0.3904
  499TIP3    H122988   0.947   5.963   4.406  2.2638  0.0914  0.0825
  499TIP3    H222989   0.929   5.958   4.557 -1.3144  0.7390 -0.2228
  500TIP3   OH222990   0.624   2.207   6.617 -0.0056 -0.3540 -0.2592
  500TIP3    H122991   0.538   2.249   6.622  0.5224  0.6341  1.0833
  500TIP3    H222992   0.665   2.247   6.541 -0.9361 -1.2970 -1.3037
  501TIP3   OH222993   6.398   4.469   5.727 -0.2440 -0.3790 -0.4789
  501TIP3    H122994   6.313   4.448   5.766  0.1657  0.3118  0.8490
  501TIP3    H222995   6.450   4.390   5.738  0.0904  0.0267  1.0673
  502TIP3   OH222996   1.748   2.970  11.582 -0.0413  0.3505  0.1281
  502TIP3    H122997   1.719   2.879  11.578  0.6147  0.1707 -0.7089
  502TIP3    H222998   1.680   3.020  11.537  1.0297 -0.1126 -2.1651
  503TIP3   OH222999   4.790   0.581  11.594  0.2816 -0.4301  0.3756
  503TIP3    H123000   4.867   0.535  11.560  2.2655  2.0897  1.0644
  503TIP3    H223001   4.799   0.670  11.560  0.3546  1.2326  4.1924
  504TIP3   OH223002   0.335   0.477  15.612  0.4070 -0.7342  0.4781
  504TIP3    H123003   0.244   0.476  15.641  0.4306  0.5559  0.6146
  504TIP3    H223004   0.329   0.493  15.518  0.5055 -0.3047  0.5452
  505TIP3   OH223005   3.008   0.709  12.537  0.2882 -0.1530 -0.0329
  505TIP3    H123006   3.044   0.641  12.480 -0.6044 -0.8249  0.1706
  505TIP3    H223007   2.930   0.740  12.491  0.2214  0.1337  0.2709
  506TIP3   OH223008   1.827   5.572   2.369  0.4591 -0.1448 -0.1106
  506TIP3    H123009   1.737   5.565   2.336 -0.6116  1.0203  2.3081
  506TIP3    H223010   1.836   5.499   2.429  0.4176  0.7962  1.0826
  507TIP3   OH223011   4.433   3.281  12.484  0.8963  0.0184  0.0701
  507TIP3    H123012   4.339   3.264  12.487  1.1646 -1.7516  0.0533
  507TIP3    H223013   4.443   3.372  12.511 -0.8566  0.4211 -0.5168
  508TIP3   OH223014   4.284   1.404  15.349  0.0385  0.3919  0.2701
  508TIP3    H123015   4.345   1.393  15.276 -1.6037  1.0599 -1.2811
  508TIP3    H223016   4.334   1.379  15.426  1.8146 -0.4634 -1.0869
  509TIP3   OH223017   6.067   5.397   5.156 -0.4419 -0.0505  0.1286
  509TIP3    H123018   6.147   5.430   5.114 -0.5840 -0.3807 -0.4075
  509TIP3    H223019   6.096   5.368   5.243  0.4737 -2.1935 -0.8245
  510TIP3   OH223020   0.042   0.190  11.453  0.2301  0.0315  0.1713
  510TIP3    H123021  -0.043   0.160  11.485  0.1036 -1.5512 -1.4562
  510TIP3    H223022   0.106   0.136  11.500  0.2207  0.0350  0.1877
  511TIP3   OH223023   3.931   4.141   3.178  0.2463  0.5123 -0.6283
  511TIP3    H123024   3.927   4.109   3.268 -0.3193  2.5821  0.1643
  511TIP3    H223025   4.015   4.185   3.172 -0.9293  3.0691 -0.0147
  512TIP3   OH223026   0.430   0.763  13.720  0.0347  0.3195 -0.0695
  512TIP3    H123027   0.508   0.815  13.739  0.0089  0.1147  0.6087
  512TIP3    H223028   0.375   0.822  13.667  0.1314  0.8829  0.4423
  513TIP3   OH223029   1.999   5.761  15.147  0.0239 -0.1559 -1.3144
  513TIP3    H123030   2.014   5.666  15.141  1.5330 -0.1217  0.9223
  513TIP3    H223031   2.075   5.800  15.103 -0.1968  0.0399 -1.5263
  514TIP3   OH223032   6.054   3.316  12.096  0.1122 -0.0604 -0.2525
  514TIP3    H123033   6.081   3.408  12.087 -1.3329  0.3984 -0.1819
  514TIP3    H223034   6.136   3.267  12.096  0.8787  1.1524 -1.2186
  515TIP3   OH223035   0.973   3.945  11.464  0.0021  0.6730  0.2587
  515TIP3    H123036   0.927   4.029  11.455 -0.4993  0.3143 -0.7341
  515TIP3    H223037   0.954   3.899  11.382 -1.2434 -1.1604  1.5174
  516TIP3   OH223038   3.940   5.123  14.204 -0.0592  0.4318 -0.1516
  516TIP3    H123039   3.914   5.072  14.127 -1.6162  1.8464 -0.6210
  516TIP3    H223040   3.859   5.164  14.234  1.0971  2.6108  0.2159
  517TIP3   OH223041   6.157   0.048  11.790  0.8564 -0.5615 -0.2345
  517TIP3    H123042   6.206  -0.012  11.733  0.1715 -1.8288  0.4850
  517TIP3    H223043   6.145  -0.000  11.871 -1.7501 -0.4008 -0.4311
  518TIP3   OH223044   6.008   1.523   1.009  0.3027  0.5626  0.3874
  518TIP3    H123045   5.962   1.443   0.986  0.6273  0.4203  0.2204
  518TIP3    H223046   5.990   1.583   0.936  0.2085  0.5782  0.4241
  519TIP3   OH223047   2.447   3.458  16.519  0.2433  0.2918  0.1731
  519TIP3    H123048   2.514   3.401  16.558 -1.6968  0.1643  3.6194
  519TIP3    H223049   2.468   3.545  16.551  0.6715  0.8619 -1.5571
  520TIP3   OH223050   0.951   0.956  15.680 -0.6591 -0.3107  0.0730
  520TIP3    H123051   0.868   1.004  15.681 -0.1499  0.6183  2.3633
  520TIP3    H223052   0.928   0.870  15.646 -2.3766  0.2357 -0.2530
  521TIP3   OH223053   2.876   0.483   3.530  0.0044  0.6058 -0.5313
  521TIP3    H123054   2.935   0.533   3.474  0.3352  1.6281  0.6989
  521TIP3    H223055   2.882   0.525   3.615 -1.2907 -0.2732  0.0221
  522TIP3   OH223056   4.642   3.953   2.584 -0.1935 -0.1173  0.5987
  522TIP3    H123057   4.586   4.026   2.560 -1.6596 -1.0645  0.9937
  522TIP3    H223058   4.586   3.876   2.574  1.5632 -1.3074 -0.7187
  523TIP3   OH223059   5.649   4.209   2.551 -0.7125  0.5707 -0.7823
  523TIP3    H123060   5.724   4.152   2.570  0.5336  1.9397 -1.3338
  523TIP3    H223061   5.573   4.154   2.565  0.4253 -1.2431 -1.3363
  524TIP3   OH223062   3.753   2.176   6.424  0.3399  0.0790 -0.3039
  524TIP3    H123063   3.756   2.102   6.485  1.5075 -0.0424 -0.4717
  524TIP3    H223064   3.810   2.241   6.464 -0.2485  0.6793 -0.4358
  525TIP3   OH223065   6.779   5.087   2.213  0.3673  0.1644  0.1772
  525TIP3    H123066   6.785   5.039   2.131 -1.5553 -0.3210  0.2741
  525TIP3    H223067   6.866   5.079   2.252  0.7908 -1.1315 -0.9679
  526TIP3   OH223068   5.007   4.669  11.994  0.5886 -0.3966  0.1626
  526TIP3    H123069   4.948   4.741  12.014  0.8368  0.2201 -1.2222
  526TIP3    H223070   5.017   4.623  12.077 -0.0395  0.8032  0.9360
  527TIP3   OH223071   1.390   6.439   2.850 -0.2308  0.0083 -0.1450
  527TIP3    H123072   1.356   6.381   2.782  0.1647  0.1859 -0.4926
  527TIP3    H223073   1.446   6.501   2.804 -0.0647  0.2123  0.3243
  528TIP3   OH223074   1.240   0.563  14.711  0.1969  0.1331  0.2501
  528TIP3    H123075   1.234   0.470  14.690 -1.0761  0.0901  0.7143
  528TIP3    H223076   1.200   0.607  14.636 -3.1176  0.0445  1.7878
  529TIP3   OH223077   6.646   3.018  11.850  0.4358  0.0409 -0.0679
  529TIP3    H123078   6.606   3.016  11.762 -0.8317  1.8798  0.4009
  529TIP3    H223079   6.644   2.927  11.879 -1.4830 -0.2531 -0.9604
  530TIP3   OH223080   5.087   5.626  14.652 -0.2630  0.5579  0.2214
  530TIP3    H123081   5.122   5.542  14.682 -0.8579  0.8094  1.7268
  530TIP3    H223082   5.007   5.639  14.704  0.3074  2.4906  0.7112
  531TIP3   OH223083   0.939   1.202   1.361 -0.8235  0.0146 -0.0687
  531TIP3    H123084   0.860   1.239   1.400 -0.6595 -0.1215  0.3975
  531TIP3    H223085   0.948   1.116   1.402 -0.5343 -0.0457 -0.2529
  532TIP3   OH223086   0.293   3.691   5.683  0.2110  0.2003  0.3050
  532TIP3    H123087   0.274   3.600   5.663 -2.4279  0.9535 -1.1702
  532TIP3    H223088   0.366   3.714   5.625 -0.1137 -0.5852 -0.4339
  533TIP3   OH223089   3.377   2.244  13.420 -0.0683 -0.8125  0.1764
  533TIP3    H123090   3.353   2.206  13.505  1.4710 -0.7462  0.6739
  533TIP3    H223091   3.387   2.169  13.362 -0.5223 -0.9031  0.2128
  534TIP3   OH223092   4.942   2.735  16.936  0.6898  0.1932 -0.2635
  534TIP3    H123093   4.975   2.769  17.019  1.8822 -0.9682 -0.2316
  534TIP3    H223094   4.863   2.686  16.959  1.0718 -0.2096  0.2067
  535TIP3   OH223095   6.621   6.380  13.433 -0.4924 -0.2384 -0.5595
  535TIP3    H123096   6.578   6.311  13.383 -1.7655  0.8261 -1.0179
  535TIP3    H223097   6.637   6.341  13.519  2.3708 -2.3305 -1.8956
  536TIP3   OH223098   0.036   3.568  12.167  0.4829 -0.3596  0.4459
  536TIP3    H123099   0.034   3.636  12.234  1.6497 -1.5237  1.7377
  536TIP3    H223100   0.065   3.613  12.087  1.3142  0.6288  1.2866
  537TIP3   OH223101   2.566   5.244   3.562  0.3151  0.5727 -0.0044
  537TIP3    H123102   2.515   5.325   3.567  1.0014  0.9872  0.4833
  537TIP3    H223103   2.648   5.270   3.521  0.4624  0.0802 -0.0277
  538TIP3   OH223104   0.688   5.923   4.730 -0.4076  0.1589 -0.6460
  538TIP3    H123105   0.610   5.867   4.733  1.1939 -2.4349 -2.8313
  538TIP3    H223106   0.734   5.905   4.812 -0.4870 -0.8881 -0.8202
  539TIP3   OH223107   6.644   6.487   3.111 -0.0011 -0.1222 -0.0744
  539TIP3    H123108   6.576   6.528   3.057  0.1849  1.7604  1.0119
  539TIP3    H223109   6.603   6.477   3.197  0.7004 -0.0998  0.2675
  540TIP3   OH223110   0.429   5.786   0.455 -0.4369  0.7872  0.2016
  540TIP3    H123111   0.347   5.755   0.416  0.9606 -0.7031 -1.7654
  540TIP3    H223112   0.466   5.708   0.498  0.0591  1.3706  0.8444
  541TIP3   OH223113   4.850   2.406  14.269  0.3028 -0.5113  0.0170
  541TIP3    H123114   4.841   2.318  14.233  1.1033 -0.2318 -0.8997
  541TIP3    H223115   4.877   2.460  14.194  0.2463  0.4286  0.6579
  542TIP3   OH223116   0.931   4.796   0.755  0.0669  0.3842 -0.2102
  542TIP3    H123117   0.971   4.718   0.792 -1.6311  0.9738  3.3539
  542TIP3    H223118   0.912   4.774   0.664  2.9655 -1.9227 -0.3878
  543TIP3   OH223119   3.113   2.769  17.171  0.4243  0.3982  0.1474
  543TIP3    H123120   3.180   2.837  17.164  0.3652  0.3947 -0.4877
  543TIP3    H223121   3.148   2.694  17.123 -0.7282  0.9640 -1.6994
  544TIP3   OH223122   3.216   2.567   3.068  0.2589  0.2677  0.0413
  544TIP3    H123123   3.228   2.633   3.000  1.3873 -1.5110 -1.5767
  544TIP3    H223124   3.306   2.543   3.094 -0.0574 -1.7655 -0.5954
  545TIP3   OH223125   4.335   5.499  11.090  0.4855 -0.0354  0.0819
  545TIP3    H123126   4.338   5.415  11.135 -0.9186 -0.5795 -0.7734
  545TIP3    H223127   4.419   5.505  11.045  0.2154 -1.5057 -0.6930
  546TIP3   OH223128   4.832   1.359  15.240  0.0254 -0.3724  0.6109
  546TIP3    H123129   4.817   1.386  15.149  3.1760  1.8628  0.6010
  546TIP3    H223130   4.744   1.343  15.274 -1.4145  0.6458 -2.2689
  547TIP3   OH223131   6.216   2.266  10.617 -0.3564  0.6684 -0.3199
  547TIP3    H123132   6.145   2.328  10.634 -1.3540 -0.5678  0.1028
  547TIP3    H223133   6.295   2.320  10.619 -1.0476  1.7068  1.5460
  548TIP3   OH223134   5.966   2.311  15.681  0.8929  0.1797 -0.4177
  548TIP3    H123135   5.981   2.219  15.659 -1.2956 -0.3206  0.0057
  548TIP3    H223136   5.926   2.309  15.768 -0.7830  1.3836 -1.1031
  549TIP3   OH223137   6.325   0.971  13.090 -0.0182 -0.6508 -0.4217
  549TIP3    H123138   6.364   1.041  13.141 -0.7546  0.2603 -1.0722
  549TIP3    H223139   6.341   0.996  12.999 -0.2867 -1.3311 -0.6631
  550TIP3   OH223140   1.775   4.162  15.343  0.3454 -0.0158  0.3857
  550TIP3    H123141   1.824   4.219  15.284 -0.7551 -1.8087 -2.4691
  550TIP3    H223142   1.808   4.074  15.323  0.0922 -0.6878  2.6860
  551TIP3   OH223143   5.707   5.025  13.135 -0.4917 -0.0745  0.0263
  551TIP3    H123144   5.795   5.064  13.137 -0.1925 -0.5695 -1.6238
  551TIP3    H223145   5.672   5.051  13.050 -0.9236 -2.0074 -0.4184
  552TIP3   OH223146   5.667   2.234   5.440  0.2049 -0.1213 -0.2535
  552TIP3    H123147   5.606   2.201   5.506 -0.7984  1.1600 -0.4921
  552TIP3    H223148   5.736   2.168   5.436  0.1095 -0.4316  1.8168
  553TIP3   OH223149   6.173   2.966   0.029 -0.0371 -0.0810 -0.1597
  553TIP3    H123150   6.186   3.050  -0.015 -2.1181 -0.4567 -1.6296
  553TIP3    H223151   6.203   2.901  -0.035 -0.3126 -0.5331  0.1702
  554TIP3   OH223152   3.484   2.082   1.065  0.2525  0.0585  0.3417
  554TIP3    H123153   3.476   2.110   0.974  2.1613 -0.0572  0.0933
  554TIP3    H223154   3.558   2.132   1.100  1.8517 -2.3768  0.7544
  555TIP3   OH223155   3.631   4.807   0.098 -0.0817 -0.3344  0.2309
  555TIP3    H123156   3.611   4.803   0.005  0.2389 -0.5896  0.1748
  555TIP3    H223157   3.581   4.735   0.136 -0.9948  0.3587  0.4013
  556TIP3   OH223158   6.246   1.369   3.323 -0.5239 -0.0615 -0.0923
  556TIP3    H123159   6.173   1.318   3.288  0.3441 -1.0987 -0.4274
  556TIP3    H223160   6.243   1.354   3.417 -1.8116  1.3587  0.1494
  557TIP3   OH223161   3.960   3.013   5.392 -0.3391 -0.3557 -0.6252
  557TIP3    H123162   4.000   3.095   5.419  0.0899 -0.8911  0.4285
  557TIP3    H223163   3.928   3.029   5.303 -1.5237  1.3765  0.0707
  558TIP3   OH223164   4.930   4.682  11.319 -0.4676  0.1580 -0.1411
  558TIP3    H123165   4.982   4.604  11.298 -0.9830 -0.0952 -0.4861
  558TIP3    H223166   4.860   4.683  11.255 -1.5497 -0.1257  0.9937
  559TIP3   OH223167   4.015   6.567   2.522 -0.0423  0.2153 -0.0280
  559TIP3    H123168   3.954   6.533   2.457  0.2859 -0.3845 -0.0287
  559TIP3    H223169   4.057   6.489   2.559 -0.5143  0.5189  1.1939
  560TIP3   OH223170   4.868   3.826  15.785 -0.3148 -0.3406  0.4754
  560TIP3    H123171   4.851   3.914  15.818  1.3091 -0.4239  1.6644
  560TIP3    H223172   4.936   3.838  15.718 -1.1647 -0.5525 -0.4512
  561TIP3   OH223173   0.855   5.513   0.925  0.2231  0.3209 -0.6275
  561TIP3    H123174   0.778   5.565   0.901  0.5595 -0.3986 -3.7657
  561TIP3    H223175   0.822   5.423   0.928  0.9171 -0.0159 -2.1867
  562TIP3   OH223176   5.356   6.628   2.004 -0.2948 -0.0925 -0.0660
  562TIP3    H123177   5.382   6.628   2.096 -0.8509  0.5757  0.1024
  562TIP3    H223178   5.438   6.643   1.956  0.1701 -1.4877  0.2420
  563TIP3   OH223179   2.363   6.175   1.776 -0.1047  0.6340 -0.0016
  563TIP3    H123180   2.269   6.171   1.792  0.0772  0.8393  1.2949
  563TIP3    H223181   2.383   6.097   1.724 -0.7542 -0.3147  1.1197
  564TIP3   OH223182   6.197   1.318  15.779  0.0195  0.4856  0.1827
  564TIP3    H123183   6.258   1.374  15.827  2.2634 -2.6467  1.3426
  564TIP3    H223184   6.247   1.289  15.702 -1.3462  0.6349 -0.8059
  565TIP3   OH223185   1.394   3.964   0.102 -0.6358 -0.1635  0.1594
  565TIP3    H123186   1.298   3.968   0.096 -0.6726  1.2074  1.1730
  565TIP3    H223187   1.415   4.006   0.185  0.9162  0.5494 -0.5417
  566TIP3   OH223188   6.694   1.676  16.459  0.3501 -0.0166  0.0825
  566TIP3    H123189   6.762   1.616  16.429 -0.5988 -1.4888  0.7823
  566TIP3    H223190   6.665   1.641  16.543  0.3093  1.8949  0.9224
  567TIP3   OH223191   3.146   6.237   5.828  0.0589  0.2370 -0.4856
  567TIP3    H123192   3.059   6.268   5.856  0.0641  1.6406 -1.8949
  567TIP3    H223193   3.204   6.311   5.847  1.0329 -0.7779  0.6639
  568TIP3   OH223194   5.880   3.064  12.872  0.0142 -0.7815 -0.4485
  568TIP3    H123195   5.916   3.077  12.784  1.1695  1.8766  0.3187
  568TIP3    H223196   5.787   3.045  12.857  0.0361  0.2592 -2.2426
  569TIP3   OH223197   5.191   5.126  16.842  0.1460 -0.1362  0.7755
  569TIP3    H123198   5.116   5.171  16.803  0.9048 -0.7544 -1.5762
  569TIP3    H223199   5.262   5.189  16.837  0.3893 -0.4206  0.6272
  570TIP3   OH223200   1.857   2.028  11.324  0.1064 -0.0407 -0.4760
  570TIP3    H123201   1.817   1.994  11.244 -0.8333 -1.5008  0.5531
  570TIP3    H223202   1.798   2.098  11.351  0.0381 -0.0148 -0.6866
  571TIP3   OH223203   0.717   0.905  15.458 -0.2240 -0.2150 -0.2432
  571TIP3    H123204   0.703   0.906  15.553  2.4845  0.0909  0.2494
  571TIP3    H223205   0.755   0.991  15.438  1.7560 -1.2227 -1.0916
  572TIP3   OH223206   3.572   6.188  15.788  0.0438 -0.2933 -0.1820
  572TIP3    H123207   3.580   6.257  15.854 -0.1201 -0.8604  0.4448
  572TIP3    H223208   3.644   6.128  15.807  0.0455 -0.4202 -0.5734
  573TIP3   OH223209   4.497   0.550  16.767  0.1664  0.2826 -0.2836
  573TIP3    H123210   4.455   0.600  16.697  1.4476  2.2375  0.2410
  573TIP3    H223211   4.562   0.496  16.723 -0.1506  0.2722 -0.7374
  574TIP3   OH223212   6.235   3.135  14.166  0.2251  0.1756 -0.2255
  574TIP3    H123213   6.144   3.105  14.169  0.2889 -0.1356 -1.0262
  574TIP3    H223214   6.278   3.073  14.108  0.7124  0.9174 -0.6688
  575TIP3   OH223215   3.785   6.013  12.977  0.6885  0.0659 -0.3283
  575TIP3    H123216   3.731   6.089  12.999  1.4159  1.0363 -1.7494
  575TIP3    H223217   3.842   6.001  13.052  1.3940  1.7091 -0.5634
  576TIP3   OH223218   2.531   3.187   0.352 -0.2090  0.6923  0.6804
  576TIP3    H123219   2.462   3.147   0.405  0.0663 -0.6502  0.0667
  576TIP3    H223220   2.544   3.274   0.391 -0.9267  0.2462  1.9737
  577TIP3   OH223221   5.370   0.819   3.300 -0.0374 -0.3180 -1.0415
  577TIP3    H123222   5.395   0.833   3.391  0.7850  0.1018 -1.3223
  577TIP3    H223223   5.431   0.751   3.269  0.8376  0.7443 -1.7484
  578TIP3   OH223224   6.315   0.101   4.807  0.2055  0.0368 -0.1817
  578TIP3    H123225   6.259   0.148   4.746  1.7848  0.5251 -1.3136
  578TIP3    H223226   6.392   0.078   4.756  1.3142 -0.0805  1.4644
  579TIP3   OH223227   6.278   6.068  10.439  0.3419 -0.9630  0.4814
  579TIP3    H123228   6.246   6.146  10.484  0.8291  0.6649 -1.8514
  579TIP3    H223229   6.207   6.044  10.379  1.5165 -0.1439 -1.3225
  580TIP3   OH223230   5.430   4.673  15.558 -0.0874  0.1292 -0.7186
  580TIP3    H123231   5.343   4.678  15.599 -0.0877  2.0563 -0.8434
  580TIP3    H223232   5.486   4.637  15.626 -0.8557 -0.5174 -0.4099
  581TIP3   OH223233   4.542   5.949  14.906  0.0566 -0.4236 -0.1286
  581TIP3    H123234   4.578   5.940  14.994  2.4169 -0.7536 -1.0692
  581TIP3    H223235   4.553   6.042  14.885  2.1488 -0.8517 -1.1000
  582TIP3   OH223236   3.749   5.435  16.085  0.0543 -0.0870  0.0306
  582TIP3    H123237   3.679   5.433  16.020 -0.4329 -2.4969  0.5378
  582TIP3    H223238   3.816   5.377  16.050  0.3947 -0.2987  1.0005
  583TIP3   OH223239   4.648   3.485  10.847 -0.5216  0.1558 -0.0410
  583TIP3    H123240   4.563   3.449  10.873 -0.3077 -1.0797 -0.9718
  583TIP3    H223241   4.699   3.408  10.821  1.0678  0.8232  0.9957
  584TIP3   OH223242   0.367   3.133  11.654 -0.2590  0.4796 -0.6326
  584TIP3    H123243   0.371   3.228  11.665 -2.8322  0.4103  2.3201
  584TIP3    H223244   0.276   3.116  11.631  0.1227 -1.2967 -0.9500
  585TIP3   OH223245   2.055   6.717  12.454  0.6138  0.3079  0.0105
  585TIP3    H123246   2.126   6.781  12.463 -0.2375  1.4840 -1.2022
  585TIP3    H223247   2.045   6.706  12.359 -0.6298 -0.0522  0.1710
  586TIP3   OH223248   0.866   1.164   0.043  0.3101 -0.3459  0.2099
  586TIP3    H123249   0.952   1.154   0.085 -0.8892 -0.1924  2.8457
  586TIP3    H223250   0.842   1.076   0.015  1.1409 -0.4437 -0.2314
  587TIP3   OH223251   0.707   3.385  14.456  0.1608 -0.6458 -0.1167
  587TIP3    H123252   0.729   3.473  14.485 -0.9120  0.3457 -2.0948
  587TIP3    H223253   0.777   3.330  14.490  0.9088  0.9662  1.0894
  588TIP3   OH223254   5.914   1.514   4.378 -0.3363 -0.8327 -0.0985
  588TIP3    H123255   5.980   1.582   4.361 -1.0805 -0.0440  0.1165
  588TIP3    H223256   5.877   1.537   4.463 -0.6971 -1.4301 -0.0897
  589TIP3   OH223257   1.514   1.303  16.588  0.8355 -0.3639  0.0045
  589TIP3    H123258   1.601   1.298  16.628  2.1070  0.7853 -2.4210
  589TIP3    H223259   1.518   1.380  16.531 -2.0288  0.1159  0.3326
  590TIP3   OH223260   6.293   1.263   3.597  0.0582  0.3499 -0.2256
  590TIP3    H123261   6.277   1.325   3.669  2.3302  1.0466 -0.2519
  590TIP3    H223262   6.206   1.228   3.576 -0.7011  0.2363  2.7283
  591TIP3   OH223263   0.596   5.933   1.115  0.1677 -0.2187  0.5676
  591TIP3    H123264   0.517   5.970   1.076  0.4319 -1.1495 -0.9576
  591TIP3    H223265   0.574   5.841   1.132  0.5513 -0.1924  1.2471
  592TIP3   OH223266   4.317   0.308   1.857 -0.4173 -0.8440  0.0604
  592TIP3    H123267   4.367   0.273   1.930  1.3217 -0.0764 -0.7027
  592TIP3    H223268   4.302   0.400   1.879 -0.2553 -0.7159 -0.3389
  593TIP3   OH223269   6.790   0.808   4.303  0.0279  0.2419  0.2599
  593TIP3    H123270   6.731   0.772   4.370 -0.6537 -0.1148 -0.5234
  593TIP3    H223271   6.794   0.741   4.235 -0.0278  0.9887 -0.4942
  594TIP3   OH223272   2.421   3.315   5.737  0.3479 -0.1586  0.0478
  594TIP3    H123273   2.464   3.311   5.822 -1.4131  1.0496  1.0583
  594TIP3    H223274   2.339   3.267   5.749  0.6141 -1.0236 -1.3449
  595TIP3   OH223275   0.522   1.572   4.153 -0.1287  0.0201 -0.3435
  595TIP3    H123276   0.600   1.595   4.204 -0.2794  2.0206 -0.9309
  595TIP3    H223277   0.452   1.565   4.217  0.2858 -0.5958  0.0529
  596TIP3   OH223278   5.137   5.647   0.975 -0.1536 -0.5111 -0.3447
  596TIP3    H123279   5.089   5.640   1.058  1.7416 -0.8956  0.7914
  596TIP3    H223280   5.158   5.557   0.952 -2.0418 -0.5670 -2.1870
  597TIP3   OH223281   6.315   2.395  12.933 -0.3964 -0.6592  0.0134
  597TIP3    H123282   6.301   2.459  12.864 -2.4377 -1.3814 -0.3082
  597TIP3    H223283   6.236   2.341  12.933 -0.5688 -0.6052  3.0031
  598TIP3   OH223284   4.550   1.699  16.621 -0.5179 -0.2153  0.0513
  598TIP3    H123285   4.559   1.618  16.571  2.0632 -0.6258  0.9699
  598TIP3    H223286   4.518   1.671  16.707  1.7948 -0.6010  0.8802
  599TIP3   OH223287   3.880   0.714  16.103  0.9129 -0.7380 -0.0964
  599TIP3    H123288   3.921   0.798  16.082  0.3670 -1.0311 -2.7128
  599TIP3    H223289   3.870   0.671  16.018  0.7584 -3.2813  1.1186
  600TIP3   OH223290   0.328   5.358  10.636 -0.5938  1.0312  0.4261
  600TIP3    H123291   0.392   5.385  10.703 -1.0606  0.7166  1.0075
  600TIP3    H223292   0.336   5.425  10.568  0.5562  0.8447  0.3501
  601TIP3   OH223293   0.361   0.795  12.574 -0.2340 -0.2466 -0.1846
  601TIP3    H123294   0.267   0.779  12.577 -0.4415  0.7991 -0.5251
  601TIP3    H223295   0.383   0.821  12.664 -0.9634  2.8638 -0.7750
  602TIP3   OH223296   2.959   5.837  12.866 -0.4837  0.2170 -0.1411
  602TIP3    H123297   3.042   5.875  12.835 -1.6165  2.2527 -0.8446
  602TIP3    H223298   2.896   5.858  12.798 -1.5860 -1.4977  0.2805
  603TIP3   OH223299   6.776   2.732   4.133 -0.5521  0.5767 -0.2107
  603TIP3    H123300   6.680   2.731   4.132 -0.5828 -1.4337  0.4498
  603TIP3    H223301   6.801   2.643   4.108  1.1405  0.9741 -0.0435
  604TIP3   OH223302   2.225   3.359  11.805 -0.4645  0.7210  0.5616
  604TIP3    H123303   2.138   3.325  11.786 -1.0750  2.5406 -0.0976
  604TIP3    H223304   2.218   3.454  11.791  1.6288  0.9154  0.4425
  605TIP3   OH223305   5.536   5.835  10.366 -0.3712  0.5092  0.0768
  605TIP3    H123306   5.550   5.880  10.449  2.9849 -0.8244  0.4128
  605TIP3    H223307   5.498   5.751  10.391  1.9526 -0.4902  0.5778
  606TIP3   OH223308   2.668   2.744  14.743 -0.9365  0.1934 -0.3264
  606TIP3    H123309   2.670   2.764  14.649 -1.6443 -0.4126 -0.4837
  606TIP3    H223310   2.580   2.769  14.770 -0.8122  0.1415  0.1296
  607TIP3   OH223311   2.261   5.087  14.088  0.1946  0.0378 -0.0557
  607TIP3    H123312   2.225   5.175  14.089  1.2646  0.4930  1.2230
  607TIP3    H223313   2.351   5.098  14.055  1.7151  0.0793  3.6622
  608TIP3   OH223314   5.974   2.276  11.832  0.1436 -0.0746  0.3427
  608TIP3    H123315   5.898   2.333  11.843 -0.9482 -0.9355 -1.9610
  608TIP3    H223316   6.046   2.336  11.812 -0.4245  0.6500  0.4115
  609TIP3   OH223317   1.830   4.546   4.433 -0.7496  0.5200 -0.1870
  609TIP3    H123318   1.739   4.578   4.433 -1.4622 -1.2525 -2.3170
  609TIP3    H223319   1.881   4.621   4.463 -2.7309  2.1824 -0.6682
  610TIP3   OH223320   4.709   2.710  12.679 -0.4347 -0.1180  0.0331
  610TIP3    H123321   4.712   2.801  12.707 -1.9065 -0.0574  0.0394
  610TIP3    H223322   4.689   2.714  12.585  2.1496 -0.3931 -0.6305
  611TIP3   OH223323   1.896   1.792  13.826  0.1747  0.3990 -0.1621
  611TIP3    H123324   1.960   1.743  13.774 -1.3351 -3.1440  0.9874
  611TIP3    H223325   1.911   1.764  13.916 -1.9454  0.6945  0.3324
  612TIP3   OH223326   5.973   2.988   4.059 -0.0428  0.4120  0.5256
  612TIP3    H123327   5.932   3.057   4.112 -0.0729 -0.3211  1.5020
  612TIP3    H223328   6.031   2.943   4.121  0.3426 -0.1241 -0.2241
  613TIP3   OH223329   0.286   2.250  16.830 -0.0458 -0.3368 -0.6796
  613TIP3    H123330   0.236   2.191  16.774  0.9421 -0.7132 -1.1872
  613TIP3    H223331   0.286   2.208  16.916  0.0869 -0.7540 -0.8782
  614TIP3   OH223332   6.764   4.522   2.988 -0.2174 -0.2743 -0.2852
  614TIP3    H123333   6.672   4.499   2.975  0.1327  0.0267 -5.1738
  614TIP3    H223334   6.810   4.479   2.916  3.2674  1.0973  0.8770
  615TIP3   OH223335   2.922   5.963  12.389  0.1070  0.1396 -0.3664
  615TIP3    H123336   2.842   5.928  12.350 -0.8102  1.1925  0.4869
  615TIP3    H223337   2.906   5.959  12.484  0.5279  1.5244 -0.2089
  616TIP3   OH223338   1.719   6.799   1.685  0.6529  0.7149 -0.1096
  616TIP3    H123339   1.626   6.824   1.686  1.1609  2.9469  2.0891
  616TIP3    H223340   1.764   6.880   1.662  2.0901 -0.4178 -1.4689
  617TIP3   OH223341   4.153   2.269  15.159 -0.1348  0.3585  0.1671
  617TIP3    H123342   4.066   2.294  15.127  0.9707  2.0706 -1.6792
  617TIP3    H223343   4.177   2.192  15.107 -0.1441  0.4700 -0.0021
  618TIP3   OH223344   4.911   1.260   5.765  0.3490  0.0532 -0.4082
  618TIP3    H123345   4.818   1.246   5.783 -0.1350  2.4884 -0.6227
  618TIP3    H223346   4.942   1.176   5.732 -1.9262 -0.6490 -0.9409
  619TIP3   OH223347   0.005   4.620   5.505  0.1938 -0.2184  0.2674
  619TIP3    H123348  -0.059   4.683   5.537 -0.1711 -0.4542  0.0054
  619TIP3    H223349   0.088   4.650   5.541 -0.1022 -0.0649  0.8319
  620TIP3   OH223350   4.320   6.452   0.594  0.4292 -0.8836 -0.2073
  620TIP3    H123351   4.394   6.443   0.534 -0.8538  1.6694 -2.3973
  620TIP3    H223352   4.329   6.539   0.632  0.5974 -2.0347  2.5757
  621TIP3   OH223353   3.587   6.107  10.661  0.0388  0.3259 -0.0768
  621TIP3    H123354   3.594   6.036  10.725 -0.4351  1.5699  1.4158
  621TIP3    H223355   3.513   6.082  10.606  0.2009 -0.5784  0.0986
  622TIP3   OH223356   3.152   0.341  12.416 -0.5171  0.3533 -0.2241
  622TIP3    H123357   3.235   0.299  12.438 -0.3217  0.8310 -0.0292
  622TIP3    H223358   3.099   0.332  12.495  0.6071  3.1218  0.9972
  623TIP3   OH223359   1.757   2.515   4.181 -0.0002  0.0271  0.2667
  623TIP3    H123360   1.788   2.575   4.113  1.9719 -0.4549  0.6809
  623TIP3    H223361   1.772   2.562   4.263 -0.2937 -0.2556  0.4833
  624TIP3   OH223362   5.475   3.798  15.433 -0.0910 -0.0602 -0.3796
  624TIP3    H123363   5.451   3.708  15.455  2.7053 -0.7615  0.0876
  624TIP3    H223364   5.489   3.840  15.518 -0.5457  0.5873 -0.6170
  625TIP3   OH223365   4.283   5.738  11.223  0.5270  0.6002  0.0095
  625TIP3    H123366   4.284   5.703  11.134  1.4324  0.7029 -0.0315
  625TIP3    H223367   4.340   5.679  11.272 -0.7136 -0.0076  0.7481
  626TIP3   OH223368   3.765   5.905  14.311 -0.5362 -0.2006  0.3479
  626TIP3    H123369   3.840   5.907  14.371 -0.6109 -0.0661  0.4376
  626TIP3    H223370   3.777   5.824  14.261 -0.2858 -0.1390  0.3038
  627TIP3   OH223371   3.597   0.120   4.368  0.4829  0.2501 -0.2162
  627TIP3    H123372   3.515   0.110   4.319  1.8649 -1.3673 -2.3931
  627TIP3    H223373   3.623   0.211   4.353  0.5284 -0.0291 -2.0044
  628TIP3   OH223374   1.203   4.476  16.481  0.2045  0.1536  0.1750
  628TIP3    H123375   1.279   4.493  16.536  1.3018 -0.2475 -1.1567
  628TIP3    H223376   1.130   4.470  16.542  1.2519  0.4646  1.5016
  629TIP3   OH223377   2.488   1.925  14.240 -0.1625  0.5718 -0.3589
  629TIP3    H123378   2.535   1.910  14.322  0.0765 -1.8915 -0.8830
  629TIP3    H223379   2.531   2.001  14.201  2.0338 -0.3174  0.1737
  630TIP3   OH223380   6.522   5.569   5.912 -0.3563 -0.2969  0.4298
  630TIP3    H123381   6.456   5.597   5.848  1.0444 -0.9366 -1.3948
  630TIP3    H223382   6.474   5.563   5.995 -1.6655  3.2964  0.1056
  631TIP3   OH223383   1.382   0.447  16.779  0.2590 -0.2769  0.3321
  631TIP3    H123384   1.401   0.447  16.686  0.4853  3.4722  0.2228
  631TIP3    H223385   1.462   0.478  16.820 -0.2447 -0.6650  1.6696
  632TIP3   OH223386   5.231   1.342  13.704 -0.1688 -0.3076 -0.6822
  632TIP3    H123387   5.184   1.318  13.784 -0.0234 -1.1583 -0.8434
  632TIP3    H223388   5.196   1.284  13.637 -0.2946  0.4069 -1.2474
  633TIP3   OH223389   4.106   1.870  11.212 -0.5911 -0.3510 -0.4316
  633TIP3    H123390   4.130   1.957  11.243 -2.3529 -0.0866  0.2834
  633TIP3    H223391   4.013   1.876  11.193 -0.6281 -1.9432 -0.9034
  634TIP3   OH223392   0.119   2.087   4.041 -0.5133  0.2624  0.3884
  634TIP3    H123393   0.170   2.066   4.119  0.3850 -1.9441 -0.6992
  634TIP3    H223394   0.034   2.045   4.055 -0.1688 -0.5923 -0.0100
  635TIP3   OH223395   3.119   5.196   2.170  0.0315 -0.4953  0.3311
  635TIP3    H123396   3.049   5.158   2.116  0.3332 -0.9304  0.2440
  635TIP3    H223397   3.146   5.125   2.228 -1.9798  0.5989  2.8213
  636TIP3   OH223398   1.783   6.408   2.714  0.2630 -0.2335  0.1243
  636TIP3    H123399   1.713   6.420   2.649  0.7915 -1.1521 -0.6466
  636TIP3    H223400   1.766   6.321   2.751  0.7257 -0.2628  0.2738
  637TIP3   OH223401   4.478   4.588  15.903 -0.0426 -0.0384 -0.0918
  637TIP3    H123402   4.510   4.511  15.857  0.1081  0.0209 -0.0872
  637TIP3    H223403   4.506   4.662  15.848  0.7258  0.0720  0.4413
  638TIP3   OH223404   2.281   5.366  16.290  0.1681 -0.7004 -0.3014
  638TIP3    H123405   2.217   5.295  16.281 -0.1459 -0.4371 -0.1702
  638TIP3    H223406   2.228   5.444  16.306  0.4179 -0.1461 -1.9953
  639TIP3   OH223407   3.348   3.343   0.311  0.2710 -0.2683 -0.3565
  639TIP3    H123408   3.419   3.367   0.252  1.5381 -0.3208  1.0968
  639TIP3    H223409   3.383   3.271   0.364 -1.2900 -1.1287 -0.4084
  640TIP3   OH223410   1.638   4.244  16.646 -0.3702 -0.1930  0.1183
  640TIP3    H123411   1.730   4.244  16.619 -0.7502 -0.1513 -1.2696
  640TIP3    H223412   1.622   4.153  16.673 -0.2300 -0.5101 -0.8191
  641TIP3   OH223413   2.440   1.331   0.196 -0.3060 -0.6822  0.5448
  641TIP3    H123414   2.391   1.380   0.263  1.5980  1.7054  0.3260
  641TIP3    H223415   2.377   1.317   0.125 -1.1492  0.7999  0.9616
  642TIP3   OH223416   5.898   0.400   3.551 -0.7095  0.6460 -0.0271
  642TIP3    H123417   5.935   0.319   3.516 -0.7520  0.5831  0.0701
  642TIP3    H223418   5.948   0.470   3.509 -0.1782  0.5549  0.4435
  643TIP3   OH223419   3.507   2.298  11.987 -0.3358 -0.0461  0.0270
  643TIP3    H123420   3.503   2.273  11.895  1.7529 -1.5325  0.2663
  643TIP3    H223421   3.438   2.245  12.029 -1.9290  1.3212 -0.7452
  644TIP3   OH223422   4.907   0.650   1.265 -0.3261  0.7790 -0.1801
  644TIP3    H123423   4.926   0.614   1.179  2.5368 -1.9302  1.4014
  644TIP3    H223424   4.926   0.743   1.257 -2.0385  1.0126 -2.8692
  645TIP3   OH223425   2.553   5.730   6.642  0.2052 -0.4131  0.4669
  645TIP3    H123426   2.563   5.635   6.641 -0.8386 -0.5326  0.5751
  645TIP3    H223427   2.643   5.764   6.634  0.5929 -1.3987  0.5466
  646TIP3   OH223428   0.888   2.726   5.765  0.3286 -0.8723  0.2239
  646TIP3    H123429   0.820   2.715   5.831  1.3955 -0.1654  1.5022
  646TIP3    H223430   0.880   2.649   5.709 -0.8007 -1.3488  0.9993
  647TIP3   OH223431   3.094   4.013  16.019  0.6928  0.4007 -0.3661
  647TIP3    H123432   3.102   4.078  16.089 -0.2522 -0.7507  0.8594
  647TIP3    H223433   3.021   4.045  15.966  2.4739  2.1821 -1.9147
  648TIP3   OH223434   3.496   4.741   2.864 -0.4515 -0.0079  0.1559
  648TIP3    H123435   3.435   4.675   2.832  0.9182 -1.0669 -0.3456
  648TIP3    H223436   3.487   4.739   2.959 -1.0629 -0.2696  0.0937
  649TIP3   OH223437   0.478   1.089  10.604  0.2598 -0.2184  0.0094
  649TIP3    H123438   0.410   1.026  10.582  0.7939 -1.7184  2.4016
  649TIP3    H223439   0.461   1.113  10.695  2.8759 -0.6365  0.6944
  650TIP3   OH223440   6.472   0.932   4.501 -0.0655  0.3874 -0.1690
  650TIP3    H123441   6.442   1.023   4.497 -1.9602 -0.1453  0.8529
  650TIP3    H223442   6.546   0.934   4.561  1.1839  1.5313 -1.6652
  651TIP3   OH223443   5.803   0.793   1.213  0.7830 -0.5406  0.1812
  651TIP3    H123444   5.816   0.862   1.278  0.0471  0.3552 -0.5982
  651TIP3    H223445   5.715   0.759   1.232 -0.1567  0.8913 -1.3687
  652TIP3   OH223446   0.377   5.450   0.838  0.0311  0.2524 -0.7302
  652TIP3    H123447   0.387   5.535   0.882  1.4447  0.9307 -2.2511
  652TIP3    H223448   0.428   5.389   0.892 -0.9462  0.3439  0.3427
  653TIP3   OH223449   4.567   5.026  14.586  0.0753 -0.1799 -0.2849
  653TIP3    H123450   4.507   5.041  14.659 -0.4503 -1.3646 -0.4419
  653TIP3    H223451   4.639   5.087  14.601 -0.7996  0.7394  0.3260
  654TIP3   OH223452   4.575   3.385  16.494  0.0226  0.0590 -0.3424
  654TIP3    H123453   4.544   3.349  16.578 -0.1284  1.0454  0.0317
  654TIP3    H223454   4.550   3.477  16.497 -0.1402  0.0645 -1.5550
  655TIP3   OH223455   5.422   3.704  12.231 -0.5703  0.2437  0.2715
  655TIP3    H123456   5.469   3.782  12.199 -1.0135  0.2839 -0.2871
  655TIP3    H223457   5.462   3.631  12.183  0.5115 -0.0129  1.4886
  656TIP3   OH223458   5.489   3.339   4.110  0.2789  0.2509  0.1918
  656TIP3    H123459   5.444   3.413   4.069 -1.3449 -0.9801 -0.3232
  656TIP3    H223460   5.425   3.269   4.112  2.2469 -1.6976 -0.8050
  657TIP3   OH223461   1.439   0.327  14.072  0.4194 -0.1241  0.7463
  657TIP3    H123462   1.371   0.260  14.069 -0.6590  0.9767 -0.6311
  657TIP3    H223463   1.521   0.277  14.075 -0.3755 -1.5007  0.5299
  658TIP3   OH223464   1.512   2.650   5.682 -0.0340 -0.8977  0.2983
  658TIP3    H123465   1.486   2.667   5.591 -0.7900  0.1264  0.6853
  658TIP3    H223466   1.486   2.729   5.729  0.1584 -1.5058  1.4496
  659TIP3   OH223467   1.873   6.023   5.203  0.4325  0.1922  0.1824
  659TIP3    H123468   1.789   6.065   5.222 -0.4718 -1.1201 -0.7340
  659TIP3    H223469   1.885   5.961   5.275  1.8119  2.0104  1.5858
  660TIP3   OH223470   2.535   0.240  15.347  0.0014 -0.4628  0.0338
  660TIP3    H123471   2.583   0.204  15.272 -1.6866  0.0618 -1.3722
  660TIP3    H223472   2.550   0.334  15.343 -0.9085 -0.3216 -0.2762
  661TIP3   OH223473   0.506   3.278   4.350  0.1664 -0.7453  0.1523
  661TIP3    H123474   0.460   3.262   4.432 -0.8651 -0.2094 -0.3028
  661TIP3    H223475   0.580   3.217   4.351 -0.8883 -2.0605  0.6427
  662TIP3   OH223476   6.785   2.769   0.353  0.0255 -0.2906  0.0787
  662TIP3    H123477   6.785   2.677   0.379  0.8705  0.0218  1.2589
  662TIP3    H223478   6.707   2.779   0.299 -0.6734 -1.4509  0.8383
  663TIP3   OH223479   0.666   4.773  12.177  0.0035  0.3925 -0.0246
  663TIP3    H123480   0.656   4.865  12.199 -1.8483  0.2642 -0.1410
  663TIP3    H223481   0.624   4.764  12.091 -0.8437 -0.7285  0.4739
  664TIP3   OH223482   0.653   4.116  12.325 -0.1299 -0.4981  0.1864
  664TIP3    H123483   0.675   4.024  12.337  1.8310  0.0417  1.0948
  664TIP3    H223484   0.613   4.142  12.408 -0.2085 -0.4037  0.1189
  665TIP3   OH223485   0.728   6.302   0.608 -0.4420 -0.0466 -0.3371
  665TIP3    H123486   0.732   6.268   0.519 -0.2998 -1.6732  0.2680
  665TIP3    H223487   0.674   6.239   0.656 -2.1656  1.7935  0.3277
  666TIP3   OH223488   1.566   6.639   3.981 -0.3352 -0.2710 -0.6373
  666TIP3    H123489   1.540   6.548   3.993  1.1708 -0.6274  0.0842
  666TIP3    H223490   1.657   6.642   4.008 -0.5726  1.6131  0.1018
  667TIP3   OH223491   5.758   2.321   2.612 -0.9688  0.4167 -0.4120
  667TIP3    H123492   5.822   2.341   2.543  0.7657  0.9327  1.2708
  667TIP3    H223493   5.714   2.242   2.581  1.6112 -0.9233 -0.9760
  668TIP3   OH223494   2.158   2.711  14.214 -0.3903 -0.1681  0.5436
  668TIP3    H123495   2.232   2.738  14.159  0.4450 -1.2167  1.1099
  668TIP3    H223496   2.109   2.791  14.230 -1.3744  0.0234 -2.7214
  669TIP3   OH223497   4.355   6.169   4.617  0.1462  0.4390 -0.7590
  669TIP3    H123498   4.282   6.158   4.557  0.1795 -1.4445 -0.5269
  669TIP3    H223499   4.339   6.253   4.660 -1.4613  0.4270 -1.2693
  670TIP3   OH223500   2.406   0.967   2.197 -0.3973  0.3470  0.3219
  670TIP3    H123501   2.447   1.047   2.231  0.1995 -0.1388  0.7518
  670TIP3    H223502   2.317   0.994   2.176  0.0977  1.4066 -0.5464
  671TIP3   OH223503   3.002   3.980  13.956 -0.1684 -0.4374  0.2324
  671TIP3    H123504   3.075   3.995  13.896 -0.6317 -0.1185 -0.2590
  671TIP3    H223505   2.928   4.025  13.916 -0.4467 -0.0590  1.1379
  672TIP3   OH223506   1.571   2.258  13.661 -0.8125  0.2077 -0.0507
  672TIP3    H123507   1.617   2.174  13.657  0.5484  0.9571 -0.9159
  672TIP3    H223508   1.500   2.248  13.598  0.0644  0.0951 -1.0526
  673TIP3   OH223509   5.046   5.090   5.495  0.1593  0.0854  0.2532
  673TIP3    H123510   4.960   5.107   5.532  0.5204  2.4786  0.1427
  673TIP3    H223511   5.051   5.146   5.418  1.0591 -1.5880 -0.9877
  674TIP3   OH223512   1.659   3.259   4.776 -0.2369 -0.6189 -0.6312
  674TIP3    H123513   1.678   3.194   4.844  0.4380  0.0851 -0.1181
  674TIP3    H223514   1.697   3.340   4.810 -3.2206  0.6782 -0.0349
  675TIP3   OH223515   4.703   0.399  13.367 -0.1299 -0.3495 -0.1442
  675TIP3    H123516   4.723   0.351  13.287  0.6626 -0.0676 -0.1247
  675TIP3    H223517   4.630   0.456  13.343  0.3348 -0.0010 -0.7803
  676TIP3   OH223518   6.104   0.995  14.334  0.0049  0.3862  0.4017
  676TIP3    H123519   6.159   0.921  14.308 -1.5325 -0.4189 -0.7795
  676TIP3    H223520   6.165   1.061  14.366  1.4321 -1.4577  1.7426
  677TIP3   OH223521   5.495   4.812  10.968  0.5252  0.2697 -0.3325
  677TIP3    H123522   5.416   4.808  10.914  0.1523 -1.8146  0.2928
  677TIP3    H223523   5.539   4.729  10.952  2.1227  1.0148  0.0514
  678TIP3   OH223524   6.666   1.961   3.607  0.1983 -0.3115  0.0293
  678TIP3    H123525   6.578   1.936   3.637  0.0745  1.6063  1.4554
  678TIP3    H223526   6.717   1.967   3.687  1.2829 -0.0844 -0.6661
  679TIP3   OH223527   3.865   3.879   1.184  0.0210  0.5846  0.2652
  679TIP3    H123528   3.784   3.930   1.177 -0.2657  0.0076 -0.9519
  679TIP3    H223529   3.848   3.800   1.132  1.2005  0.2369  0.3767
  680TIP3   OH223530   2.998   4.481  14.971 -0.7470 -0.0062 -0.6040
  680TIP3    H123531   3.034   4.507  14.886  0.3108 -2.5513 -1.0193
  680TIP3    H223532   3.072   4.491  15.031 -0.1097 -2.3114 -0.8841
  681TIP3   OH223533   5.779   3.066  11.603  0.2678 -0.1353 -0.2766
  681TIP3    H123534   5.870   3.086  11.580 -0.5627  3.7740 -0.8917
  681TIP3    H223535   5.740   3.035  11.521  0.2083  1.9380 -1.0826
  682TIP3   OH223536   2.865   5.760   2.854 -0.3663 -0.8537  0.3339
  682TIP3    H123537   2.954   5.746   2.884 -0.1734  1.0265  0.7581
  682TIP3    H223538   2.810   5.728   2.925  0.0299 -0.0069  1.0349
  683TIP3   OH223539   2.404   0.417   5.034  0.2881 -0.6250  0.4388
  683TIP3    H123540   2.330   0.408   4.974 -0.1352  1.7434  0.5113
  683TIP3    H223541   2.481   0.398   4.981 -0.1878 -0.1574 -0.4379
  684TIP3   OH223542   0.767   4.022   4.265  0.1483  0.2219 -0.2177
  684TIP3    H123543   0.759   4.107   4.308  2.6783  0.5306 -0.2004
  684TIP3    H223544   0.787   3.961   4.337  0.1539 -0.0462 -0.4473
  685TIP3   OH223545   6.751   5.534   4.298 -0.4170 -0.1615  0.3384
  685TIP3    H123546   6.715   5.454   4.259  2.7881 -1.9188  0.6970
  685TIP3    H223547   6.674   5.580   4.331 -2.4646 -2.9244 -0.1569
  686TIP3   OH223548   0.846   2.803  11.947 -0.0132 -0.1673 -0.6166
  686TIP3    H123549   0.776   2.763  11.998 -1.3282  1.5761 -0.9470
  686TIP3    H223550   0.894   2.858  12.009 -0.3969  0.4342 -0.8428
  687TIP3   OH223551   6.729   4.504  13.983  0.3533  0.1170 -0.6930
  687TIP3    H123552   6.785   4.504  14.062 -0.2650 -2.2896 -0.1616
  687TIP3    H223553   6.648   4.545  14.012  0.5943  0.4346 -0.4528
  688TIP3   OH223554   1.072   3.202  15.909  0.2144 -0.1574  0.1944
  688TIP3    H123555   1.043   3.292  15.898  0.6915 -0.0771 -0.5374
  688TIP3    H223556   1.074   3.188  16.003  0.5872  0.7539  0.3321
  689TIP3   OH223557   1.372   4.881   3.484 -0.5747 -0.0133  0.3614
  689TIP3    H123558   1.299   4.943   3.487 -0.2426  0.3534  1.3204
  689TIP3    H223559   1.358   4.831   3.404 -1.5263  0.4814  0.2051
  690TIP3   OH223560   0.851   4.257   5.107 -0.4731 -0.1350  0.4173
  690TIP3    H123561   0.924   4.251   5.169 -0.7342  1.2319  0.9040
  690TIP3    H223562   0.791   4.320   5.147 -2.3020 -1.7535  0.3971
  691TIP3   OH223563   6.757   2.501  14.554 -0.2807 -0.2277 -0.1978
  691TIP3    H123564   6.769   2.416  14.596 -0.9160 -0.2604 -0.0703
  691TIP3    H223565   6.698   2.549  14.612 -0.8079 -0.1033 -0.8151
  692TIP3   OH223566   2.639   5.466   6.460 -0.0823 -0.6688 -0.2602
  692TIP3    H123567   2.642   5.375   6.432 -0.1454 -0.4084 -1.1279
  692TIP3    H223568   2.562   5.471   6.517 -1.1026 -0.7809 -1.5850
  693TIP3   OH223569   4.158   0.104  12.637  0.1736  0.2498 -0.2676
  693TIP3    H123570   4.092   0.155  12.684  1.3520  1.3274  0.3027
  693TIP3    H223571   4.115   0.022  12.615 -1.2012  0.7489  0.4699
  694TIP3   OH223572   2.799   6.172   1.979  0.0837  0.1490  0.2267
  694TIP3    H123573   2.845   6.095   2.012  1.9665  0.8644 -0.5618
  694TIP3    H223574   2.723   6.136   1.934 -0.5226 -1.0505  2.0752
  695TIP3   OH223575   1.379   2.907  12.768 -0.1530 -0.8210 -0.4188
  695TIP3    H123576   1.374   2.979  12.705 -0.9163 -1.0718 -0.6620
  695TIP3    H223577   1.288   2.883  12.783  0.1022 -1.9200 -0.5529
  696TIP3   OH223578   0.608   4.740   5.992  0.4466 -0.1117 -0.0928
  696TIP3    H123579   0.586   4.802   6.062  1.7983 -0.5211  0.7296
  696TIP3    H223580   0.696   4.709   6.014 -0.9901 -4.2014  0.9871
  697TIP3   OH223581   2.257   4.000   2.943 -0.3597 -0.0677  0.7861
  697TIP3    H123582   2.328   4.060   2.920 -0.2851 -1.1060 -2.0418
  697TIP3    H223583   2.261   3.994   3.039  2.5073  0.9011  0.8237
  698TIP3   OH223584   0.591   0.996   4.916 -0.3269 -0.0953  0.2191
  698TIP3    H123585   0.532   1.058   4.958 -0.4601 -0.1952  0.1800
  698TIP3    H223586   0.542   0.964   4.840 -0.0817  0.0987 -0.0250
  699TIP3   OH223587   3.000   3.883  16.944  0.0943  0.7100 -0.2267
  699TIP3    H123588   2.913   3.891  16.984  0.0669 -2.9968  0.8289
  699TIP3    H223589   3.057   3.934  17.000 -1.0456  1.3517  0.3879
  700TIP3   OH223590   3.458   2.508   3.266  0.3793 -0.1749  0.4351
  700TIP3    H123591   3.504   2.435   3.223  3.8279  1.1935  1.4359
  700TIP3    H223592   3.509   2.524   3.346 -1.4009  2.1132  1.2092
  701TIP3   OH223593   3.714   4.683   3.127  0.2857 -1.2001 -0.4766
  701TIP3    H123594   3.771   4.759   3.134 -0.0860 -1.0057  0.4904
  701TIP3    H223595   3.632   4.710   3.168  0.2456 -2.2119  0.1428
  702TIP3   OH223596   1.907   3.456   0.372  0.2791  0.5189 -0.0377
  702TIP3    H123597   1.982   3.409   0.336 -0.2540  0.0746 -0.5841
  702TIP3    H223598   1.831   3.403   0.348 -0.4376  2.1040 -1.4909
  703TIP3   OH223599   3.375   2.479  13.283 -0.0547 -0.0472  0.4580
  703TIP3    H123600   3.363   2.390  13.316 -1.2678 -0.0696 -0.0065
  703TIP3    H223601   3.378   2.469  13.188 -1.4420  0.5132  0.3292
  704TIP3   OH223602   0.968   1.367  14.710  0.1513  0.6068 -0.0999
  704TIP3    H123603   1.058   1.391  14.689  0.1518  0.6360 -0.0638
  704TIP3    H223604   0.925   1.361  14.624  0.6007 -1.0604 -0.2365
  705TIP3   OH223605   1.663   3.338  15.406  0.4099  0.7869 -0.1308
  705TIP3    H123606   1.752   3.368  15.389 -0.3565  2.0570 -2.2574
  705TIP3    H223607   1.644   3.276  15.336 -0.0180 -0.3437  0.9538
  706TIP3   OH223608   0.098   4.797   4.299  0.4322  0.2242  0.2679
  706TIP3    H123609   0.072   4.857   4.229 -0.7470 -0.2226  0.3102
  706TIP3    H223610   0.134   4.721   4.253 -1.3493 -0.5535  0.0511
  707TIP3   OH223611   5.492   6.018  12.574  0.1450  0.3729 -0.6298
  707TIP3    H123612   5.498   6.074  12.651 -0.0210 -0.9637  0.3914
  707TIP3    H223613   5.438   6.067  12.512 -0.4404  1.1187  0.4419
  708TIP3   OH223614   3.479   5.960   1.736 -0.0548  0.3402 -0.2862
  708TIP3    H123615   3.441   5.970   1.649 -1.1724 -1.7799 -0.1167
  708TIP3    H223616   3.551   5.899   1.724  0.5888  1.0062  0.0982
  709TIP3   OH223617   6.719   2.035  12.433 -0.4338  0.5179 -0.4674
  709TIP3    H123618   6.704   1.942  12.446 -1.6284  0.9157  1.5329
  709TIP3    H223619   6.808   2.050  12.463 -1.2368  0.4432  2.1915
  710TIP3   OH223620   5.688   4.832   5.972  0.0134  0.0828  0.0892
  710TIP3    H123621   5.633   4.823   6.050 -1.6831 -1.3422 -1.1671
  710TIP3    H223622   5.777   4.813   6.002 -0.5155  0.1960  1.7851
  711TIP3   OH223623   4.794   2.757  14.590  0.6124  0.0877  0.3208
  711TIP3    H123624   4.803   2.850  14.610  0.1632 -0.0901  1.4743
  711TIP3    H223625   4.814   2.749  14.497  0.0707  1.4229  0.0719
  712TIP3   OH223626   5.062   3.462   2.176 -0.0037 -0.0641 -0.1996
  712TIP3    H123627   5.028   3.468   2.087  1.4190 -3.2516 -1.0956
  712TIP3    H223628   5.126   3.532   2.182 -1.8910  1.8105 -0.7251
  713TIP3   OH223629   5.870   0.894   0.252 -0.2569 -0.4184 -0.0729
  713TIP3    H123630   5.796   0.836   0.235  0.3280 -1.5468  1.0193
  713TIP3    H223631   5.852   0.931   0.338 -0.2895  0.5173 -0.4709
  714TIP3   OH223632   6.575   5.852  14.695 -0.6411 -0.2597  0.4821
  714TIP3    H123633   6.558   5.759  14.710  0.0067 -0.5235 -0.3354
  714TIP3    H223634   6.651   5.872  14.750 -1.2032 -0.0335  1.1890
  715TIP3   OH223635   4.112   3.938  11.347  0.5174  0.0559  0.1355
  715TIP3    H123636   4.184   3.971  11.400  0.3259 -1.9999  1.7935
  715TIP3    H223637   4.113   3.843  11.360 -1.4426 -0.2107 -1.1431
  716TIP3   OH223638   6.164   5.376   1.964 -0.2662 -0.5035 -0.0205
  716TIP3    H123639   6.207   5.413   1.887  1.8622  1.4034  1.9723
  716TIP3    H223640   6.195   5.428   2.038 -2.5202 -1.9839  2.1548
  717TIP3   OH223641   2.847   4.165  11.351  0.6520 -0.5911 -0.0302
  717TIP3    H123642   2.911   4.138  11.417  1.3637 -0.0301 -0.4688
  717TIP3    H223643   2.856   4.260  11.347  2.0320 -0.7323 -2.2825
  718TIP3   OH223644   2.070   5.795   2.711 -0.7568  0.2003  0.0448
  718TIP3    H123645   2.066   5.842   2.795 -0.1912  2.0494 -0.9024
  718TIP3    H223646   1.985   5.811   2.670 -0.4049  0.8362 -0.4714
  719TIP3   OH223647   6.096   1.928  10.692  0.0168  0.2257  0.3998
  719TIP3    H123648   6.076   1.857  10.632  2.5738 -1.6507  1.5906
  719TIP3    H223649   6.026   1.924  10.758 -0.1925 -0.7984  0.1277
  720TIP3   OH223650   5.319   5.456  15.154  0.0320  0.0292  0.0481
  720TIP3    H123651   5.393   5.452  15.214  0.4213  0.8246 -0.3683
  720TIP3    H223652   5.242   5.468  15.210  0.4631  1.4773  0.3567
  721TIP3   OH223653   6.701   3.945   4.090 -0.9510 -0.3961 -0.1423
  721TIP3    H123654   6.789   3.952   4.053 -0.6133  0.1824  0.7525
  721TIP3    H223655   6.680   4.033   4.119 -1.4340 -0.7274  0.5470
  722TIP3   OH223656   5.478   3.992  14.141 -0.0603  0.0780  0.5187
  722TIP3    H123657   5.435   3.908  14.154 -0.6538  0.2232 -0.4145
  722TIP3    H223658   5.541   3.999  14.214  0.1000 -1.2250  0.5242
  723TIP3   OH223659   0.513   0.228   0.207  0.0952 -0.1635 -0.3397
  723TIP3    H123660   0.597   0.226   0.253 -0.5252 -0.8260  0.8243
  723TIP3    H223661   0.504   0.141   0.169 -0.5480 -0.4573  0.4666
  724TIP3   OH223662   3.331   5.272   5.905  0.0729  0.3673 -0.1356
  724TIP3    H123663   3.362   5.292   5.817  0.7750  0.8576  0.2109
  724TIP3    H223664   3.328   5.357   5.949  1.6883 -0.0605  0.9169
  725TIP3   OH223665   5.742   1.539   2.846  0.0085  0.6483 -0.7124
  725TIP3    H123666   5.814   1.476   2.841 -0.8365 -0.3560 -0.4524
  725TIP3    H223667   5.682   1.513   2.777 -0.9872  0.3445  0.2537
  726TIP3   OH223668   5.529   6.206  15.000  0.1482 -0.2116  0.1330
  726TIP3    H123669   5.440   6.207  15.033 -0.5476 -1.0235 -1.6348
  726TIP3    H223670   5.528   6.265  14.924  1.3777  0.5728  0.6870
  727TIP3   OH223671   2.256   3.513   4.620 -0.0360  0.1489  0.3437
  727TIP3    H123672   2.163   3.536   4.622 -0.7080 -2.3155  0.6704
  727TIP3    H223673   2.259   3.424   4.655  2.3357 -0.2059 -0.6201
  728TIP3   OH223674   1.229   3.915   7.110  0.0011  0.6574 -0.4116
  728TIP3    H123675   1.278   3.978   7.163  1.8785 -1.2037  0.1763
  728TIP3    H223676   1.269   3.920   7.023  0.1479  0.2615 -0.3654
  729TIP3   OH223677   3.760   2.240   4.055  0.1120  1.0634 -0.4826
  729TIP3    H123678   3.675   2.209   4.024 -0.2912  1.5801  0.1014
  729TIP3    H223679   3.821   2.216   3.985 -0.4610  0.4295 -0.7719
  730TIP3   OH223680   2.307   5.209   4.949  0.1145 -0.1473  0.4098
  730TIP3    H123681   2.310   5.244   5.038  0.5249 -3.4162  1.8362
  730TIP3    H223682   2.399   5.188   4.929 -0.0221  0.2367 -0.6637
  731TIP3   OH223683   5.937   0.225  14.050 -0.0452 -0.3652  0.0932
  731TIP3    H123684   6.028   0.246  14.030  0.4177 -1.2008  1.2067
  731TIP3    H223685   5.926   0.134  14.020 -0.3793 -0.4166  0.3602
  732TIP3   OH223686   4.669   4.316  16.905  0.3378 -0.4300 -0.0633
  732TIP3    H123687   4.761   4.296  16.889  0.5321  0.8542 -0.7632
  732TIP3    H223688   4.629   4.310  16.818 -0.8976 -3.7586  0.5879
  733TIP3   OH223689   6.223   1.508   6.517  0.0009  0.3029  0.8275
  733TIP3    H123690   6.158   1.552   6.461  2.7064  1.7539 -1.4021
  733TIP3    H223691   6.267   1.579   6.563  1.9425 -0.3362  0.0449
  734TIP3   OH223692   0.166   4.158  15.788  0.7694 -0.0846 -0.7564
  734TIP3    H123693   0.080   4.147  15.829  1.0997  0.7188  0.1901
  734TIP3    H223694   0.147   4.203  15.705  0.1859 -0.8285 -1.0349
  735TIP3   OH223695   6.196   6.614  11.640 -0.1559  0.0086 -0.2813
  735TIP3    H123696   6.274   6.603  11.585 -0.3205 -2.8018 -0.0802
  735TIP3    H223697   6.202   6.543  11.704 -3.4632 -0.9931 -0.9445
  736TIP3   OH223698   1.813   3.358  12.620  0.4134  0.1821 -0.5209
  736TIP3    H123699   1.724   3.391  12.604  0.2662 -0.4392 -1.0304
  736TIP3    H223700   1.866   3.437  12.630 -0.1798  0.5625 -0.3207
  737TIP3   OH223701   0.344   3.402   4.192  0.0579 -0.3346  0.5607
  737TIP3    H123702   0.271   3.342   4.210  0.6094 -0.7108  1.6152
  737TIP3    H223703   0.411   3.378   4.256  0.8326  0.4851  0.0730
  738TIP3   OH223704   2.157   3.118   2.677 -0.6240 -0.0663  0.0543
  738TIP3    H123705   2.184   3.028   2.693 -1.3071 -0.6471 -1.7580
  738TIP3    H223706   2.139   3.154   2.764  1.4695 -1.0565  0.9735
  739TIP3   OH223707   4.154   2.490  14.782 -0.9176 -0.6710  0.2223
  739TIP3    H123708   4.199   2.407  14.800  0.2997  0.0853  0.7617
  739TIP3    H223709   4.200   2.526  14.706  0.2098  0.6690  1.4922
  740TIP3   OH223710   2.308   1.733   2.169  0.6920  0.4455  0.4834
  740TIP3    H123711   2.230   1.776   2.135 -0.2912 -0.9594  0.8872
  740TIP3    H223712   2.353   1.700   2.091 -0.6420 -1.2270  0.3465
  741TIP3   OH223713   0.394   6.351  17.267 -0.5041 -0.4783  0.1482
  741TIP3    H123714   0.489   6.352  17.277 -0.5409 -1.4422  0.7542
  741TIP3    H223715   0.369   6.262  17.290 -1.5678 -0.2112  0.0675
  742TIP3   OH223716   4.030   4.674   1.664 -0.1178  0.1024 -0.0114
  742TIP3    H123717   4.070   4.758   1.684 -0.9480  0.4272  0.3430
  742TIP3    H223718   4.006   4.680   1.571 -1.4982  0.8473  0.3612
  743TIP3   OH223719   0.576   2.838  11.367 -1.0076  0.1511 -0.3660
  743TIP3    H123720   0.488   2.821  11.400 -1.1186  1.2000 -0.0630
  743TIP3    H223721   0.578   2.795  11.282 -2.4158  1.4963 -1.1449
  744TIP3   OH223722   0.749   6.258   1.437 -0.6013 -0.4796  0.0307
  744TIP3    H123723   0.663   6.270   1.478 -0.2757 -0.4740  0.7440
  744TIP3    H223724   0.811   6.273   1.509 -0.0364 -1.4701 -0.2366
  745TIP3   OH223725   6.756   5.703   3.202 -0.4774  0.4787 -0.2743
  745TIP3    H123726   6.802   5.737   3.125  0.0389  0.3656 -0.0233
  745TIP3    H223727   6.826   5.679   3.262 -0.8698  0.1470  0.0525
  746TIP3   OH223728   3.081   1.158  13.462 -0.2107  0.5886  0.3134
  746TIP3    H123729   3.119   1.072  13.479 -0.9549 -0.1750 -1.6657
  746TIP3    H223730   3.123   1.187  13.381 -3.3769 -0.0919 -1.7211
  747TIP3   OH223731   3.570   1.673  12.677  0.3521  0.0847  0.0683
  747TIP3    H123732   3.487   1.708  12.710  0.9118  1.7849 -0.2513
  747TIP3    H223733   3.589   1.725  12.599  0.8000 -1.5513 -0.9644
  748TIP3   OH223734   0.271   6.330  14.379  0.0731  0.0814  0.5491
  748TIP3    H123735   0.361   6.298  14.371 -0.1371 -0.5592  0.7498
  748TIP3    H223736   0.277   6.401  14.444  0.3760 -0.1843  0.8153
  749TIP3   OH223737   1.312   5.796   4.107  0.7438  0.4344  0.2330
  749TIP3    H123738   1.360   5.768   4.029 -0.5740  1.0182 -0.8268
  749TIP3    H223739   1.375   5.847   4.158  1.5611  0.2362 -0.5706
  750TIP3   OH223740   4.305   2.582  16.382 -0.7866 -0.1587  0.5333
  750TIP3    H123741   4.334   2.540  16.301 -1.0569 -2.1325  1.4020
  750TIP3    H223742   4.365   2.656  16.394 -1.1551  0.5659 -1.7780
  751TIP3   OH223743   6.121   5.403   4.436 -0.3869 -0.4790 -0.1555
  751TIP3    H123744   6.041   5.351   4.448 -1.6726  1.2431 -0.8452
  751TIP3    H223745   6.089   5.490   4.414  1.7082  0.5185  0.5724
  752TIP3   OH223746   6.468   6.284   5.678  0.6734  0.8026 -0.5656
  752TIP3    H123747   6.392   6.340   5.693  0.1036 -0.3397  1.0718
  752TIP3    H223748   6.514   6.325   5.604 -1.6801  1.3481 -1.8108
  753TIP3   OH223749   3.920   4.943  13.093 -0.2055 -0.4461  0.0947
  753TIP3    H123750   3.873   5.026  13.091 -1.1811 -1.0014 -1.0733
  753TIP3    H223751   3.932   4.925  13.187  1.9794  2.0194  0.4252
  754TIP3   OH223752   3.658   3.524  16.821 -0.2279  0.1047  0.4017
  754TIP3    H123753   3.741   3.484  16.797 -1.0481 -0.3855 -1.7817
  754TIP3    H223754   3.678   3.574  16.901  1.7670 -1.2391  0.8098
  755TIP3   OH223755   3.849   1.836  10.763 -0.4543  0.6216  0.1944
  755TIP3    H123756   3.794   1.892  10.708 -1.1780 -0.8754 -0.6486
  755TIP3    H223757   3.804   1.835  10.848  0.0737  2.0331  0.5262
  756TIP3   OH223758   1.008   4.775   0.220 -0.1857  0.4742  0.0742
  756TIP3    H123759   0.917   4.778   0.248  0.3600 -0.5824  2.2514
  756TIP3    H223760   1.057   4.756   0.301  1.5278 -3.6526 -1.6364
  757TIP3   OH223761   1.304   3.084   3.233  0.5184  0.2435 -0.4044
  757TIP3    H123762   1.227   3.093   3.178  1.2751 -0.1043 -1.5452
  757TIP3    H223763   1.272   3.103   3.322 -1.1953 -1.3807 -0.6226
  758TIP3   OH223764   1.925   4.882   4.612  0.2515 -0.1542  0.4803
  758TIP3    H123765   2.018   4.862   4.612  0.0065 -1.4173  0.0093
  758TIP3    H223766   1.885   4.814   4.666 -0.6458 -1.1590 -1.3425
  759TIP3   OH223767   3.655   1.849   0.497 -0.8268  0.5514  0.1202
  759TIP3    H123768   3.655   1.756   0.521  1.1498  0.6403  0.6263
  759TIP3    H223769   3.691   1.850   0.408 -0.7774  0.8271  0.1420
  760TIP3   OH223770   0.888   4.920  16.143 -0.0195  0.6098 -0.0739
  760TIP3    H123771   0.847   4.833  16.140  0.6290  0.2955 -0.1927
  760TIP3    H223772   0.823   4.979  16.106 -0.2407  0.0708 -0.5618
  761TIP3   OH223773   2.027   4.531  16.976  0.3533 -0.2643  0.3444
  761TIP3    H123774   2.022   4.446  16.933 -0.2045 -1.9167  3.4024
  761TIP3    H223775   2.121   4.553  16.974  1.0816 -2.7094  2.4564
  762TIP3   OH223776   2.860   3.792  16.501 -0.1558  0.0681  0.2222
  762TIP3    H123777   2.811   3.862  16.459  0.4852 -0.1883 -1.0171
  762TIP3    H223778   2.807   3.713  16.486 -0.5683  0.1691  1.0706
  763TIP3   OH223779   4.833   0.391   2.704  0.1159 -0.2137 -0.4069
  763TIP3    H123780   4.925   0.390   2.678  0.0236  0.8383 -0.8121
  763TIP3    H223781   4.821   0.309   2.753  0.9303 -0.9886 -1.4609
  764TIP3   OH223782   2.717   4.410  15.451  0.0787  0.0970  0.5412
  764TIP3    H123783   2.758   4.393  15.367 -0.6417  0.2365  0.1503
  764TIP3    H223784   2.711   4.324  15.493 -2.2575 -0.4941 -0.8226
  765TIP3   OH223785   0.673   2.158   4.118  0.4137 -0.4199  0.3452
  765TIP3    H123786   0.601   2.144   4.056  0.6878 -1.4235  0.2464
  765TIP3    H223787   0.668   2.083   4.177  1.8471 -0.8981 -0.1157
  766TIP3   OH223788   3.002   4.317   1.943  0.0874  0.1952  0.9588
  766TIP3    H123789   3.078   4.321   1.886 -0.5344 -1.2115 -0.0323
  766TIP3    H223790   3.005   4.398   1.994  2.2876  0.1223  1.0212
  767TIP3   OH223791   1.088   1.345   3.501 -0.4367  0.2805  0.3905
  767TIP3    H123792   1.035   1.401   3.444 -1.9076 -0.4050  1.0352
  767TIP3    H223793   1.113   1.401   3.574  1.8313  1.2951 -1.0463
  768TIP3   OH223794   3.261   2.147  13.654 -0.1325 -0.3428  0.0856
  768TIP3    H123795   3.179   2.195  13.639 -0.4524 -1.1963 -1.0879
  768TIP3    H223796   3.242   2.091  13.729  0.1064  1.0051  1.1961
  769TIP3   OH223797   0.670   1.923   0.769  0.0747  0.3570  0.0492
  769TIP3    H123798   0.584   1.883   0.765  0.3617 -0.1811 -1.2443
  769TIP3    H223799   0.655   2.015   0.746 -0.3177  0.5886  1.1551
  770TIP3   OH223800   3.162   5.424  11.918  0.0001  0.0126 -0.3144
  770TIP3    H123801   3.236   5.408  11.859  0.5022  1.7002 -0.1926
  770TIP3    H223802   3.177   5.512  11.952 -2.0689  0.3953 -0.2720
  771TIP3   OH223803   0.416   0.045   0.462 -0.5518 -0.2247  0.1805
  771TIP3    H123804   0.472  -0.004   0.403 -1.5615  0.2574 -1.2505
  771TIP3    H223805   0.473   0.071   0.534  0.7762 -0.6815 -0.6712
  772TIP3   OH223806   6.183   0.387   1.634 -0.1980 -0.1321  0.1021
  772TIP3    H123807   6.089   0.402   1.626  0.0859  1.5146 -0.5465
  772TIP3    H223808   6.219   0.417   1.551  0.7066 -2.9263 -0.6383
  773TIP3   OH223809   3.890   6.043   4.243  0.6903 -0.0002 -0.3502
  773TIP3    H123810   3.924   6.054   4.154 -0.0947  0.0406 -0.6505
  773TIP3    H223811   3.863   5.951   4.247  0.8256 -0.0316 -0.1113
  774TIP3   OH223812   5.688   0.458   0.819  0.1975 -0.8874 -0.2279
  774TIP3    H123813   5.775   0.478   0.785 -0.2841 -1.2402 -1.7722
  774TIP3    H223814   5.643   0.416   0.745 -0.7037 -2.3143  1.0806
  775TIP3   OH223815   4.725   6.317  13.822 -0.3182  0.2763  0.0908
  775TIP3    H123816   4.752   6.408  13.830 -0.8444  0.5879 -1.3956
  775TIP3    H223817   4.631   6.317  13.839 -0.2943 -0.0259  0.2473
  776TIP3   OH223818   5.980   4.585   0.074  0.8057  0.4441 -0.3885
  776TIP3    H123819   6.055   4.594   0.015  2.0951  0.4958  1.1584
  776TIP3    H223820   5.990   4.499   0.113 -0.6040 -0.0060 -0.9593
  777TIP3   OH223821   3.001   0.281   1.747  0.1737  0.0916  0.3024
  777TIP3    H123822   2.970   0.371   1.745  2.4374  0.9685  1.3217
  777TIP3    H223823   2.943   0.237   1.810 -0.5171  0.9960  0.3134
  778TIP3   OH223824   3.153   4.686   6.183 -0.3847 -0.3629  0.3047
  778TIP3    H123825   3.155   4.745   6.259 -3.3357 -0.1639  0.3390
  778TIP3    H223826   3.200   4.608   6.213 -0.4308  0.1809  1.9226
  779TIP3   OH223827   1.223   2.196  16.407 -0.2077  0.2170 -0.0698
  779TIP3    H123828   1.308   2.158  16.430 -0.3730  0.2484  0.6276
  779TIP3    H223829   1.162   2.156  16.470 -0.5214  1.0218  0.1392
  780TIP3   OH223830   6.364   0.970   2.969  1.0783  0.0984 -0.3765
  780TIP3    H123831   6.308   0.907   3.014  1.2880  0.1926  0.0220
  780TIP3    H223832   6.322   0.983   2.884  1.1173 -0.6910 -0.5221
  781TIP3   OH223833   4.162   2.649  12.799 -0.1152  0.4666  0.2780
  781TIP3    H123834   4.252   2.682  12.789  0.0539  0.7716  2.3610
  781TIP3    H223835   4.135   2.681  12.885 -1.5906 -1.1067  0.4390
  782TIP3   OH223836   1.195   1.734  12.018 -0.0176 -0.3137  0.4871
  782TIP3    H123837   1.144   1.807  11.982  0.6029 -0.0485  0.1367
  782TIP3    H223838   1.267   1.776  12.065 -0.4605 -0.6683  1.5318
  783TIP3   OH223839   0.961   6.417  13.426 -0.2024  0.0295 -0.4566
  783TIP3    H123840   0.962   6.513  13.433 -0.1369  0.0188 -0.3280
  783TIP3    H223841   1.053   6.392  13.427 -0.2311 -0.0667 -0.0795
  784TIP3   OH223842   2.894   3.119   6.178 -0.4466  0.5334  0.5867
  784TIP3    H123843   2.893   3.177   6.255  0.4994  1.2979  0.0560
  784TIP3    H223844   2.907   3.032   6.214 -0.7497  0.7906  1.3412
  785TIP3   OH223845   0.375   6.280  15.494 -0.3379 -0.2240  0.0749
  785TIP3    H123846   0.451   6.335  15.511  1.2575 -2.2261 -0.2144
  785TIP3    H223847   0.378   6.213  15.562 -0.3963 -1.7501 -1.3529
  786TIP3   OH223848   1.831   2.018  16.315  0.7056 -0.0611  0.2941
  786TIP3    H123849   1.862   1.968  16.239 -0.9134  1.7595 -1.7004
  786TIP3    H223850   1.792   1.952  16.372 -0.2940 -1.2812 -1.6703
  787TIP3   OH223851   5.398   5.411   4.885  0.6170  0.2169 -0.2905
  787TIP3    H123852   5.450   5.472   4.832  2.6621 -1.1716  0.0114
  787TIP3    H223853   5.463   5.356   4.928 -0.8192  1.4795  4.0292
  788TIP3   OH223854   3.268   5.228  15.239  0.3461 -0.0590  0.1072
  788TIP3    H123855   3.332   5.195  15.177  1.2523  2.2398 -0.2838
  788TIP3    H223856   3.311   5.220  15.324  0.1488 -0.7895  0.1441
  789TIP3   OH223857   5.631   1.950  12.779  0.2330 -0.8276 -0.0722
  789TIP3    H123858   5.678   1.985  12.855  0.7602  0.1909 -0.8426
  789TIP3    H223859   5.541   1.939  12.808  0.5246 -0.8984  0.8297
  790TIP3   OH223860   1.335   5.415  16.982 -0.3229  0.3857  0.6493
  790TIP3    H123861   1.392   5.416  17.058  0.9931 -0.3885 -0.2901
  790TIP3    H223862   1.337   5.325  16.951 -0.7916  0.6925 -0.3211
  791TIP3   OH223863   3.530   3.991   1.949  0.4689 -0.1118  0.2116
  791TIP3    H123864   3.507   3.941   2.027 -0.8935  0.7728  0.4116
  791TIP3    H223865   3.505   4.081   1.969 -1.4607 -0.1128 -1.7850
  792TIP3   OH223866   5.497   4.970   2.019  0.0257 -0.2172  0.2349
  792TIP3    H123867   5.417   5.010   2.054  0.8310  1.2322  0.5353
  792TIP3    H223868   5.545   5.044   1.982  0.7458 -1.2295 -0.9195
  793TIP3   OH223869   1.095   5.288   4.263 -0.7835 -0.0313  0.0823
  793TIP3    H123870   1.113   5.376   4.228 -1.7132  0.9890  2.0049
  793TIP3    H223871   1.009   5.266   4.229  0.2431 -1.1403 -2.0225
  794TIP3   OH223872   4.069   4.142   4.461 -0.5724 -0.1470 -0.4301
  794TIP3    H123873   4.148   4.109   4.419 -0.2748 -0.3396  0.2704
  794TIP3    H223874   4.099   4.178   4.544 -0.8616  1.9935 -1.1810
  795TIP3   OH223875   0.956   2.848   6.481  0.3902 -0.1158  0.2767
  795TIP3    H123876   0.971   2.808   6.396  0.7610 -1.7594  1.0746
  795TIP3    H223877   1.038   2.835   6.529 -0.6609 -1.6865  1.7971
  796TIP3   OH223878   6.777   1.111  11.923  0.2207  0.1488  0.4236
  796TIP3    H123879   6.766   1.193  11.874 -1.4865  0.3700  1.0915
  796TIP3    H223880   6.696   1.103  11.973  0.1898 -2.1788  0.0765
  797TIP3   OH223881   0.740   1.051   2.236  0.1254 -0.4508 -0.3042
  797TIP3    H123882   0.691   1.053   2.318 -1.1603 -3.1198 -0.8915
  797TIP3    H223883   0.807   0.984   2.251 -0.0705 -0.8990 -1.3874
  798TIP3   OH223884   3.268   3.817  14.547 -0.1164 -0.0006 -0.3285
  798TIP3    H123885   3.209   3.867  14.490 -2.1009  0.5374  2.0051
  798TIP3    H223886   3.289   3.878  14.618  1.1273 -1.0618  0.2484
  799TIP3   OH223887   5.371   6.653  13.429  0.1547 -0.1647 -0.0217
  799TIP3    H123888   5.410   6.593  13.492  1.4689  2.1439  1.5359
  799TIP3    H223889   5.439   6.665  13.363  1.0804  1.6755  1.1810
  800TIP3   OH223890   0.226   6.179  16.879  0.0987  0.3656 -0.2971
  800TIP3    H123891   0.155   6.194  16.942 -0.4940  0.3596 -0.9488
  800TIP3    H223892   0.225   6.084  16.865  0.5549  0.3044  0.0426
  801TIP3   OH223893   6.308   1.437  13.328  0.6928  0.1011  0.1937
  801TIP3    H123894   6.308   1.382  13.407 -0.0444  0.0244  0.1422
  801TIP3    H223895   6.217   1.442  13.302  1.0390 -0.7575 -1.2823
  802TIP3   OH223896   1.980   1.882   0.882 -0.1751 -0.1859 -0.5018
  802TIP3    H123897   1.980   1.905   0.789 -0.2153  1.2876 -0.1585
  802TIP3    H223898   1.888   1.888   0.908 -0.0864 -0.0058 -0.2287
  803TIP3   OH223899   0.162   2.614  11.831 -0.0720  0.1638  0.0104
  803TIP3    H123900   0.243   2.619  11.782 -1.2435  0.3972 -2.0102
  803TIP3    H223901   0.189   2.611  11.923  2.2397 -1.5362 -0.6601
  804TIP3   OH223902   2.590   1.503  16.114  0.1125  0.1103 -0.0776
  804TIP3    H123903   2.678   1.494  16.151  0.5634  0.6580 -0.9649
  804TIP3    H223904   2.605   1.529  16.023 -0.9678 -0.2513 -0.3814
  805TIP3   OH223905   4.872   4.374  15.753  0.2003 -0.1573 -0.1086
  805TIP3    H123906   4.803   4.321  15.792 -1.4369  1.7182 -0.3321
  805TIP3    H223907   4.858   4.365  15.658  1.4987 -1.2770 -0.2288
  806TIP3   OH223908   4.446   6.198  12.683  0.7192 -0.2946 -0.2037
  806TIP3    H123909   4.407   6.265  12.740  2.6776  0.4949  0.2953
  806TIP3    H223910   4.379   6.179  12.618 -0.2095  1.5279  0.1677
  807TIP3   OH223911   5.241   5.810  14.801 -0.1993  0.6456 -0.6692
  807TIP3    H123912   5.282   5.766  14.876  1.1075  0.5366 -1.4135
  807TIP3    H223913   5.180   5.745  14.766  0.3975  0.0816 -0.6823
  808TIP3   OH223914   1.359   0.390   0.262 -0.8445 -0.2021  0.6189
  808TIP3    H123915   1.407   0.307   0.256 -1.3649 -0.7469  2.9826
  808TIP3    H223916   1.424   0.452   0.297 -0.8845 -0.0034  0.3450
  809TIP3   OH223917   2.106   5.277   6.322  0.1445 -0.3144  0.0171
  809TIP3    H123918   2.057   5.359   6.321  0.8959  0.1458 -1.2490
  809TIP3    H223919   2.048   5.215   6.367 -0.6741  0.7504  0.4719
  810TIP3   OH223920   2.452   6.392  14.963 -0.0831 -0.4670  0.0912
  810TIP3    H123921   2.491   6.480  14.960 -1.6858  0.3245  1.0089
  810TIP3    H223922   2.499   6.349  15.035 -1.2244  0.7016  1.6291
  811TIP3   OH223923   1.077   2.326  16.218  0.1949 -0.5366 -0.1099
  811TIP3    H123924   1.116   2.274  16.288  0.0647 -1.6356 -0.8273
  811TIP3    H223925   1.018   2.265  16.174  0.1661  0.1820 -1.0858
  812TIP3   OH223926   5.634   2.282  11.601  0.0269 -0.5425 -0.0341
  812TIP3    H123927   5.669   2.310  11.686  0.7044  0.3805 -0.5979
  812TIP3    H223928   5.577   2.208  11.622  2.3769 -2.2076  0.9257
  813TIP3   OH223929   4.721   1.175  11.354 -0.0464 -0.4933 -0.2404
  813TIP3    H123930   4.657   1.107  11.332  0.9705 -1.5339 -0.1083
  813TIP3    H223931   4.714   1.185  11.448  2.2078 -3.0526  0.3349
  814TIP3   OH223932   1.323   1.171   2.838 -0.0595 -0.3415 -0.2020
  814TIP3    H123933   1.362   1.248   2.796  0.2300 -1.6367 -2.4659
  814TIP3    H223934   1.383   1.099   2.817 -1.3381 -1.5478  0.1342
  815TIP3   OH223935   5.847   2.380  15.931 -0.7019 -0.3539 -0.0850
  815TIP3    H123936   5.769   2.345  15.974 -1.7815  1.5930 -0.3588
  815TIP3    H223937   5.866   2.462  15.977  0.6325 -0.3160 -0.6449
  816TIP3   OH223938   0.071   5.746  14.773 -0.5447  0.3052  0.6582
  816TIP3    H123939   0.158   5.785  14.773  0.2361 -1.3521 -0.2053
  816TIP3    H223940   0.022   5.797  14.837  0.5914  2.2612  0.0612
  817TIP3   OH223941   0.425   5.861   2.339  0.4985  0.4957 -0.5988
  817TIP3    H123942   0.347   5.862   2.284  0.4711  0.3253 -0.5635
  817TIP3    H223943   0.454   5.952   2.341 -0.8931  0.9563  1.0894
  818TIP3   OH223944   4.645   6.631   4.058 -0.5282 -0.1818 -0.2436
  818TIP3    H123945   4.647   6.559   3.995  0.6470  0.2934 -0.7770
  818TIP3    H223946   4.649   6.710   4.004 -1.2069  0.2780  0.3619
  819TIP3   OH223947   2.935   4.021   4.278  0.1319  0.3715 -0.8222
  819TIP3    H123948   2.938   3.929   4.307  0.4301  0.6266 -0.0302
  819TIP3    H223949   3.020   4.036   4.239  0.2238  0.4167 -0.6080
  820TIP3   OH223950   1.776   0.467  13.709 -0.0535 -0.0735 -0.0969
  820TIP3    H123951   1.755   0.502  13.622  1.4239 -1.0786 -0.9085
  820TIP3    H223952   1.821   0.538  13.754  0.0255  0.1406 -0.5114
  821TIP3   OH223953   1.683   3.320   5.543 -0.5595  0.6001 -0.1268
  821TIP3    H123954   1.732   3.260   5.599  0.6465  1.6805  0.0165
  821TIP3    H223955   1.592   3.292   5.553 -0.2946  0.2573  1.7508
  822TIP3   OH223956   3.611   1.681   2.720  0.5173  0.6683 -0.3828
  822TIP3    H123957   3.575   1.665   2.807  1.5063 -0.9903 -0.2278
  822TIP3    H223958   3.585   1.771   2.698 -0.9147  0.6286  1.0298
  823TIP3   OH223959   2.401   1.875   4.251  0.1368 -0.3243 -0.2046
  823TIP3    H123960   2.357   1.821   4.317 -0.2238 -0.7575 -0.7893
  823TIP3    H223961   2.441   1.946   4.301  0.9678 -1.3390  0.6372
  824TIP3   OH223962   1.775   5.935   2.912 -0.3789  0.0686 -0.3260
  824TIP3    H123963   1.743   5.904   2.997  2.5152 -0.7951  0.5415
  824TIP3    H223964   1.753   5.864   2.852  1.6894 -1.5437  0.6882
  825TIP3   OH223965   0.030   1.057  12.360 -0.2978 -0.1991  0.1627
  825TIP3    H123966   0.062   1.101  12.281 -2.0707  1.0046  0.0641
  825TIP3    H223967  -0.031   0.990  12.328  1.1159 -1.6896  0.4102
  826TIP3   OH223968   6.330   2.717  16.056 -0.3075  0.7597 -0.4710
  826TIP3    H123969   6.412   2.698  16.101  0.2941  2.0623 -0.9714
  826TIP3    H223970   6.274   2.756  16.123 -0.5018 -0.0717 -0.1438
  827TIP3   OH223971   2.289   3.485  12.494  0.4195 -0.2771 -0.2130
  827TIP3    H123972   2.318   3.530  12.573  3.6005 -3.1870  0.5399
  827TIP3    H223973   2.219   3.540  12.459  0.6342  2.4988  3.1661
  828TIP3   OH223974   2.819   0.933  13.760  0.2706  0.0743 -0.2207
  828TIP3    H123975   2.829   1.014  13.710 -0.0193  0.2073 -0.0650
  828TIP3    H223976   2.747   0.887  13.716 -0.9595  0.8382  0.9100
  829TIP3   OH223977   6.298   6.638  15.992 -0.1904 -0.3119 -0.5290
  829TIP3    H123978   6.286   6.733  15.996  0.8623 -0.2091  0.8550
  829TIP3    H223979   6.313   6.619  15.899 -2.9554  0.4964 -1.2432
  830TIP3   OH223980   0.033   5.161  13.875 -0.6421  0.3940  0.7833
  830TIP3    H123981   0.031   5.074  13.835  0.2011 -1.2795  3.9808
  830TIP3    H223982   0.126   5.182  13.881 -0.5380 -0.3317  3.3201
  831TIP3   OH223983   1.313   2.508   4.296  0.2305 -0.3475 -0.2807
  831TIP3    H123984   1.286   2.422   4.263 -0.6745 -0.2954  0.2980
  831TIP3    H223985   1.367   2.488   4.373 -0.9721 -0.3876  0.5740
  832TIP3   OH223986   5.577   0.221  11.659  0.1684  0.4509 -0.5374
  832TIP3    H123987   5.602   0.268  11.739 -0.8077 -0.5649  0.3939
  832TIP3    H223988   5.483   0.210  11.666  0.0782  0.3090 -1.8257
  833TIP3   OH223989   5.326   5.736  12.270  0.0918 -0.7511 -0.4176
  833TIP3    H123990   5.316   5.755  12.363 -2.8236 -0.4821 -0.6890
  833TIP3    H223991   5.237   5.727  12.237  0.8115  2.2312 -3.8345
  834TIP3   OH223992   4.932   6.774  14.855  0.6133  0.1702  0.2380
  834TIP3    H123993   4.997   6.705  14.841  0.0645 -0.4094  0.4665
  834TIP3    H223994   4.875   6.739  14.924 -1.4832 -0.5072 -1.6919
  835TIP3   OH223995   0.950   4.794   4.182  0.2708  0.4608 -0.1354
  835TIP3    H123996   0.949   4.743   4.102 -1.2091  1.6335 -0.9123
  835TIP3    H223997   1.037   4.778   4.220  0.5009 -1.1575 -1.2595
  836TIP3   OH223998   1.623   1.949  12.758 -0.5209  0.2713 -0.4767
  836TIP3    H123999   1.656   1.866  12.723  0.1849  0.5643 -0.5055
  836TIP3    H224000   1.629   1.939  12.853  0.2917  0.5804 -0.4922
  837TIP3   OH224001   4.024   5.935  13.480 -0.2176  0.4852 -0.4338
  837TIP3    H124002   4.092   5.900  13.422 -1.2727 -0.4040 -1.1776
  837TIP3    H224003   4.072   5.974  13.553  1.1136 -2.4421  0.4271
  838TIP3   OH224004   2.696   5.932   6.316 -0.1531  0.4737 -0.2788
  838TIP3    H124005   2.705   6.028   6.314 -2.6740  0.7846 -0.4043
  838TIP3    H224006   2.721   5.908   6.405  0.9135  1.1853 -0.3692
  839TIP3   OH224007   0.117   6.758  14.818  0.3175  0.2181  0.2357
  839TIP3    H124008   0.213   6.764  14.815  0.3542 -0.4442  0.0641
  839TIP3    H224009   0.099   6.686  14.878 -0.0354 -0.7076 -0.9364
  840TIP3   OH224010   3.666   5.901   0.674  0.3256  0.1356  0.4111
  840TIP3    H124011   3.714   5.868   0.750 -1.3759 -2.2494  0.5309
  840TIP3    H224012   3.620   5.979   0.706 -0.8920 -1.1980  2.0677
  841TIP3   OH224013   2.354   5.386   5.159  0.2660  0.0085  0.0431
  841TIP3    H124014   2.416   5.320   5.190  0.5955 -0.6441 -1.8910
  841TIP3    H224015   2.406   5.445   5.105 -0.4703  0.5352 -0.1162
  842TIP3   OH224016   2.929   4.349  12.872  0.2958 -0.3810  0.2713
  842TIP3    H124017   2.949   4.279  12.934  0.5266 -1.8290 -1.3672
  842TIP3    H224018   2.898   4.304  12.794  0.5063  1.3538 -0.8703
  843TIP3   OH224019   2.550   4.149  16.496  0.6117 -0.1996 -0.1811
  843TIP3    H124020   2.575   4.237  16.521  1.7425 -0.5249 -0.1510
  843TIP3    H224021   2.630   4.108  16.465  0.8008 -2.2008  2.5847
  844TIP3   OH224022   6.016   2.033   2.604 -0.0457  0.2062  0.3191
  844TIP3    H124023   6.011   1.939   2.621  1.1420 -0.2961 -1.7477
  844TIP3    H224024   6.109   2.055   2.618 -0.3649  1.1774  1.0909
  845TIP3   OH224025   2.367   2.586   0.198  0.3893  0.2034 -0.7533
  845TIP3    H124026   2.295   2.606   0.139  0.5293  0.0090 -0.9953
  845TIP3    H224027   2.341   2.623   0.282 -0.0163  0.0896 -0.8248
  846TIP3   OH224028   2.996   4.360  16.915 -0.2065 -0.0153 -0.1400
  846TIP3    H124029   3.081   4.331  16.881 -0.3623  1.2440 -1.7375
  846TIP3    H224030   3.013   4.380  17.007  0.8916 -1.0694 -0.0840
  847TIP3   OH224031   1.699   2.680   0.493 -0.4050 -0.2573  0.1025
  847TIP3    H124032   1.672   2.725   0.574 -0.6832  0.1334 -0.1994
  847TIP3    H224033   1.617   2.668   0.445 -0.1661  0.0490 -0.3863
  848TIP3   OH224034   1.552   3.387   6.158  0.2254 -0.4837 -0.2473
  848TIP3    H124035   1.596   3.383   6.073 -0.7001  1.8539 -0.9143
  848TIP3    H224036   1.465   3.423   6.138 -0.5136 -1.1738  1.5416
  849TIP3   OH224037   5.637   0.695   0.587 -0.1235 -0.1094  0.2117
  849TIP3    H124038   5.573   0.681   0.657  0.6770  1.7314  1.3912
  849TIP3    H224039   5.588   0.683   0.506 -1.0534 -2.4128  1.0384
  850TIP3   OH224040   4.711   5.560   3.043 -0.0258 -0.2123 -0.6534
  850TIP3    H124041   4.622   5.546   3.076 -0.0197  0.1960 -0.4495
  850TIP3    H224042   4.712   5.520   2.956 -0.2377 -0.7294 -0.4203
  851TIP3   OH224043   3.031   2.986  15.461 -0.2095  0.5902 -0.3606
  851TIP3    H124044   3.014   3.058  15.521  0.0334  2.6152 -2.5707
  851TIP3    H224045   2.957   2.927  15.472 -0.8610  1.5991  0.9062
  852TIP3   OH224046   1.214   0.989   1.415  0.3683 -0.6597 -0.2198
  852TIP3    H124047   1.287   1.043   1.446  0.7273  0.0642 -2.1537
  852TIP3    H224048   1.168   0.963   1.494  2.2218 -0.4239  1.0061
  853TIP3   OH224049   6.678   0.849  12.273 -0.1695  0.6659  0.4504
  853TIP3    H124050   6.696   0.755  12.270  1.8067  1.0054  0.0075
  853TIP3    H224051   6.584   0.856  12.287 -0.2411 -1.3745  1.2164
  854TIP3   OH224052   6.809   3.742   5.024  0.3819 -1.1935 -0.5592
  854TIP3    H124053   6.772   3.665   4.981 -0.3806 -0.6696 -0.8540
  854TIP3    H224054   6.739   3.807   5.022  1.5426  0.0758 -1.7695
  855TIP3   OH224055   5.923   3.337   2.460  0.7892  0.1061 -0.0293
  855TIP3    H124056   5.965   3.256   2.433  1.0547  0.1490  0.2470
  855TIP3    H224057   5.830   3.324   2.440  0.7617 -0.4393  0.4218
  856TIP3   OH224058   2.185   5.750  14.939 -0.0723  0.2817  0.4681
  856TIP3    H124059   2.105   5.704  14.914  0.4224  0.3815 -1.4878
  856TIP3    H224060   2.185   5.829  14.886  1.7558 -0.1821 -0.2994
  857TIP3   OH224061   3.773   1.153  13.102  0.3878  0.0932  0.5852
  857TIP3    H124062   3.811   1.113  13.180  1.7623  1.1816  0.5207
  857TIP3    H224063   3.808   1.103  13.029 -0.1350 -0.3272  0.6191
  858TIP3   OH224064   5.101   1.515   3.527 -0.3817  0.3028  0.6359
  858TIP3    H124065   5.041   1.510   3.602  1.1592  0.3327  1.9172
  858TIP3    H224066   5.179   1.558   3.562  0.3326  0.4154 -1.0340
  859TIP3   OH224067   1.085   4.821  15.268  0.1637  0.4058  0.3364
  859TIP3    H124068   1.008   4.792  15.317 -0.3985  1.5403  0.1582
  859TIP3    H224069   1.154   4.827  15.334  1.1932 -4.0301 -0.0173
  860TIP3   OH224070   1.400   5.119  13.086 -0.2048  1.0576  0.2058
  860TIP3    H124071   1.453   5.072  13.150 -2.8115  0.7602  2.3126
  860TIP3    H224072   1.361   5.050  13.032 -0.0955  1.1427  0.0171
  861TIP3   OH224073   5.709   6.732   1.662  0.0493 -0.1039  0.1272
  861TIP3    H124074   5.664   6.727   1.578  0.3794 -1.9920  0.0096
  861TIP3    H224075   5.802   6.734   1.639  0.1710 -1.3886  0.4228
  862TIP3   OH224076   4.142   4.583   1.033  0.2560 -0.3232  1.1373
  862TIP3    H124077   4.133   4.499   0.987 -0.3072  0.4160 -0.1591
  862TIP3    H224078   4.078   4.578   1.105 -2.4973  0.3350 -1.0774
  863TIP3   OH224079   1.126   2.242  12.066  0.0881 -0.3414 -0.5582
  863TIP3    H124080   1.219   2.225  12.049  0.5341  2.0512 -0.8125
  863TIP3    H224081   1.084   2.231  11.980  0.8158  2.3706 -1.3446
  864TIP3   OH224082   1.485   6.321   3.398  0.1687  0.0814 -0.4809
  864TIP3    H124083   1.448   6.313   3.486  1.3256 -2.0997 -0.1257
  864TIP3    H224084   1.455   6.243   3.352  2.4686 -0.6480 -0.8563
  865TIP3   OH224085   2.875   2.605  12.284 -0.4442 -0.3262 -0.2765
  865TIP3    H124086   2.930   2.536  12.319 -1.6833 -1.5291 -0.6156
  865TIP3    H224087   2.908   2.685  12.325  1.4500 -1.0055 -0.3985
  866TIP3   OH224088   5.710   1.401  16.894 -0.0998  0.0884 -0.0206
  866TIP3    H124089   5.687   1.337  16.961  0.2443 -0.2782 -0.2465
  866TIP3    H224090   5.806   1.399  16.891 -0.0169  1.5235  0.8460
  867TIP3   OH224091   2.385   6.249   2.926  0.0996 -0.1016 -0.3506
  867TIP3    H124092   2.366   6.335   2.963  1.6410  0.0708  0.1401
  867TIP3    H224093   2.355   6.254   2.835  0.9950  1.3034 -0.6004
  868TIP3   OH224094   4.921   4.747  15.640  0.1331 -0.2650  0.6460
  868TIP3    H124095   4.913   4.747  15.736  1.6384  1.2231  0.8359
  868TIP3    H224096   4.951   4.836  15.620  0.2837 -0.7051 -1.1753
  869TIP3   OH224097   1.091   6.419  11.221 -0.4881 -0.2076  0.0261
  869TIP3    H124098   1.057   6.339  11.261 -0.4273 -0.6093 -0.7051
  869TIP3    H224099   1.148   6.388  11.150 -1.9821  0.4742 -1.5453
  870TIP3   OH224100   5.443   3.101  17.049  0.3061  0.3308  0.2891
  870TIP3    H124101   5.348   3.110  17.052  0.3667  0.7618  1.3687
  870TIP3    H224102   5.464   3.044  17.123  0.8200 -0.5645 -0.5191
  871TIP3   OH224103   5.736   2.469  12.173 -0.0003 -0.9688  0.1371
  871TIP3    H124104   5.644   2.490  12.157 -0.7023  1.2444  5.0970
  871TIP3    H224105   5.733   2.395  12.234  1.5756 -1.1609  0.0286
  872TIP3   OH224106   4.666   2.004   1.494 -0.7923  0.5855 -0.3357
  872TIP3    H124107   4.681   2.081   1.549 -0.1351 -0.0404  0.3854
  872TIP3    H224108   4.696   1.930   1.547 -0.3331 -0.0574 -1.4460
  873TIP3   OH224109   2.999   1.827  12.185 -0.5011 -0.0494 -0.2552
  873TIP3    H124110   3.090   1.854  12.171  0.1897 -1.3218  1.3473
  873TIP3    H224111   2.980   1.766  12.114 -0.2819  0.5766 -0.8630
  874TIP3   OH224112   0.518   3.121   1.566  0.3408 -0.5375 -0.0085
  874TIP3    H124113   0.526   3.149   1.657  2.3057 -0.9789  0.0001
  874TIP3    H224114   0.479   3.034   1.571  0.3700 -0.5295  0.4060
  875TIP3   OH224115   2.181   6.305  11.825 -0.4660  0.4706  0.0191
  875TIP3    H124116   2.184   6.386  11.774 -3.7612  1.5157  1.1955
  875TIP3    H224117   2.201   6.236  11.762  0.8821  2.0598 -1.3839
  876TIP3   OH224118   2.165   6.160  16.067 -0.0313  0.3849  0.5149
  876TIP3    H124119   2.202   6.182  15.982 -2.5429 -1.9945 -1.3798
  876TIP3    H224120   2.204   6.076  16.090  0.2015  0.7374  1.4566
  877TIP3   OH224121   6.183   5.517   1.594  0.1085  0.6571 -0.2256
  877TIP3    H124122   6.169   5.587   1.529 -0.2763 -0.0454 -0.9160
  877TIP3    H224123   6.155   5.437   1.549  0.5614  0.0539  0.5481
  878TIP3   OH224124   3.265   6.430   0.459  0.4400 -0.2814 -0.5102
  878TIP3    H124125   3.333   6.482   0.415  1.2482 -0.8684  0.0188
  878TIP3    H224126   3.278   6.341   0.427 -0.8845 -0.2073 -1.3414
  879TIP3   OH224127   5.416   1.296   3.260  0.5390 -0.0176  0.0876
  879TIP3    H124128   5.369   1.307   3.342  1.2820 -1.5056  0.7458
  879TIP3    H224129   5.483   1.231   3.279  0.1470 -1.0910 -1.9214
  880TIP3   OH224130   6.119   2.432   1.635  0.7379 -0.0757  0.8322
  880TIP3    H124131   6.034   2.405   1.599  1.0049  0.1972 -0.0321
  880TIP3    H224132   6.104   2.520   1.669  0.5977 -0.1442  0.9454
  881TIP3   OH224133   6.478   4.113  17.038 -0.3036 -0.0609 -0.0578
  881TIP3    H124134   6.467   4.019  17.052  1.0803 -0.1990  0.2702
  881TIP3    H224135   6.501   4.121  16.945 -1.0852  0.0346 -0.2513
  882TIP3   OH224136   2.815   4.404  15.834  0.3234 -0.7061  0.3604
  882TIP3    H124137   2.816   4.492  15.795 -2.8405 -0.7732 -0.1941
  882TIP3    H224138   2.837   4.419  15.926 -1.0416  0.8958  0.4926
  883TIP3   OH224139   2.677   2.787  12.158 -0.0666  0.0858 -0.6005
  883TIP3    H124140   2.644   2.832  12.236 -0.8804 -0.0023 -0.8919
  883TIP3    H224141   2.761   2.750  12.186 -1.1858 -1.5216  0.7770
  884TIP3   OH224142   5.852   4.545   2.997 -0.1106 -0.3436 -0.0220
  884TIP3    H124143   5.804   4.623   2.972 -0.6001 -0.6825 -0.1529
  884TIP3    H224144   5.786   4.486   3.033  0.3479 -0.4503  0.6762
  885TIP3   OH224145   3.845   5.076   2.853 -0.6995  0.2486 -0.1462
  885TIP3    H124146   3.825   4.985   2.833 -2.7951  0.4512  0.7475
  885TIP3    H224147   3.883   5.074   2.941 -0.0037  0.1769 -0.4445
  886TIP3   OH224148   6.594   4.426   1.134  0.1811 -0.0555  0.1846
  886TIP3    H124149   6.601   4.332   1.117 -0.5838 -0.1854  0.5408
  886TIP3    H224150   6.672   4.448   1.184 -0.0317 -0.6654  0.7999
  887TIP3   OH224151   3.651   1.893   5.407  0.2697  0.5327 -0.6425
  887TIP3    H124152   3.578   1.940   5.367  0.2133  1.7975  0.8618
  887TIP3    H224153   3.670   1.941   5.487  0.1603 -2.0493  1.0497
  888TIP3   OH224154   1.421   0.932  12.678  0.1202  0.6907 -0.2410
  888TIP3    H124155   1.438   0.925  12.772  0.6623  3.2995 -0.0488
  888TIP3    H224156   1.507   0.939  12.639 -0.1354  0.6374 -0.8216
  889TIP3   OH224157   2.394   4.032  15.571 -0.5024 -0.3713  0.1280
  889TIP3    H124158   2.344   4.007  15.493  0.0337  1.2116 -0.7633
  889TIP3    H224159   2.329   4.068  15.631 -0.8688 -1.2762  0.2897
  890TIP3   OH224160   0.937   5.198   1.176 -0.1446 -0.1131  0.3262
  890TIP3    H124161   0.937   5.165   1.266  0.0634  1.6643  1.0309
  890TIP3    H224162   1.005   5.148   1.132 -0.6143 -1.3839  1.0007
  891TIP3   OH224163   0.726   5.259   5.599  0.1234  0.6057 -0.1764
  891TIP3    H124164   0.787   5.207   5.547  0.2606 -0.7738  1.2708
  891TIP3    H224165   0.642   5.215   5.588  0.2117  0.1122  0.9397
  892TIP3   OH224166   2.332   5.534   1.354 -0.2982  0.2591  0.2218
  892TIP3    H124167   2.352   5.441   1.366 -2.9954 -0.2945  1.1673
  892TIP3    H224168   2.368   5.576   1.432  0.4483 -0.0558  0.0573
  893TIP3   OH224169   5.542   1.205  16.414  0.1832  0.2593 -0.2207
  893TIP3    H124170   5.612   1.148  16.383 -0.1814 -0.1677 -0.2748
  893TIP3    H224171   5.578   1.249  16.491  0.2548 -0.5209  0.2021
  894TIP3   OH224172   2.443   3.650   1.217  0.3737 -0.1435  0.5738
  894TIP3    H124173   2.376   3.621   1.280 -1.3348  1.5262 -0.3488
  894TIP3    H224174   2.474   3.734   1.252 -0.4777  0.7234 -0.6628
  895TIP3   OH224175   1.768   3.019   6.859  0.0051  0.9013 -0.8539
  895TIP3    H124176   1.863   3.025   6.853  0.1339 -0.7193 -0.9202
  895TIP3    H224177   1.742   3.093   6.914  1.3030  1.3323 -0.7959
  896TIP3   OH224178   4.396   1.422  12.077 -0.0541 -0.0050  0.0878
  896TIP3    H124179   4.329   1.472  12.030 -0.3607 -0.0308  0.4894
  896TIP3    H224180   4.403   1.465  12.162  1.0191  0.4840 -0.2327
  897TIP3   OH224181   0.489   3.550  14.772 -0.3324  0.5138  0.0522
  897TIP3    H124182   0.482   3.617  14.705 -0.7740 -0.0556 -0.4847
  897TIP3    H224183   0.509   3.469  14.724  2.7627  0.6601  0.8688
  898TIP3   OH224184   5.665   4.242   4.484 -0.1626  0.0391  0.3906
  898TIP3    H124185   5.604   4.174   4.511  0.3697 -0.5096  0.2303
  898TIP3    H224186   5.711   4.266   4.565 -0.3012  0.1543  0.4348
  899TIP3   OH224187   3.294   1.764   1.708  0.2804  0.0028  0.0802
  899TIP3    H124188   3.242   1.823   1.762 -0.0926 -1.1104  0.9698
  899TIP3    H224189   3.251   1.764   1.622  0.2834  0.9976  0.0738
  900TIP3   OH224190   4.030   0.312  11.763 -0.2278  0.0476 -0.1815
  900TIP3    H124191   4.032   0.262  11.844  0.7114  0.0796 -0.1701
  900TIP3    H224192   4.010   0.401  11.789 -1.2806 -0.1938 -0.1349
  901TIP3   OH224193   4.476   0.578  11.998 -0.3453  0.6172  0.4174
  901TIP3    H124194   4.446   0.629  11.922 -0.1355  0.2864  0.1103
  901TIP3    H224195   4.570   0.567  11.984 -0.0380  1.7188  1.4168
  902TIP3   OH224196   4.697   1.422  12.881 -0.0868 -0.5428  0.0063
  902TIP3    H124197   4.685   1.467  12.965  1.0166 -0.1427 -0.0338
  902TIP3    H224198   4.708   1.329  12.906 -2.5106 -0.8667  0.0755
  903TIP3   OH224199   4.847   0.882  11.040 -0.0722 -0.3364  0.2565
  903TIP3    H124200   4.810   0.809  11.089  1.2087 -1.0657  0.1795
  903TIP3    H224201   4.795   0.887  10.960  1.7721 -3.2814 -1.2766
  904TIP3   OH224202   4.994   0.263   1.466 -1.0324 -0.1537  0.0181
  904TIP3    H124203   4.909   0.255   1.422  0.3685 -0.4741 -2.8114
  904TIP3    H224204   5.051   0.201   1.421  1.7738  2.8544 -0.9962
  905TIP3   OH224205   0.601   1.714  13.331 -0.0824  0.1999  0.0415
  905TIP3    H124206   0.542   1.762  13.389  0.9314  0.2509  1.0892
  905TIP3    H224207   0.688   1.731  13.367  0.4954 -0.6127 -0.9086
  906TIP3   OH224208   5.411   1.946   1.775  0.3659 -0.8726 -0.7285
  906TIP3    H124209   5.393   2.028   1.729  0.4442  0.0981  0.8987
  906TIP3    H224210   5.485   1.966   1.832  0.3293 -2.0545 -0.2393
  907TIP3   OH224211   6.388   2.032   5.648 -0.1606 -0.2450  0.4902
  907TIP3    H124212   6.392   2.063   5.557  2.1221 -1.0928  0.2143
  907TIP3    H224213   6.408   2.110   5.701 -2.7857  0.5582  0.4259
  908TIP3   OH224214   3.927   3.421  16.459  0.0680 -0.2242  0.2529
  908TIP3    H124215   3.970   3.432  16.375 -0.0449 -1.6001 -0.0060
  908TIP3    H224216   3.851   3.366  16.440  0.0147 -0.5186  1.2387
  909TIP3   OH224217   3.790   4.028   3.978  0.2970 -0.3263 -0.5047
  909TIP3    H124218   3.743   4.026   4.061 -1.1202 -0.4512 -1.2748
  909TIP3    H224219   3.745   4.096   3.927  1.6136  0.2678 -0.9068
  910TIP3   OH224220   5.464   5.747   0.999  0.8677 -0.6080  0.8239
  910TIP3    H124221   5.411   5.800   1.058 -1.8987 -1.3542 -0.8130
  910TIP3    H224222   5.554   5.768   1.022 -0.0931  1.0219  3.5315
  911TIP3   OH224223   4.896   6.164  14.924 -0.4437  0.1225 -0.6832
  911TIP3    H124224   4.911   6.096  14.990  0.0329  0.3684 -0.5296
  911TIP3    H224225   4.935   6.243  14.962 -1.1345  0.5185 -0.7901
  912TIP3   OH224226   6.445   6.207  15.270 -0.3381  0.1959 -0.2632
  912TIP3    H124227   6.518   6.195  15.331  0.2493 -2.6637 -1.3638
  912TIP3    H224228   6.367   6.196  15.323  0.1336 -0.9601  0.2066
  913TIP3   OH224229   0.674   4.237   2.410  0.2853  0.3866 -0.0679
  913TIP3    H124230   0.613   4.166   2.426  2.5047 -2.3243 -2.4693
  913TIP3    H224231   0.720   4.248   2.494  0.2220 -1.4214  0.2523
  914TIP3   OH224232   5.880   5.201  16.486 -0.1919  0.2709 -0.5166
  914TIP3    H124233   5.795   5.186  16.527 -0.0384 -0.0808 -0.3223
  914TIP3    H224234   5.860   5.242  16.402 -0.5976 -0.5789 -0.8438
  915TIP3   OH224235   3.920   1.872  14.437 -0.2000  0.0236  0.5366
  915TIP3    H124236   3.833   1.883  14.476  0.5871 -0.1086  2.4042
  915TIP3    H224237   3.978   1.856  14.511  1.1623 -1.6191 -0.8118
  916TIP3   OH224238   4.587   0.681   3.096  0.9324 -0.0162  0.6863
  916TIP3    H124239   4.515   0.734   3.130  1.7948  0.8033  1.2901
  916TIP3    H224240   4.664   0.713   3.141  1.4157 -2.2730  1.6090
  917TIP3   OH224241   5.149   2.546   4.133 -0.7269  0.1561  0.4805
  917TIP3    H124242   5.181   2.544   4.224  1.4222  1.1212 -0.1852
  917TIP3    H224243   5.100   2.464   4.123  0.5595 -0.8656  1.9716
  918TIP3   OH224244   3.071   1.211  16.856  0.0640 -0.3401  0.2178
  918TIP3    H124245   3.062   1.153  16.780  1.7775  1.2608 -1.3125
  918TIP3    H224246   3.165   1.217  16.871 -0.2070  0.0625  1.9586
  919TIP3   OH224247   5.482   2.617  17.033 -0.0526  0.4669 -0.0705
  919TIP3    H124248   5.518   2.639  16.947 -0.3817 -0.0755 -0.3478
  919TIP3    H224249   5.531   2.539  17.060  1.5702  1.8496  1.1973
  920TIP3   OH224250   5.274   1.904  10.877  0.7426  0.0067 -0.0668
  920TIP3    H124251   5.322   1.870  10.952  0.6572 -0.9899 -0.4412
  920TIP3    H224252   5.341   1.937  10.818  0.9156 -0.4963 -0.1597
  921TIP3   OH224253   0.760   3.718  15.869  0.3196  0.1430  0.3276
  921TIP3    H124254   0.815   3.775  15.922  0.7613  0.1954 -0.1825
  921TIP3    H224255   0.778   3.744  15.778  0.4173 -0.7075  0.0970
  922TIP3   OH224256   1.934   4.204   4.040 -0.0594 -0.1076  0.2281
  922TIP3    H124257   1.882   4.254   4.103  0.9239 -0.6209  1.4830
  922TIP3    H224258   2.012   4.257   4.025  0.0438 -0.3225 -0.0095
  923TIP3   OH224259   4.433   4.566   6.162  0.5290  0.3476  1.2234
  923TIP3    H124260   4.422   4.537   6.253 -0.2219  1.7831  1.6198
  923TIP3    H224261   4.486   4.645   6.169  1.1017  0.0524  0.3274
  924TIP3   OH224262   0.589   5.342   5.242  0.5051 -0.2353 -0.1334
  924TIP3    H124263   0.547   5.315   5.323  0.6155  1.5404  0.5568
  924TIP3    H224264   0.648   5.270   5.220  0.5870 -0.6842  1.4402
  925TIP3   OH224265   6.524   1.491   4.369 -0.0968  0.4730  0.3383
  925TIP3    H124266   6.551   1.575   4.405 -0.9361  0.0691  2.0145
  925TIP3    H224267   6.565   1.426   4.426 -1.5879 -0.1852  0.7026
  926TIP3   OH224268   1.780   5.596   6.650 -0.2711 -0.6620 -0.4364
  926TIP3    H124269   1.806   5.637   6.568 -1.2317 -0.4966 -0.6666
  926TIP3    H224270   1.704   5.646   6.680 -0.1044 -0.8938  0.4119
  927TIP3   OH224271   0.317   1.504   4.329  0.3633  0.1052  0.0059
  927TIP3    H124272   0.381   1.442   4.363  0.6930 -0.2930 -1.2868
  927TIP3    H224273   0.253   1.449   4.283 -0.6727  0.5365  0.8871
  928TIP3   OH224274   6.009   0.829  13.587 -0.0373  0.1855 -0.5584
  928TIP3    H124275   6.012   0.909  13.535  1.8737 -0.7323 -2.0049
  928TIP3    H224276   5.983   0.761  13.526  0.6371 -0.6608  0.0671
  929TIP3   OH224277   3.309   1.895   5.600 -0.3811  0.2018  0.3085
  929TIP3    H124278   3.291   1.924   5.511  2.0668  2.1888  0.3360
  929TIP3    H224279   3.360   1.815   5.589  1.4276  1.3692 -0.2186
  930TIP3   OH224280   0.740   2.384  16.875 -0.2364  0.2707  0.1519
  930TIP3    H124281   0.743   2.296  16.912 -1.1510 -0.1531 -0.7327
  930TIP3    H224282   0.779   2.440  16.943  0.2622 -0.7850  0.7684
  931TIP3   OH224283   0.161   3.495   5.162 -0.0946  0.0093  0.0562
  931TIP3    H124284   0.208   3.499   5.078  2.3239 -1.3991  1.2177
  931TIP3    H224285   0.091   3.431   5.146 -1.1097  1.4128 -1.4547
  932TIP3   OH224286   6.551   2.520   0.746 -0.0399 -0.2128 -0.5166
  932TIP3    H124287   6.606   2.548   0.819 -0.3466  0.1735 -0.4365
  932TIP3    H224288   6.535   2.427   0.764  0.8407 -0.4149 -0.7042
  933TIP3   OH224289   5.571   0.265  10.431  0.1147  0.0221 -0.5296
  933TIP3    H124290   5.546   0.241  10.341  0.2620 -0.2973 -0.4869
  933TIP3    H224291   5.489   0.264  10.479  0.1660 -0.7648 -0.4502
  934TIP3   OH224292   2.327   1.188   0.768  0.6124  0.7127  0.0567
  934TIP3    H124293   2.351   1.249   0.837  4.0288 -0.4673  0.1364
  934TIP3    H224294   2.390   1.205   0.698 -0.9797  0.0050 -1.6505
  935TIP3   OH224295   5.931   2.625  11.179 -0.1911 -0.0376 -0.7179
  935TIP3    H124296   5.858   2.649  11.237 -0.7226 -1.6930 -0.6258
  935TIP3    H224297   5.888   2.597  11.098  0.5474  2.4006 -2.0582
  936TIP3   OH224298   5.583   6.298  12.139  0.1622 -0.1169  0.4005
  936TIP3    H124299   5.491   6.273  12.136 -0.9344  3.3603  0.8551
  936TIP3    H224300   5.620   6.262  12.058 -1.9735 -0.2518 -0.5749
  937TIP3   OH224301   4.476   2.950   1.272 -0.0759  0.3858  0.9147
  937TIP3    H124302   4.382   2.936   1.284 -0.2942  0.8008 -0.1447
  937TIP3    H224303   4.516   2.866   1.295 -0.5555  0.6238  2.7455
  938TIP3   OH224304   0.682   3.607  14.971 -0.0506  0.2296  0.1191
  938TIP3    H124305   0.652   3.556  15.046  0.5192  0.8165  0.7620
  938TIP3    H224306   0.628   3.577  14.898  1.0441 -2.1172  0.2014
  939TIP3   OH224307   2.434   4.458  13.578  0.2128 -0.1374 -0.6896
  939TIP3    H124308   2.517   4.505  13.576 -0.1760  0.5921 -0.0859
  939TIP3    H224309   2.427   4.419  13.491  0.7297  0.6163 -1.0853
  940TIP3   OH224310   2.969   5.176   0.449  0.3208 -0.1673  0.2285
  940TIP3    H124311   2.964   5.180   0.544  0.4998 -1.0700  0.2874
  940TIP3    H224312   3.036   5.111   0.431  1.0136  0.7259 -0.5258
  941TIP3   OH224313   2.176   1.940  13.814 -0.6326 -0.0876 -0.1624
  941TIP3    H124314   2.193   2.030  13.785 -0.2122  0.0999  0.6306
  941TIP3    H224315   2.112   1.950  13.885 -0.5721 -0.4154 -0.0608
  942TIP3   OH224316   5.856   2.474  13.058 -0.2075  0.2295  0.2690
  942TIP3    H124317   5.817   2.561  13.049  0.7324  0.6162 -0.2227
  942TIP3    H224318   5.946   2.491  13.085  0.4887 -0.5094 -1.4432
  943TIP3   OH224319   3.289   6.022  16.548  0.1651 -0.2590 -0.0736
  943TIP3    H124320   3.334   6.007  16.631 -0.1269  1.7649  0.5114
  943TIP3    H224321   3.352   6.071  16.495 -0.5232  0.6426 -0.0804
  944TIP3   OH224322   3.411   2.538  12.398  0.2995 -0.4474  0.0606
  944TIP3    H124323   3.495   2.509  12.433  1.0375  0.6124 -0.7766
  944TIP3    H224324   3.406   2.631  12.420  1.0288  0.3985 -2.9463
  945TIP3   OH224325   2.013   1.716   2.457 -0.3456  0.0443 -0.3436
  945TIP3    H124326   1.979   1.748   2.541 -0.8011  0.7140 -0.7663
  945TIP3    H224327   2.093   1.668   2.480 -0.9839 -0.6172  0.5640
  946TIP3   OH224328   5.452   5.226   6.003 -0.4224  0.3738  0.0582
  946TIP3    H124329   5.421   5.146   6.045  2.5308 -1.4750 -0.9932
  946TIP3    H224330   5.510   5.267   6.067 -1.0354  1.0920  0.1700
  947TIP3   OH224331   1.990   5.111   2.587  1.1093  0.1924 -0.2796
  947TIP3    H124332   1.909   5.108   2.536  1.0345 -0.7323 -0.1394
  947TIP3    H224333   2.058   5.131   2.524  0.9664 -0.5530 -0.6847
  948TIP3   OH224334   3.240   2.672  14.614  0.1503 -0.3909 -0.3357
  948TIP3    H124335   3.321   2.661  14.564  0.7724 -0.9268  0.7586
  948TIP3    H224336   3.208   2.583  14.627 -0.2815 -0.2187 -0.2235
  949TIP3   OH224337   4.972   1.387  11.442  0.1122  0.1125 -0.3303
  949TIP3    H124338   5.036   1.318  11.424 -1.7376 -2.4079  2.0300
  949TIP3    H224339   4.922   1.394  11.360  2.0624  0.7400 -1.5429
  950TIP3   OH224340   1.730   2.066   5.322 -0.6365  0.3592  0.4399
  950TIP3    H124341   1.656   2.006   5.330 -1.3254  1.1118 -0.0728
  950TIP3    H224342   1.719   2.106   5.235 -0.4142  1.4987  0.9160
  951TIP3   OH224343   1.211   2.807   2.083  0.1811  0.4182 -0.2571
  951TIP3    H124344   1.299   2.794   2.116 -0.3239 -1.3907  0.5002
  951TIP3    H224345   1.220   2.876   2.017  1.7401  1.9242  1.4063
  952TIP3   OH224346   3.125   1.306  13.702 -0.1201  0.4400  0.2599
  952TIP3    H124347   3.132   1.242  13.632  1.1825 -0.7596  1.3997
  952TIP3    H224348   3.085   1.383  13.662  1.4627  0.1671 -2.0408
  953TIP3   OH224349   3.740   4.427  16.789  0.0737 -0.2430 -0.1653
  953TIP3    H124350   3.813   4.468  16.836  1.2339 -0.5502 -1.6235
  953TIP3    H224351   3.745   4.335  16.814  0.8891 -0.4670 -1.0635
  954TIP3   OH224352   5.654   3.852  13.017 -0.3866 -0.3492 -0.3139
  954TIP3    H124353   5.597   3.793  12.968 -0.7068 -0.2035 -0.1172
  954TIP3    H224354   5.607   3.935  13.018  0.1776 -0.0158 -0.8052
  955TIP3   OH224355   5.823   0.543  11.530 -0.2771 -0.3965 -0.1935
  955TIP3    H124356   5.835   0.606  11.601 -0.3544  0.3442 -0.8210
  955TIP3    H224357   5.890   0.566  11.466 -0.6686 -0.5879 -0.6823
  956TIP3   OH224358   1.445   3.316   4.380  0.1534  0.4561  0.1658
  956TIP3    H124359   1.389   3.394   4.373  0.7187  0.7523 -1.4705
  956TIP3    H224360   1.519   3.344   4.434 -0.4110  0.5632  0.9074
  957TIP3   OH224361   1.520   4.835   3.718  0.2079 -0.3044 -0.3310
  957TIP3    H124362   1.430   4.841   3.686  0.4548  0.2731 -0.9293
  957TIP3    H224363   1.548   4.747   3.693  0.7667  0.4830 -2.7768
  958TIP3   OH224364   3.613   0.821  14.297 -0.7270 -0.1452 -0.2340
  958TIP3    H124365   3.595   0.877  14.222 -1.0679 -0.9685 -0.7775
  958TIP3    H224366   3.596   0.877  14.373 -1.9966  0.2191 -0.7562
  959TIP3   OH224367   1.253   6.401  13.380  0.1411 -0.5195 -0.1209
  959TIP3    H124368   1.242   6.455  13.302  0.9067 -0.6209 -0.3005
  959TIP3    H224369   1.296   6.322  13.349 -1.4732 -1.5147  0.0280
  960TIP3   OH224370   1.861   5.399   3.949 -0.2758 -0.4723  0.0097
  960TIP3    H124371   1.823   5.341   3.884  0.2706 -0.9380  0.1008
  960TIP3    H224372   1.787   5.427   4.003 -0.5815 -0.8472 -0.2141
  961TIP3   OH224373   1.405   3.737   0.757  0.1155 -0.4949  0.3771
  961TIP3    H124374   1.454   3.801   0.808  0.2961  0.1678 -0.6042
  961TIP3    H224375   1.472   3.692   0.705 -0.3259  0.7109 -1.2941
  962TIP3   OH224376   6.401   5.510  12.968  0.2199  0.3620  0.6082
  962TIP3    H124377   6.481   5.484  12.922  0.3644 -0.3586  1.2332
  962TIP3    H224378   6.425   5.592  13.013  0.4211  0.4669  0.3128
  963TIP3   OH224379   5.729   3.330   3.989  0.4108 -0.0133 -0.2940
  963TIP3    H124380   5.653   3.340   4.046  0.7345  0.6022  0.0434
  963TIP3    H224381   5.693   3.304   3.905 -0.3823  2.3343 -0.7415
  964TIP3   OH224382   3.188   4.185   3.697  0.5634  0.4387 -0.1859
  964TIP3    H124383   3.222   4.158   3.783  0.2241  0.4545 -0.0475
  964TIP3    H224384   3.187   4.281   3.701  1.2196  0.4676 -0.4688
  965TIP3   OH224385   1.514   3.783   6.250 -0.1925 -0.2543  0.2729
  965TIP3    H124386   1.586   3.788   6.187 -0.1373 -1.2552  0.2474
  965TIP3    H224387   1.462   3.708   6.221 -0.8073 -0.0213  0.7529
  966TIP3   OH224388   2.447   2.093   4.734  0.2231 -0.0879  0.2312
  966TIP3    H124389   2.406   2.156   4.676 -1.6277 -1.7859 -0.4337
  966TIP3    H224390   2.539   2.092   4.709  0.2965  2.2694  0.2592
  967TIP3   OH224391   6.440   0.158  16.096  0.6113 -0.3457  0.2090
  967TIP3    H124392   6.350   0.144  16.127  0.2301  0.9838 -0.1931
  967TIP3    H224393   6.495   0.119  16.164 -0.2734 -1.1997  0.4536
  968TIP3   OH224394   3.681   3.333  11.850  0.2924  0.0850  0.1056
  968TIP3    H124395   3.669   3.310  11.942 -0.1233 -1.8728 -0.4012
  968TIP3    H224396   3.761   3.385  11.848 -0.2185  1.0016  1.6774
  969TIP3   OH224397   2.253   1.452  11.120  0.0366  0.2231 -0.1207
  969TIP3    H124398   2.341   1.456  11.082  0.3130 -0.2151  0.4500
  969TIP3    H224399   2.195   1.470  11.047  0.5323 -1.1644 -0.8913
  970TIP3   OH224400   1.934   2.015  15.183 -0.5964  0.7833 -0.5319
  970TIP3    H124401   1.920   2.009  15.089 -1.9012  0.0838 -0.3206
  970TIP3    H224402   1.928   2.109  15.203 -3.4109  0.7383 -0.7645
  971TIP3   OH224403   4.169   2.610   3.659  0.2270  0.2968 -0.5705
  971TIP3    H124404   4.120   2.528   3.657  1.1477 -0.2663 -2.0718
  971TIP3    H224405   4.250   2.589   3.706 -0.2382  0.8009  0.4903
  972TIP3   OH224406   3.432   0.405  12.076 -0.5913  0.2869  0.0215
  972TIP3    H124407   3.434   0.480  12.016  0.0070 -0.1761 -0.5496
  972TIP3    H224408   3.350   0.361  12.057  0.4553 -1.0006 -1.9254
  973TIP3   OH224409   1.005   3.742   3.236  0.4637  0.1151 -0.4132
  973TIP3    H124410   0.935   3.807   3.238  0.0259 -0.3451 -0.5665
  973TIP3    H224411   1.069   3.776   3.174  0.3648  0.5237 -0.2915
  974TIP3   OH224412   6.248   1.969  14.090  0.8298 -0.4860  0.2518
  974TIP3    H124413   6.161   1.930  14.086  0.6713 -0.0661 -1.2065
  974TIP3    H224414   6.281   1.947  14.177 -1.4779  0.9524  1.6133
  975TIP3   OH224415   5.723   3.694   0.008 -0.7698 -0.1768  0.6117
  975TIP3    H124416   5.727   3.782  -0.030 -3.3595 -0.9765 -1.8948
  975TIP3    H224417   5.648   3.697   0.067 -1.8967 -1.0514 -0.7239
  976TIP3   OH224418   2.389   0.430  17.039  0.3708 -0.8857  0.1005
  976TIP3    H124419   2.400   0.408  16.947  3.1617 -0.1677  0.1800
  976TIP3    H224420   2.390   0.525  17.042 -0.5860 -0.8829  0.8141
  977TIP3   OH224421   0.916   1.356  16.891 -0.0003  0.5843 -0.1053
  977TIP3    H124422   0.999   1.315  16.914 -0.1033  0.3256 -0.1869
  977TIP3    H224423   0.925   1.380  16.798 -0.2363 -0.0006 -0.2853
  978TIP3   OH224424   1.562   0.314  11.793  0.3285 -0.2245 -0.2510
  978TIP3    H124425   1.495   0.364  11.746  1.6607  0.2544 -1.7469
  978TIP3    H224426   1.615   0.274  11.724  2.3213  0.4291  0.8286
  979TIP3   OH224427   4.103   5.461  12.213  0.3211 -0.5592  0.1213
  979TIP3    H124428   4.109   5.543  12.164 -1.2088  0.2591  1.1792
  979TIP3    H224429   4.025   5.473  12.268  0.6614 -2.3285  1.0501
  980TIP3   OH224430   0.940   2.073   5.527  0.2002  0.0959 -0.0661
  980TIP3    H124431   0.854   2.104   5.554  0.3795  0.9043 -0.3947
  980TIP3    H224432   1.001   2.139   5.560  1.0623 -2.0473  2.9930
  981TIP3   OH224433   4.787   0.145  15.647  0.0339 -0.5369 -0.3094
  981TIP3    H124434   4.736   0.222  15.623  0.0228 -0.2319  0.6789
  981TIP3    H224435   4.726   0.089  15.694  0.7062  0.0953  1.4075
  982TIP3   OH224436   2.996   5.972   2.104  0.2494 -0.2830 -0.3146
  982TIP3    H124437   2.960   5.993   2.190 -0.7430 -1.4271 -0.4300
  982TIP3    H224438   3.087   5.949   2.121 -0.1652 -1.3204  0.5514
  983TIP3   OH224439   5.950   3.918  16.723  0.3082  0.3325  0.0580
  983TIP3    H124440   5.988   3.863  16.655 -0.1358 -0.2401  0.2614
  983TIP3    H224441   5.969   4.007  16.696  0.1123  0.1106 -0.8228
  984TIP3   OH224442   3.203   1.598   4.298 -0.0204  0.3767 -0.2424
  984TIP3    H124443   3.238   1.623   4.384 -0.6983 -1.6151  0.6828
  984TIP3    H224444   3.270   1.542   4.260 -0.9454 -1.1869  0.3340
  985TIP3   OH224445   0.285   6.769   4.366 -0.5698 -0.1550  0.2487
  985TIP3    H124446   0.319   6.856   4.345 -0.2800 -0.6433 -1.4851
  985TIP3    H224447   0.192   6.774   4.344 -0.6584 -0.1519  0.6159
  986TIP3   OH224448   1.277   0.092   6.164 -0.0764  0.6230 -0.1383
  986TIP3    H124449   1.361   0.055   6.190 -0.8304 -0.1225  1.3731
  986TIP3    H224450   1.275   0.178   6.206 -0.3798  0.3220  0.4728
  987TIP3   OH224451   1.721   5.637   0.117 -0.0957  0.3258 -0.3870
  987TIP3    H124452   1.632   5.662   0.095 -0.3107  0.0018  0.1024
  987TIP3    H224453   1.765   5.718   0.140 -0.4857  0.3829  0.1502
  988TIP3   OH224454   4.851   1.105   4.866  0.1638 -0.2311  0.6988
  988TIP3    H124455   4.888   1.029   4.820  1.2184 -0.6710  2.1981
  988TIP3    H224456   4.927   1.151   4.901 -0.5170  1.0882  0.5238
  989TIP3   OH224457   3.457   3.144   5.211 -0.6768 -1.3448  0.1664
  989TIP3    H124458   3.420   3.152   5.299  1.2739  1.7965  0.8380
  989TIP3    H224459   3.489   3.053   5.207 -2.8985 -2.2767  1.7349
  990TIP3   OH224460   2.343   6.186   0.179 -0.2467 -0.3357  0.0973
  990TIP3    H124461   2.269   6.133   0.149 -0.3247 -0.2226  0.0865
  990TIP3    H224462   2.413   6.124   0.195 -0.0523 -0.3532 -0.7831
  991TIP3   OH224463   3.626   2.133   1.541 -0.4159  0.1980  0.3473
  991TIP3    H124464   3.645   2.200   1.474  0.1979 -0.6551 -0.3516
  991TIP3    H224465   3.559   2.078   1.502  1.0215 -1.2295 -0.2489
  992TIP3   OH224466   2.788   3.571   0.605 -0.2242 -0.2523  0.5814
  992TIP3    H124467   2.840   3.500   0.567  1.1669  1.3472 -0.6436
  992TIP3    H224468   2.703   3.565   0.561  0.6537  0.2403 -1.2396
  993TIP3   OH224469   5.619   0.157   5.024 -0.0727  0.0313  0.4321
  993TIP3    H124470   5.664   0.132   5.105 -0.6061 -0.7271  0.5120
  993TIP3    H224471   5.680   0.134   4.954 -0.1600 -0.6000  0.5571
  994TIP3   OH224472   5.531   4.304   3.845 -0.5646 -0.1583  0.3346
  994TIP3    H124473   5.542   4.302   3.750 -1.1429 -0.9014  0.2735
  994TIP3    H224474   5.614   4.271   3.880 -0.7131 -0.8127  0.0607
  995TIP3   OH224475   4.344   1.252   4.628 -0.1764 -0.0229 -0.4195
  995TIP3    H124476   4.339   1.289   4.539  0.5896  0.4135 -0.2957
  995TIP3    H224477   4.438   1.238   4.642 -0.2596  0.2703  0.4639
  996TIP3   OH224478   2.642   3.011   0.721  0.4590  0.4145  0.0663
  996TIP3    H124479   2.680   2.959   0.791  0.9465  0.4969 -0.1290
  996TIP3    H224480   2.703   3.084   0.710  0.8243 -0.0240 -0.9797
  997TIP3   OH224481   4.799   4.434  12.015  0.3833 -0.2102 -0.3469
  997TIP3    H124482   4.719   4.474  12.050 -0.5622 -2.4100  0.1417
  997TIP3    H224483   4.795   4.452  11.921  1.8659  3.8693  0.1213
  998TIP3   OH224484   1.030   6.364   4.692 -0.3413  0.1061  0.3604
  998TIP3    H124485   1.123   6.348   4.709  0.4605  0.2208 -3.2232
  998TIP3    H224486   0.991   6.370   4.779  2.9345 -0.1754  2.0092
  999TIP3   OH224487   3.401   2.951  16.181 -0.2505  0.0015  0.3683
  999TIP3    H124488   3.450   2.886  16.231  0.0849 -0.1428 -0.1336
  999TIP3    H224489   3.327   2.975  16.237 -0.2870 -0.6989  0.6222
 1000TIP3   OH224490   0.903   5.435  15.391 -0.5101 -0.0851  0.0504
 1000TIP3    H124491   0.906   5.478  15.477 -1.7739 -0.0739  0.1092
 1000TIP3    H224492   0.923   5.343  15.410 -0.2726  0.0093  0.2766
 1001TIP3   OH224493   2.855   2.677  16.473  0.5143  0.2248  0.2049
 1001TIP3    H124494   2.815   2.637  16.395  0.2175  0.6375  0.1424
 1001TIP3    H224495   2.948   2.681  16.452  0.4349  0.3512 -0.1450
 1002TIP3   OH224496   5.108   3.071  16.003 -0.1160  0.1003  0.4432
 1002TIP3    H124497   5.089   3.124  15.925  1.9604 -0.7495 -0.7247
 1002TIP3    H224498   5.171   3.124  16.052  1.4710 -0.9149 -0.4061
 1003TIP3   OH224499   0.291   4.232  13.171 -0.0638  0.9370 -0.1796
 1003TIP3    H124500   0.321   4.162  13.112 -0.2455  0.0749  0.7151
 1003TIP3    H224501   0.238   4.186  13.236 -1.7998  2.1663 -0.6490
 1004TIP3   OH224502   3.487   4.931   5.025 -0.2826 -0.4449 -0.0660
 1004TIP3    H124503   3.521   5.005   4.975 -0.8855 -0.2936 -0.2628
 1004TIP3    H224504   3.559   4.868   5.027 -0.1681 -0.3581 -0.9314
 1005TIP3   OH224505   0.649   5.776   5.935 -0.4178 -0.7074 -0.4133
 1005TIP3    H124506   0.578   5.838   5.953  1.1238  1.7781 -2.2271
 1005TIP3    H224507   0.616   5.724   5.862 -0.3169  0.6250 -1.4430
 1006TIP3   OH224508   4.758   2.068  11.643 -0.7690 -0.2419 -0.0656
 1006TIP3    H124509   4.668   2.088  11.669 -0.8267  0.8631 -1.0374
 1006TIP3    H224510   4.759   2.080  11.548  0.2485 -0.9037 -0.1583
 1007TIP3   OH224511   1.980   6.284   2.980  0.5463  0.3325  0.3998
 1007TIP3    H124512   1.926   6.349   2.935  1.3513  0.4791 -0.3941
 1007TIP3    H224513   1.990   6.318   3.069 -0.0079  0.6969  0.3242
 1008TIP3   OH224514   0.730   2.162  12.580  0.0776  0.2583 -0.3277
 1008TIP3    H124515   0.803   2.183  12.522 -0.9358 -1.3896 -2.3241
 1008TIP3    H224516   0.770   2.145  12.665  2.2665 -2.3514 -1.7663
 1009TIP3   OH224517   4.886   0.258   2.124 -0.0493 -0.7220 -0.0211
 1009TIP3    H124518   4.873   0.342   2.079  2.0798 -0.3093  0.0680
 1009TIP3    H224519   4.945   0.278   2.196  0.0317 -2.1978  0.3408
 1010TIP3   OH224520   5.463   5.435   0.014  0.5575 -0.1402 -0.0850
 1010TIP3    H124521   5.437   5.472   0.098  0.2814  0.0324 -0.2435
 1010TIP3    H224522   5.552   5.403   0.028  0.5916  0.0803  0.2120
 1011TIP3   OH224523   0.135   1.989   0.064 -0.1596  0.4332 -0.2120
 1011TIP3    H124524   0.054   2.024   0.028 -0.3565  0.5809  0.3659
 1011TIP3    H224525   0.162   2.053   0.130  0.0584  0.0429  0.0869
 1012TIP3   OH224526   0.480   0.357  12.240  0.0591 -0.3975 -0.1257
 1012TIP3    H124527   0.425   0.287  12.273 -0.5626 -0.7789 -1.8627
 1012TIP3    H224528   0.420   0.419  12.200  0.8070 -0.4261 -1.3553
 1013TIP3   OH224529   4.179   1.182  11.756  0.3475  0.2229  0.0594
 1013TIP3    H124530   4.100   1.228  11.784  1.2909  1.9461  0.0350
 1013TIP3    H224531   4.184   1.199  11.662 -1.3738 -3.3228 -0.8798
 1014TIP3   OH224532   2.257   6.165   5.935  0.1981 -0.6401 -0.3058
 1014TIP3    H124533   2.180   6.203   5.892  0.2959  0.4057  0.3929
 1014TIP3    H224534   2.261   6.211   6.019  1.1568 -1.2260 -0.0267
 1015TIP3   OH224535   4.283   5.751   5.752 -0.1157 -0.0515 -0.1963
 1015TIP3    H124536   4.228   5.812   5.801 -1.8125 -1.3798 -0.3558
 1015TIP3    H224537   4.315   5.689   5.817 -2.1444 -1.6508 -0.6397
 1016TIP3   OH224538   0.552   5.533   4.093 -0.7494  0.1981 -0.2597
 1016TIP3    H124539   0.504   5.450   4.087  0.6606 -0.6379 -0.3354
 1016TIP3    H224540   0.535   5.563   4.183 -0.9890 -0.3551 -0.1136
 1017TIP3   OH224541   2.463   6.683   2.888  0.3203 -0.2054 -0.2369
 1017TIP3    H124542   2.498   6.726   2.967  1.4932  0.1278 -0.9148
 1017TIP3    H224543   2.540   6.668   2.833 -0.4791 -0.4535 -1.3128
 1018TIP3   OH224544   1.059   1.576  15.725  0.0704 -0.0571  0.2423
 1018TIP3    H124545   1.139   1.613  15.762 -0.9086  2.1628  0.2793
 1018TIP3    H224546   1.079   1.565  15.632 -0.8172  4.7956 -0.7981
 1019TIP3   OH224547   4.739   1.975  12.895  0.4945  0.7112  0.3833
 1019TIP3    H124548   4.752   2.069  12.883 -1.5409  1.1386  1.0972
 1019TIP3    H224549   4.661   1.955  12.842  0.8274 -0.5403  0.3573
 1020TIP3   OH224550   2.178   1.446  17.166 -0.0961  0.4673  0.0536
 1020TIP3    H124551   2.152   1.526  17.121 -0.1842  0.2966 -0.2038
 1020TIP3    H224552   2.209   1.475  17.251 -1.1526  0.6665  0.3755
 1021TIP3   OH224553   5.916   3.625   2.512  0.0875  0.4425 -0.5202
 1021TIP3    H124554   5.824   3.640   2.494 -0.4437  1.4769  2.5738
 1021TIP3    H224555   5.931   3.534   2.486 -1.7878  0.2528 -1.0493
 1022TIP3   OH224556   5.229   2.474  12.518  0.2054  0.1507 -0.2777
 1022TIP3    H124557   5.259   2.478  12.609 -1.8430 -0.9436  0.5232
 1022TIP3    H224558   5.206   2.565  12.497 -2.3735  0.0458  1.5286
 1023TIP3   OH224559   1.516   4.246   5.901  0.0535 -0.5715 -0.3883
 1023TIP3    H124560   1.531   4.151   5.896  0.6914 -0.5208  0.4188
 1023TIP3    H224561   1.603   4.284   5.908 -0.2672 -0.0536  1.1465
 1024TIP3   OH224562   4.539   0.270   0.903  0.1797  0.7059 -0.4787
 1024TIP3    H124563   4.588   0.308   0.977  0.3016 -0.5382  0.1062
 1024TIP3    H224564   4.529   0.343   0.841  1.4516  1.3706  0.0592
 1025TIP3   OH224565   1.787   3.733   0.229  0.1712  0.0898  0.4047
 1025TIP3    H124566   1.783   3.827   0.248 -0.2187  0.4726 -1.4299
 1025TIP3    H224567   1.846   3.698   0.296 -0.1872  1.5095  1.5341
 1026TIP3   OH224568   3.180   0.518   0.595  0.5288 -0.2403  0.1638
 1026TIP3    H124569   3.204   0.430   0.566 -1.7115 -1.0962  0.6384
 1026TIP3    H224570   3.226   0.577   0.535  2.4517 -1.6873  0.1194
 1027TIP3   OH224571   4.569   4.758  14.967 -0.4265  0.1982  0.0674
 1027TIP3    H124572   4.567   4.695  15.039 -0.1675  0.0634 -0.0426
 1027TIP3    H224573   4.592   4.841  15.009 -1.6601  0.4136  0.3516
 1028TIP3   OH224574   5.961   5.415  11.741  0.1589 -0.1538  0.4241
 1028TIP3    H124575   5.975   5.326  11.709  0.4111  0.4402 -1.2227
 1028TIP3    H224576   6.047   5.443  11.773  0.1921 -0.3308  0.4907
 1029TIP3   OH224577   3.004   0.545  15.842 -0.0853 -0.0114  0.1020
 1029TIP3    H124578   2.915   0.512  15.834 -0.2630  0.5163 -0.0796
 1029TIP3    H224579   2.995   0.639  15.853  0.3895 -0.0895  1.3577
 1030TIP3   OH224580   4.279   0.180   0.022 -0.2514  0.7420 -0.0660
 1030TIP3    H124581   4.237   0.261   0.052 -0.7316 -0.2661  2.2032
 1030TIP3    H224582   4.210   0.132  -0.024 -1.0155  0.1217  1.6365
 1031TIP3   OH224583   4.518   2.589   2.362  0.2759  0.1084  0.3539
 1031TIP3    H124584   4.485   2.588   2.451  1.0934  0.5368  0.6781
 1031TIP3    H224585   4.442   2.607   2.307 -0.5498 -1.8472  0.8018
 1032TIP3   OH224586   6.680   3.945  15.801  0.5291 -0.1413 -0.1400
 1032TIP3    H124587   6.626   3.896  15.739  0.7380  1.9750 -2.1278
 1032TIP3    H224588   6.653   3.912  15.887 -1.2349 -1.7583 -1.2194
 1033TIP3   OH224589   5.558   0.613  15.803 -0.3332  0.2212  0.0835
 1033TIP3    H124590   5.572   0.658  15.720  0.2720 -1.3415 -0.7096
 1033TIP3    H224591   5.477   0.563  15.789 -0.4235  0.2243  0.5739
 1034TIP3   OH224592   4.541   6.200  11.737 -0.3497  0.1918  0.7940
 1034TIP3    H124593   4.521   6.114  11.773  2.1780  0.3136  2.7574
 1034TIP3    H224594   4.471   6.257  11.769 -0.7986 -0.6809  1.4037
 1035TIP3   OH224595   2.529   0.155   6.010 -0.0774 -0.0661 -0.0902
 1035TIP3    H124596   2.439   0.172   6.039  0.4838  0.7850  1.2668
 1035TIP3    H224597   2.571   0.115   6.086  0.6264 -0.7174 -0.8086
 1036TIP3   OH224598   2.238   3.356   4.388 -0.0592  0.3380  0.7182
 1036TIP3    H124599   2.275   3.438   4.420  0.1594 -0.0541  1.4829
 1036TIP3    H224600   2.147   3.358   4.416 -0.4094  0.8952 -0.3888
 1037TIP3   OH224601   4.460   4.433   0.062 -0.2774 -0.1051  0.0253
 1037TIP3    H124602   4.377   4.480   0.070 -0.2681 -0.3379  2.3074
 1037TIP3    H224603   4.501   4.468  -0.017 -0.9629  2.6008  0.7720
 1038TIP3   OH224604   2.535   4.141   5.594  0.2321  0.2638  0.4090
 1038TIP3    H124605   2.525   4.050   5.622  0.0982  0.3903  0.7838
 1038TIP3    H224606   2.629   4.156   5.593  0.6419 -1.2476 -4.1225
 1039TIP3   OH224607   3.849   3.258  14.142 -0.1148  0.3182  0.0335
 1039TIP3    H124608   3.870   3.173  14.179 -1.6106  0.5088  1.4749
 1039TIP3    H224609   3.893   3.321  14.199 -2.1093  0.5959  1.4136
 1040TIP3   OH224610   3.674   2.520  16.665  0.1016  0.4654  0.5479
 1040TIP3    H124611   3.631   2.437  16.685 -0.5990  1.1143  1.8611
 1040TIP3    H224612   3.751   2.522  16.722  1.5006 -0.3093 -1.1841
 1041TIP3   OH224613   1.949   6.769   0.633  0.1429  0.7781  0.4827
 1041TIP3    H124614   1.987   6.855   0.616  1.6881  0.2816  1.2051
 1041TIP3    H224615   1.981   6.715   0.560  0.9546  0.3207  1.1672
 1042TIP3   OH224616   6.202   5.160  15.945  0.2892  0.0860  0.4783
 1042TIP3    H124617   6.291   5.133  15.922 -0.1658 -1.3341  0.3104
 1042TIP3    H224618   6.161   5.181  15.861  0.0060 -0.7138  0.4186
 1043TIP3   OH224619   2.437   6.422  12.360  0.1091  0.4155 -0.0389
 1043TIP3    H124620   2.525   6.433  12.397  0.3603 -0.9070 -0.1742
 1043TIP3    H224621   2.452   6.390  12.271 -0.4944 -0.1114  0.0356
 1044TIP3   OH224622   3.042   6.212  12.020  0.0476  0.0010  0.5386
 1044TIP3    H124623   3.002   6.281  12.072  0.5677  0.2233  0.6531
 1044TIP3    H224624   2.979   6.140  12.023 -0.7687  0.6649 -0.0705
 1045TIP3   OH224625   2.238   1.406   1.470  0.2067 -0.5960  0.0320
 1045TIP3    H124626   2.281   1.489   1.450  0.4903 -1.2238 -2.2444
 1045TIP3    H224627   2.160   1.404   1.415 -1.0889 -0.8625  1.7861
 1046TIP3   OH224628   2.545   5.004   0.153  0.6033 -0.1489 -0.1654
 1046TIP3    H124629   2.613   5.071   0.156  2.0812 -1.5859 -0.0911
 1046TIP3    H224630   2.528   4.983   0.245 -0.7408  0.9167 -0.1304
 1047TIP3   OH224631   4.682   2.252   4.675  0.2372 -0.2344 -0.5798
 1047TIP3    H124632   4.628   2.330   4.670 -0.0932 -0.4912 -1.0825
 1047TIP3    H224633   4.649   2.205   4.752 -0.5916 -0.6261 -1.1553
 1048TIP3   OH224634   3.026   2.301  17.151  0.2229  0.2671  0.7475
 1048TIP3    H124635   2.951   2.349  17.186  0.4054  1.3658 -0.2992
 1048TIP3    H224636   2.990   2.248  17.080  0.3682  0.5187  0.4821
 1049TIP3   OH224637   6.529   1.551  11.652 -0.3369 -0.1665  0.1817
 1049TIP3    H124638   6.579   1.631  11.666 -2.9210  1.8918 -1.2384
 1049TIP3    H224639   6.524   1.544  11.556 -2.9227 -0.0264  0.2381
 1050TIP3   OH224640   5.652   4.595   5.331 -0.0035 -0.2292  0.3123
 1050TIP3    H124641   5.567   4.630   5.303 -0.1219 -0.3694  0.4987
 1050TIP3    H224642   5.716   4.646   5.281 -0.0649  1.6667  2.0466
 1051TIP3   OH224643   1.666   6.113   5.357 -0.0049  0.7176  0.3717
 1051TIP3    H124644   1.671   6.201   5.321 -1.0450  1.1527  1.2283
 1051TIP3    H224645   1.667   6.126   5.452 -0.6121 -0.1614  0.5078
 1052TIP3   OH224646   1.782   5.010   1.453  0.0724  0.1180 -0.3878
 1052TIP3    H124647   1.873   4.982   1.461  0.1207  0.6795  1.6706
 1052TIP3    H224648   1.787   5.096   1.413  0.4034 -0.0581 -0.7358
 1053TIP3   OH224649   3.301   5.899  13.360  0.0086 -0.0942 -0.1233
 1053TIP3    H124650   3.329   5.933  13.445 -1.0686 -1.6122  0.8857
 1053TIP3    H224651   3.348   5.815  13.351  0.3374  0.1789 -1.1815
 1054TIP3   OH224652   1.302   2.496  13.661 -0.1720  0.3417 -0.2592
 1054TIP3    H124653   1.246   2.483  13.737 -0.0721  1.3101 -0.0106
 1054TIP3    H224654   1.368   2.559  13.689  2.3565 -2.2363  0.1043
 1055TIP3   OH224655   2.597   6.757   1.446  0.1781  0.6135 -0.7250
 1055TIP3    H124656   2.662   6.803   1.500  0.4297  0.4737 -0.9027
 1055TIP3    H224657   2.517   6.758   1.498  1.1220 -2.0284  0.9828
 1056TIP3   OH224658   1.332   4.141  15.325  0.6544  0.2054 -0.2365
 1056TIP3    H124659   1.345   4.164  15.232  1.3264 -1.1291 -0.4891
 1056TIP3    H224660   1.413   4.169  15.367  0.7322 -0.0440 -0.2208
 1057TIP3   OH224661   2.740   1.402   0.747 -0.4802  0.0567  0.0702
 1057TIP3    H124662   2.743   1.313   0.781  1.5022 -0.5492 -1.4676
 1057TIP3    H224663   2.830   1.435   0.757 -0.9832  1.5862 -0.1114
 1058TIP3   OH224664   1.855   1.650   2.255 -0.4638 -0.5603  0.7735
 1058TIP3    H124665   1.883   1.688   2.338  1.0766  3.0803 -1.1705
 1058TIP3    H224666   1.760   1.660   2.254 -0.2601  1.9368  1.0492
 1059TIP3   OH224667   5.486   1.516  11.737  0.1682 -0.3062  0.0319
 1059TIP3    H124668   5.499   1.539  11.829 -2.1181  1.8893 -0.0674
 1059TIP3    H224669   5.393   1.493  11.731  0.1642  0.0497 -1.7999
 1060TIP3   OH224670   1.841   4.755   5.063 -0.2113  0.4128  0.1924
 1060TIP3    H124671   1.761   4.783   5.018 -0.6847 -0.3143  0.5557
 1060TIP3    H224672   1.811   4.687   5.124  0.2387  1.9647  2.2605
 1061TIP3   OH224673   1.236   4.169  15.076  0.8247  0.4076  0.5274
 1061TIP3    H124674   1.294   4.229  15.029  2.9210 -0.5573  1.7377
 1061TIP3    H224675   1.175   4.227  15.121  1.4159  1.5387 -0.0640
 1062TIP3   OH224676   5.208   6.034   4.466  0.0497  0.1984  0.0088
 1062TIP3    H124677   5.176   6.020   4.377  0.9920 -0.7927 -0.1954
 1062TIP3    H224678   5.156   6.108   4.498  0.3741  1.2444 -1.7025
 1063TIP3   OH224679   5.099   4.170   1.767  0.3658 -0.4293 -0.0623
 1063TIP3    H124680   5.163   4.188   1.836  1.6618 -1.2601 -1.0140
 1063TIP3    H224681   5.123   4.229   1.696 -0.4980 -0.1123 -0.1060
 1064TIP3   OH224682   6.455   5.579  11.814  0.2375 -0.2740  0.2012
 1064TIP3    H124683   6.514   5.606  11.884  0.0147  0.9950 -0.0688
 1064TIP3    H224684   6.482   5.632  11.738 -0.9066 -0.0309 -0.0596
 1065TIP3   OH224685   4.825   5.505  16.344 -0.1770 -0.4265  0.0056
 1065TIP3    H124686   4.805   5.437  16.280 -1.1492  1.1172 -1.4553
 1065TIP3    H224687   4.918   5.495  16.364 -0.4479 -2.5521  0.3697
 1066TIP3   OH224688   4.640   1.269   0.077 -0.5234 -0.4047 -0.1557
 1066TIP3    H124689   4.574   1.237   0.138  0.2454 -2.4556 -0.3153
 1066TIP3    H224690   4.674   1.190   0.034  0.8336  0.7325 -1.3018
 1067TIP3   OH224691   0.782   3.686   4.067 -0.1190  0.1137 -0.0767
 1067TIP3    H124692   0.838   3.741   4.121  0.0901 -0.2876  0.1178
 1067TIP3    H224693   0.730   3.747   4.016  1.2545  0.4958 -1.0594
 1068TIP3   OH224694   5.805   5.412   3.557 -0.4591  0.0810  0.4156
 1068TIP3    H124695   5.845   5.331   3.589  2.2984  1.1530 -0.0587
 1068TIP3    H224696   5.786   5.463   3.636 -1.5335 -0.6732  0.6732
 1069TIP3   OH224697   1.601   4.598   4.907  0.3459  0.1922  0.1951
 1069TIP3    H124698   1.570   4.614   4.996  1.2130 -0.2738  0.5939
 1069TIP3    H224699   1.603   4.685   4.866  0.1440  0.4370  0.6983
 1070TIP3   OH224700   6.715   5.264   0.122  0.0713  0.0054 -0.0632
 1070TIP3    H124701   6.739   5.353   0.149  0.7867  0.4422 -2.0032
 1070TIP3    H224702   6.764   5.250   0.041 -2.1138 -1.1385 -1.2646
 1071TIP3   OH224703   4.829   1.435   1.391 -0.3795 -0.2923 -0.2098
 1071TIP3    H124704   4.864   1.459   1.305 -0.7085  0.3518 -0.1657
 1071TIP3    H224705   4.736   1.420   1.376 -1.1551  2.9704  0.5837
 1072TIP3   OH224706   5.494   0.037   1.807  0.2009  0.1094  0.2003
 1072TIP3    H124707   5.562  -0.009   1.759  0.9941  1.9179 -0.5134
 1072TIP3    H224708   5.433   0.066   1.740 -0.2813  0.0858  0.6291
 1073TIP3   OH224709   5.994   0.177   4.333  0.3557  0.2109  0.0070
 1073TIP3    H124710   5.932   0.145   4.268  0.2201 -0.0286  0.2498
 1073TIP3    H224711   5.947   0.174   4.416  0.9232 -0.7138  0.3151
 1074TIP3   OH224712   4.916   0.305   4.957  0.3515  0.1517 -0.5892
 1074TIP3    H124713   4.960   0.221   4.962  0.0826  0.0595  0.4195
 1074TIP3    H224714   4.844   0.291   4.895  1.0210 -0.0159 -1.3462
 1075TIP3   OH224715   0.122   0.191  13.662  0.2061  0.0117  0.0915
 1075TIP3    H124716   0.034   0.228  13.677 -0.0087  0.1862 -1.4127
 1075TIP3    H224717   0.160   0.184  13.749  0.2481  3.7937  0.5818
 1076TIP3   OH224718   2.233   1.207   0.080  0.0587  0.4410 -0.0983
 1076TIP3    H124719   2.246   1.187  -0.013 -1.7103  0.2017 -0.3370
 1076TIP3    H224720   2.157   1.154   0.105  0.6256  0.3591  1.5484
 1077TIP3   OH224721   1.581   3.615  14.395 -0.0515  0.3733  0.0304
 1077TIP3    H124722   1.642   3.688  14.381  0.7648 -0.5245 -1.2870
 1077TIP3    H224723   1.610   3.577  14.478 -0.3610  1.4035  0.6360
 1078TIP3   OH224724   3.033   3.539  12.377 -0.1327  0.2627 -0.0758
 1078TIP3    H124725   2.986   3.559  12.296 -0.3351  0.7335  0.1560
 1078TIP3    H224726   2.987   3.464  12.413 -0.2811  0.2933 -0.1996
 1079TIP3   OH224727   3.498   2.360   5.540  0.0679 -0.2868  0.1421
 1079TIP3    H124728   3.472   2.268   5.531  2.5947 -1.3049  2.0020
 1079TIP3    H224729   3.430   2.399   5.595 -1.2278 -0.8846 -0.9670
 1080TIP3   OH224730   2.059   6.081  16.427 -0.6835  0.2787 -0.5900
 1080TIP3    H124731   2.034   6.078  16.335  0.2819  0.2283 -0.8591
 1080TIP3    H224732   2.087   6.172  16.442  0.9405 -0.1462 -0.8508
 1081TIP3   OH224733   4.075   3.546   1.693  0.2355  0.2715 -0.6938
 1081TIP3    H124734   4.126   3.500   1.626 -0.4511  0.6522 -1.4890
 1081TIP3    H224735   4.023   3.477   1.735  2.1876 -0.3291  0.9242
 1082TIP3   OH224736   3.542   6.037   3.108 -0.0323  0.0605  0.0252
 1082TIP3    H124737   3.463   6.085   3.084 -0.9965 -1.2588  0.4304
 1082TIP3    H224738   3.538   6.030   3.204  2.3052  2.8124  0.4667
 1083TIP3   OH224739   3.452   3.785   0.541  0.0150  0.3015 -1.1270
 1083TIP3    H124740   3.366   3.825   0.556 -0.3271 -0.4053 -1.1545
 1083TIP3    H224741   3.432   3.695   0.517  0.8802 -0.6698  1.5295
 1084TIP3   OH224742   1.845   4.168   6.830  0.0320 -0.1087  0.2802
 1084TIP3    H124743   1.812   4.163   6.919 -0.0367 -0.1814  0.2500
 1084TIP3    H224744   1.794   4.239   6.790 -0.1057 -0.2406  0.2246
 1085TIP3   OH224745   4.167   2.358  10.652  0.0023  0.2226  0.1335
 1085TIP3    H124746   4.245   2.370  10.598  0.1999  0.7334  0.5300
 1085TIP3    H224747   4.132   2.446  10.665 -1.2770 -0.0877 -0.9470
 1086TIP3   OH224748   4.449   1.320  14.405  0.5859 -0.5691  0.2467
 1086TIP3    H124749   4.376   1.265  14.434  1.1386 -1.1388  0.5927
 1086TIP3    H224750   4.504   1.330  14.483  1.1869 -0.6559 -0.1566
 1087TIP3   OH224751   2.032   1.341   1.320  0.4991  0.0499 -1.0635
 1087TIP3    H124752   1.991   1.268   1.273 -3.0775 -0.1711  1.9863
 1087TIP3    H224753   1.968   1.412   1.315  1.0203  0.7856  1.3526
 1088TIP3   OH224754   3.205   0.545   6.139 -0.1717 -0.0420 -0.3439
 1088TIP3    H124755   3.238   0.635   6.142 -1.3937  0.4224 -0.3211
 1088TIP3    H224756   3.274   0.493   6.180  1.0520  0.7146 -1.3846
 1089TIP3   OH224757   0.468   1.595  14.300 -0.5964 -0.5769 -0.1009
 1089TIP3    H124758   0.553   1.585  14.258  1.2475 -0.3744  3.2411
 1089TIP3    H224759   0.442   1.505  14.322  1.6866 -0.5127  3.8437
 1090TIP3   OH224760   3.248   3.406   3.552  0.2432 -0.0038  0.4121
 1090TIP3    H124761   3.226   3.474   3.616 -1.2638  2.5754 -2.5820
 1090TIP3    H224762   3.164   3.367   3.529  0.4742  0.5181 -1.4046
 1091TIP3   OH224763   4.193   0.766   0.087  0.1868  0.0088 -0.3829
 1091TIP3    H124764   4.115   0.765   0.142  0.4395  1.5058  0.0487
 1091TIP3    H224765   4.266   0.760   0.149  0.4474 -1.0818 -0.7636
 1092TIP3   OH224766   2.256   2.693   2.465  0.0946 -0.5227  0.0824
 1092TIP3    H124767   2.287   2.768   2.414  1.1887 -1.1424 -0.2046
 1092TIP3    H224768   2.289   2.617   2.417  2.3940 -1.1328  2.3794
 1093TIP3   OH224769   3.156   4.601  13.537  0.4420  0.1474  0.6076
 1093TIP3    H124770   3.173   4.689  13.505  1.5577  0.2607  1.4263
 1093TIP3    H224771   3.241   4.571  13.570 -0.0895 -0.9391  1.0526
 1094TIP3   OH224772   5.680   4.605   1.989 -0.8530 -0.2125  0.0465
 1094TIP3    H124773   5.601   4.560   1.961 -0.0846 -1.5991 -0.0044
 1094TIP3    H224774   5.746   4.580   1.924 -0.6352  1.8610 -0.5835
 1095TIP3   OH224775   3.889   1.985   3.015 -0.1973  0.7376 -0.3585
 1095TIP3    H124776   3.944   2.023   3.084  0.2705 -1.5112  0.6073
 1095TIP3    H224777   3.950   1.965   2.944  0.1817 -0.9897  0.3862
 1096TIP3   OH224778   6.439   1.821  16.106 -0.1889  0.5327 -0.1660
 1096TIP3    H124779   6.504   1.755  16.081 -0.1720  0.1470  0.8441
 1096TIP3    H224780   6.491   1.896  16.136 -0.2156  0.4078  0.1870
 1097TIP3   OH224781   3.234   5.225  14.323 -0.5067 -0.4554  0.0234
 1097TIP3    H124782   3.278   5.307  14.299 -1.0835 -0.5636 -1.4773
 1097TIP3    H224783   3.213   5.237  14.416 -0.7985  1.2141 -0.2132
 1098TIP3   OH224784   4.290   3.339   5.851  0.0618  0.1763 -0.1155
 1098TIP3    H124785   4.383   3.357   5.859  0.1930 -0.9315  1.3230
 1098TIP3    H224786   4.248   3.424   5.862  0.8254  0.3466  2.0050
 1099TIP3   OH224787   0.753   3.937  12.984 -0.2747  0.0453 -0.1381
 1099TIP3    H124788   0.845   3.957  12.969  0.3493 -2.0093  0.5649
 1099TIP3    H224789   0.737   3.963  13.074  0.2628 -1.4932  0.4474
 1100TIP3   OH224790   0.131   1.933   1.208  0.3840  0.0571 -0.5594
 1100TIP3    H124791   0.037   1.919   1.216  0.5453 -0.9285 -0.2849
 1100TIP3    H224792   0.164   1.925   1.298  0.8557 -0.5932 -0.7850
 1101TIP3   OH224793   4.637   2.564   2.903  0.7231 -0.3876  0.5037
 1101TIP3    H124794   4.681   2.509   2.968  1.5251 -1.2041 -0.6924
 1101TIP3    H224795   4.551   2.581   2.941  0.5870 -2.1557  1.0967
 1102TIP3   OH224796   6.787   1.355   0.535  0.8188  0.3466  0.1495
 1102TIP3    H124797   6.760   1.325   0.448  2.3253  3.0065 -1.3715
 1102TIP3    H224798   6.881   1.336   0.539  0.6253 -0.4957  1.6044
 1103TIP3   OH224799   1.424   1.307  10.526 -0.0797  0.3020 -0.5291
 1103TIP3    H124800   1.496   1.298  10.588  0.3528  0.3008 -1.0242
 1103TIP3    H224801   1.397   1.399  10.534  0.1941  0.3873 -0.5767
 1104TIP3   OH224802   6.172   0.331  13.985 -0.2448  0.0582  0.2830
 1104TIP3    H124803   6.250   0.381  13.960 -0.5474  1.1009  1.2925
 1104TIP3    H224804   6.101   0.371  13.934 -0.2089 -0.5316 -0.2329
 1105TIP3   OH224805   0.179   4.490  15.547  0.1492  0.0971 -0.1268
 1105TIP3    H124806   0.100   4.493  15.601  1.2354 -1.3298  1.6346
 1105TIP3    H224807   0.163   4.555  15.478 -3.6227 -1.8497 -1.3920
 1106TIP3   OH224808   3.400   1.739  13.145  0.0341  0.4897  0.1726
 1106TIP3    H124809   3.467   1.767  13.207  0.1764  3.0110 -0.9737
 1106TIP3    H224810   3.448   1.726  13.063 -0.3008 -1.7955  0.2783
 1107TIP3   OH224811   3.016   1.574  13.798  0.5586 -0.0850 -0.6630
 1107TIP3    H124812   3.032   1.666  13.818  0.9628 -0.3461  0.2841
 1107TIP3    H224813   2.927   1.557  13.830  0.5396 -0.0600 -0.7030
 1108TIP3   OH224814   5.964   5.076  13.845  0.0737  0.0719 -0.3854
 1108TIP3    H124815   5.965   4.986  13.877 -0.0096 -0.9220 -2.9295
 1108TIP3    H224816   6.056   5.099  13.832  0.0969  0.3996  0.2936
 1109TIP3   OH224817   6.251   5.371   0.175  0.2123 -0.5190  0.3771
 1109TIP3    H124818   6.209   5.354   0.260 -1.4030 -0.2482 -0.3302
 1109TIP3    H224819   6.178   5.393   0.117  1.3165 -0.5140 -1.0401
 1110TIP3   OH224820   5.144   1.533   1.115  0.0104 -0.0545 -0.4921
 1110TIP3    H124821   5.105   1.478   1.047 -1.4883 -1.3405  1.3120
 1110TIP3    H224822   5.076   1.597   1.136  0.5008  0.4036 -0.2751
 1111TIP3   OH224823   6.186   4.379   6.004 -0.2020 -0.2346  0.0505
 1111TIP3    H124824   6.183   4.320   5.929  0.0593 -0.4390  0.1954
 1111TIP3    H224825   6.274   4.366   6.041 -0.3237 -0.1301  0.3834
 1112TIP3   OH224826   1.541   6.208  12.911  0.1772 -0.1541 -0.0612
 1112TIP3    H124827   1.494   6.205  12.828 -1.8382 -3.3416  1.0050
 1112TIP3    H224828   1.619   6.154  12.897  1.6980  2.0510 -0.7184
 1113TIP3   OH224829   1.511   0.658  14.686  0.8432  0.4306  0.0691
 1113TIP3    H124830   1.503   0.586  14.623  0.6073  2.2418 -2.1422
 1113TIP3    H224831   1.435   0.649  14.743 -1.7923  1.3633 -2.9753
 1114TIP3   OH224832   6.336   3.411  11.262 -0.3394  0.2318  0.0224
 1114TIP3    H124833   6.294   3.367  11.188 -1.6212  1.0844  0.2173
 1114TIP3    H224834   6.383   3.485  11.224 -0.3155  0.1898 -0.0289
 1115TIP3   OH224835   1.546   1.911  11.559  0.3042 -0.3294 -0.4872
 1115TIP3    H124836   1.561   1.817  11.569  0.8533 -0.3217 -1.1777
 1115TIP3    H224837   1.619   1.952  11.605 -0.3045 -0.2217  0.4059
 1116TIP3   OH224838   3.176   4.266  13.056  0.0004 -0.1047  0.3281
 1116TIP3    H124839   3.161   4.342  13.112  0.3552  0.4735 -0.3450
 1116TIP3    H224840   3.254   4.289  13.005 -0.1890 -0.7041 -0.2387
 1117TIP3   OH224841   6.505   6.571  12.427  0.1169 -0.2581  0.2585
 1117TIP3    H124842   6.442   6.558  12.498 -0.6423 -0.2582 -0.3958
 1117TIP3    H224843   6.451   6.583  12.349  0.9399 -0.3872 -0.3463
 1118TIP3   OH224844   5.223   5.519  15.700 -0.6559 -0.1112  0.0045
 1118TIP3    H124845   5.287   5.556  15.761  0.4561 -1.5980 -0.2400
 1118TIP3    H224846   5.184   5.446  15.747  0.3117 -1.3682 -1.0939
 1119TIP3   OH224847   4.490   5.710  14.402  0.3402  0.0703 -0.3450
 1119TIP3    H124848   4.488   5.789  14.348  1.4221 -0.3291 -1.0018
 1119TIP3    H224849   4.575   5.715  14.447  0.2412 -0.5239 -0.0842
 1120TIP3   OH224850   3.676   2.971   4.618  0.4598  0.1296 -0.1190
 1120TIP3    H124851   3.649   2.925   4.698  1.0707  0.8509  0.5133
 1120TIP3    H224852   3.608   3.038   4.605 -0.1286 -0.5648 -0.7285
 1121TIP3   OH224853   3.901   3.907  13.289 -0.8120 -0.8308 -0.5345
 1121TIP3    H124854   3.932   3.817  13.304  0.6093 -0.2412  0.3561
 1121TIP3    H224855   3.830   3.918  13.352  0.1117 -0.8367  0.5636
 1122TIP3   OH224856   5.846   1.267   0.530  0.1509  0.2754 -0.4324
 1122TIP3    H124857   5.894   1.329   0.584  1.5215 -0.3253 -0.9202
 1122TIP3    H224858   5.776   1.319   0.490  1.4306  1.5844 -1.0576
 1123TIP3   OH224859   4.819   6.043   4.291 -0.2478  0.3798  0.4262
 1123TIP3    H124860   4.783   6.124   4.328 -0.1752  1.2168 -1.2355
 1123TIP3    H224861   4.784   5.973   4.346 -1.7488  1.4109  0.8309
 1124TIP3   OH224862   1.461   3.008   4.529  0.0629  0.6090  0.0869
 1124TIP3    H124863   1.401   3.065   4.577 -1.3858  0.4961 -1.4620
 1124TIP3    H224864   1.443   3.027   4.437  0.0717 -1.7665 -0.4727
 1125TIP3   OH224865   3.844   4.761   5.195  0.2508  1.0177 -0.1957
 1125TIP3    H124866   3.853   4.840   5.142  0.3246  0.6069 -0.7982
 1125TIP3    H224867   3.755   4.732   5.180  0.8029 -0.0940 -1.5170
 1126TIP3   OH224868   1.147   1.901   0.136 -0.4783 -0.3120 -0.1589
 1126TIP3    H124869   1.144   1.996   0.131  0.9638 -0.2065  0.5256
 1126TIP3    H224870   1.119   1.871   0.049 -2.5075  0.6569  0.1045
 1127TIP3   OH224871   6.494   1.168   0.488 -0.0464 -0.3567  0.1474
 1127TIP3    H124872   6.580   1.185   0.450 -0.0326  2.4508  1.2108
 1127TIP3    H224873   6.433   1.206   0.424 -0.6060 -2.6552 -0.7813
 1128TIP3   OH224874   0.924   5.874   5.912  0.6403 -0.0810 -1.5134
 1128TIP3    H124875   0.968   5.833   5.837 -0.2194 -2.0770 -1.0116
 1128TIP3    H224876   0.839   5.829   5.918 -0.0815  1.3282 -0.4562
 1129TIP3   OH224877   0.342   3.629   5.346  0.2967 -0.6068  0.1230
 1129TIP3    H124878   0.353   3.549   5.397  1.3087 -0.2744  0.4520
 1129TIP3    H224879   0.288   3.603   5.272 -0.8492 -1.1944  1.1301
 1130TIP3   OH224880   5.354   3.732  14.161 -0.0333 -0.1042  0.1117
 1130TIP3    H124881   5.407   3.654  14.176 -0.7045 -0.2755  1.8198
 1130TIP3    H224882   5.269   3.711  14.201 -0.5146  1.1510 -0.2136
 1131TIP3   OH224883   1.761   2.981  15.317  0.2511  0.3704 -0.3726
 1131TIP3    H124884   1.742   2.951  15.406  0.5223  0.6290 -0.2245
 1131TIP3    H224885   1.682   2.961  15.267 -0.5928  1.7937  0.3189
 1132TIP3   OH224886   4.830   4.099  12.029 -0.1034  0.7114 -0.2776
 1132TIP3    H124887   4.876   4.048  12.095  1.2007  1.9811 -0.1622
 1132TIP3    H224888   4.810   4.182  12.072 -2.2241  0.3409 -0.4501
 1133TIP3   OH224889   5.213   2.578   2.921 -0.1164  0.4259  0.3299
 1133TIP3    H124890   5.284   2.628   2.880  0.2959 -0.5094 -0.1315
 1133TIP3    H224891   5.247   2.489   2.925 -0.5526  0.3037  1.8093
 1134TIP3   OH224892   4.386   0.908  12.674  0.0672  0.6051 -1.0654
 1134TIP3    H124893   4.385   0.815  12.697 -0.1020  1.3303  2.3458
 1134TIP3    H224894   4.410   0.909  12.581 -0.3564 -2.8275 -1.3532
 1135TIP3   OH224895   6.714   2.499  11.763  0.6776 -0.2632  0.1654
 1135TIP3    H124896   6.785   2.550  11.801 -1.0940  3.0956 -0.5618
 1135TIP3    H224897   6.700   2.539  11.677 -0.4123 -2.5565 -0.8102
 1136TIP3   OH224898   4.416   5.450   0.883 -0.5174 -0.2875  0.0086
 1136TIP3    H124899   4.502   5.493   0.885 -0.4513 -0.4416  0.7796
 1136TIP3    H224900   4.356   5.519   0.854 -0.7640  1.0409  3.2613
 1137TIP3   OH224901   1.899   3.085   4.026  0.4740  0.1389  0.0693
 1137TIP3    H124902   1.819   3.121   4.067 -0.9768 -2.3256 -0.4129
 1137TIP3    H224903   1.870   3.055   3.940  1.4621 -2.4099  0.5469
 1138TIP3   OH224904   0.414   0.087  15.066 -0.1459 -0.1370  0.7959
 1138TIP3    H124905   0.336   0.137  15.090 -2.2715 -3.5174  1.7252
 1138TIP3    H224906   0.389  -0.004  15.082  4.6691 -1.3845  3.0685
 1139TIP3   OH224907   6.751   4.631   4.900  0.6211 -0.5114  0.4031
 1139TIP3    H124908   6.816   4.564   4.920  0.1482 -1.8428 -2.1291
 1139TIP3    H224909   6.667   4.584   4.903  0.1278  0.3337  0.0866
 1140TIP3   OH224910   6.563   0.083   6.533  0.1161  0.2799  0.0703
 1140TIP3    H124911   6.491   0.092   6.596 -0.4031  0.2963 -0.5128
 1140TIP3    H224912   6.551   0.157   6.473 -0.2879 -0.5654 -0.9161
 1141TIP3   OH224913   6.279   3.399  12.323  0.0372  0.0224 -0.2505
 1141TIP3    H124914   6.232   3.479  12.301  0.4608  0.3013 -0.1331
 1141TIP3    H224915   6.219   3.351  12.380 -0.4959 -0.0633 -0.8731
 1142TIP3   OH224916   3.144   4.101  14.404 -0.5184 -0.3884 -0.8245
 1142TIP3    H124917   3.232   4.121  14.438 -0.5608 -1.3539 -0.1036
 1142TIP3    H224918   3.155   4.093  14.310  0.1523 -0.3975 -0.7488
 1143TIP3   OH224919   4.455   1.135  16.115 -0.4642  0.5845 -0.1535
 1143TIP3    H124920   4.376   1.145  16.063 -0.2436  0.7151 -0.4661
 1143TIP3    H224921   4.517   1.198  16.077 -0.4934  1.1083  0.6438
 1144TIP3   OH224922   3.399   4.654   2.037  0.7400  0.7450  0.2933
 1144TIP3    H124923   3.396   4.564   2.004  1.0399  1.0141 -0.5076
 1144TIP3    H224924   3.432   4.705   1.963 -2.2859  1.9943 -0.3675
 1145TIP3   OH224925   0.733   0.184   1.099 -0.1384  0.8066  0.6169
 1145TIP3    H124926   0.772   0.147   1.020  0.0658 -0.6657  1.3684
 1145TIP3    H224927   0.761   0.275   1.099 -0.0149  0.7889 -0.9149
 1146TIP3   OH224928   0.567   0.307  15.219 -0.7554 -0.2571 -0.5805
 1146TIP3    H124929   0.474   0.292  15.200 -0.6486  0.4370 -1.8134
 1146TIP3    H224930   0.568   0.386  15.273 -0.8869 -0.1796 -0.6889
 1147TIP3   OH224931   6.317   6.557   0.136  0.4234  0.4687 -0.4817
 1147TIP3    H124932   6.382   6.622   0.163  0.1752  0.2361  0.7253
 1147TIP3    H224933   6.261   6.604   0.074  0.1258  1.4900  0.5195
 1148TIP3   OH224934   0.962   0.641  12.810  0.3164 -0.2672 -0.4653
 1148TIP3    H124935   1.058   0.640  12.811  0.3547  0.7610 -1.4282
 1148TIP3    H224936   0.940   0.690  12.731 -1.0159 -1.3042 -0.7574
 1149TIP3   OH224937   0.953   5.134  13.232 -0.0096 -0.3835  0.1346
 1149TIP3    H124938   0.909   5.118  13.148  0.2314  1.1709 -0.3059
 1149TIP3    H224939   0.906   5.078  13.294 -0.9841 -0.6410 -0.8067
 1150TIP3   OH224940   5.962   1.182  13.114  0.3417 -0.1786  0.0494
 1150TIP3    H124941   5.997   1.264  13.151  0.8108 -0.4374  0.1941
 1150TIP3    H224942   6.017   1.164  13.038 -0.9312  0.6071 -1.0959
 1151TIP3   OH224943   0.046   0.813   2.206  0.6231  0.1176 -0.7343
 1151TIP3    H124944   0.086   0.726   2.194  0.9976  0.0825  0.5657
 1151TIP3    H224945   0.055   0.830   2.300  0.6202  1.6031 -0.9846
 1152TIP3   OH224946   4.176   2.405  10.951 -0.0564  0.1890 -0.2146
 1152TIP3    H124947   4.172   2.408  10.855 -0.6866 -1.3625 -0.2625
 1152TIP3    H224948   4.251   2.460  10.973  1.1208 -0.7326 -1.7041
 1153TIP3   OH224949   1.681   0.527  13.006 -0.0886 -0.0363 -0.1068
 1153TIP3    H124950   1.718   0.465  13.069  2.6832  0.2010 -1.3559
 1153TIP3    H224951   1.645   0.472  12.936 -1.0332 -0.2569  0.5380
 1154TIP3   OH224952   6.568   3.324   3.239 -0.1954  0.9969 -0.6728
 1154TIP3    H124953   6.486   3.315   3.287  0.0040  1.0001 -0.3321
 1154TIP3    H224954   6.567   3.251   3.177  0.4802 -0.2122  0.7026
 1155TIP3   OH224955   0.560   4.464   0.979  0.0235  0.2633  0.3012
 1155TIP3    H124956   0.605   4.515   0.911 -1.9680  1.9624  0.1786
 1155TIP3    H224957   0.631   4.418   1.024  1.4567 -0.6315 -2.6375
 1156TIP3   OH224958   6.109   2.243  12.834  0.9895 -0.4017  0.2048
 1156TIP3    H124959   6.025   2.290  12.833  1.0436 -0.1433  2.4427
 1156TIP3    H224960   6.084   2.151  12.835  0.6304 -0.3223  2.3085
 1157TIP3   OH224961   6.771   5.544   2.459 -0.4941 -0.0887  0.3177
 1157TIP3    H124962   6.721   5.527   2.379 -0.6808  0.0889  0.3946
 1157TIP3    H224963   6.846   5.595   2.430  0.8859 -2.2447 -0.1489
 1158TIP3   OH224964   4.208   2.345   0.384  0.0326  0.3770 -0.3123
 1158TIP3    H124965   4.276   2.396   0.427  0.1632  0.4763 -0.6326
 1158TIP3    H224966   4.212   2.372   0.292  0.6240 -0.7708 -0.6427
 1159TIP3   OH224967   4.615   0.827  11.835 -0.2235  0.2510 -0.1352
 1159TIP3    H124968   4.660   0.842  11.752 -0.4872  1.5987 -0.0598
 1159TIP3    H224969   4.545   0.892  11.836 -0.6702 -0.2224  0.8304
 1160TIP3   OH224970   5.212   0.462  11.739  0.2541  0.1967  0.3504
 1160TIP3    H124971   5.239   0.375  11.708 -2.3167 -0.4851 -0.1805
 1160TIP3    H224972   5.136   0.484  11.686 -0.7192  1.6178  2.2166
 1161TIP3   OH224973   0.265   4.151  11.830 -0.5222  0.1547 -0.2007
 1161TIP3    H124974   0.290   4.173  11.920 -1.1001  1.1442 -0.2661
 1161TIP3    H224975   0.343   4.167  11.778 -0.0420 -0.8693  0.1773
 1162TIP3   OH224976   6.477   2.589  14.447 -0.0596  0.2639  0.2611
 1162TIP3    H124977   6.528   2.605  14.368  1.1728  0.2442  1.0262
 1162TIP3    H224978   6.406   2.653  14.443 -1.1721 -0.9907 -1.7936
 1163TIP3   OH224979   3.563   6.582   2.623  0.2771  0.3774 -1.2010
 1163TIP3    H124980   3.554   6.488   2.643 -2.0998  0.9307  0.6807
 1163TIP3    H224981   3.485   6.603   2.572 -0.0732  1.6434 -0.1855
 1164TIP3   OH224982   5.593   6.662  10.969  0.2454 -0.3900 -0.3081
 1164TIP3    H124983   5.634   6.665  10.883 -2.4166 -0.6151 -1.7076
 1164TIP3    H224984   5.521   6.600  10.959 -1.4269  1.1145  1.4483
 1165TIP3   OH224985   2.559   3.489  13.910 -1.0335  0.0862  0.2684
 1165TIP3    H124986   2.619   3.510  13.838 -1.0244  1.5533  0.6584
 1165TIP3    H224987   2.476   3.530  13.885 -0.9541  0.8513  1.1979
 1166TIP3   OH224988   4.153   3.014   5.137 -0.3993  0.0111 -0.1850
 1166TIP3    H124989   4.102   2.940   5.170 -0.7614  0.5033  0.3895
 1166TIP3    H224990   4.141   3.012   5.042 -1.5552  0.1603 -0.0534
 1167TIP3   OH224991   5.492   4.913  14.524  0.2413  0.0122 -0.4107
 1167TIP3    H124992   5.571   4.911  14.470  0.3949  1.5133 -0.2793
 1167TIP3    H224993   5.421   4.896  14.462  0.5889 -0.4206 -0.6987
 1168TIP3   OH224994   4.737   1.900  16.638  0.0209  0.6691  0.7697
 1168TIP3    H124995   4.820   1.853  16.648  0.0821  0.3725 -0.8555
 1168TIP3    H224996   4.670   1.836  16.660  0.1784  0.4479  0.6114
 1169TIP3   OH224997   2.607   0.379  14.926 -0.1821 -0.5351  0.1423
 1169TIP3    H124998   2.658   0.445  14.879  2.2672 -3.0306 -1.0259
 1169TIP3    H224999   2.561   0.331  14.858 -3.3507  0.8514  1.0928
 1170TIP3   OH225000   3.165   1.811  12.664 -0.0893 -0.0085 -0.2031
 1170TIP3    H125001   3.145   1.786  12.573  0.3502 -0.9159 -0.0584
 1170TIP3    H225002   3.085   1.854  12.695 -0.7572 -0.9429 -0.5817
 1171TIP3   OH225003   2.060   5.977   4.992  0.2418  0.0883  0.0764
 1171TIP3    H125004   2.125   6.028   5.040 -2.2466  2.9144  0.7358
 1171TIP3    H225005   1.999   5.948   5.059  0.6310 -2.3665 -0.5531
 1172TIP3   OH225006   3.969   4.301  14.959  0.2584 -0.1468  0.5538
 1172TIP3    H125007   3.909   4.344  14.899  0.0057 -0.4072  0.6211
 1172TIP3    H225008   3.914   4.265  15.028  0.3795 -1.2763  0.0894
 1173TIP3   OH225009   3.919   3.636  12.102  0.5582  0.0300  0.1941
 1173TIP3    H125010   3.973   3.633  12.181 -0.8383  1.8074  1.3102
 1173TIP3    H225011   3.830   3.649  12.134 -0.6634 -2.9939 -1.5631
 1174TIP3   OH225012   3.537   2.863   3.073 -0.0918  0.0475  0.0361
 1174TIP3    H125013   3.565   2.937   3.127 -0.3822  0.5441 -0.4713
 1174TIP3    H225014   3.471   2.818   3.126 -0.0234  0.2472  0.2920
 1175TIP3   OH225015   1.274   6.556   0.756 -0.4974  0.4843 -0.0126
 1175TIP3    H125016   1.293   6.470   0.793 -0.0753 -0.5529 -2.4387
 1175TIP3    H225017   1.350   6.576   0.701 -1.3608  1.5961 -0.8579
 1176TIP3   OH225018   5.044   6.442  13.376  0.0875 -0.5436  0.2388
 1176TIP3    H125019   4.951   6.464  13.386  0.2205  0.5120 -0.6581
 1176TIP3    H225020   5.087   6.527  13.365  1.0380 -1.0835 -0.2513
 1177TIP3   OH225021   5.817   2.274  13.234  0.2560  0.0044  0.0714
 1177TIP3    H125022   5.787   2.319  13.155 -0.9788 -1.9230 -0.6486
 1177TIP3    H225023   5.757   2.303  13.303  0.3884  0.5624 -0.0511
 1178TIP3   OH225024   0.164   2.578  15.639 -0.1720  0.1244  0.2610
 1178TIP3    H125025   0.107   2.633  15.584 -0.8552 -0.6647  0.1676
 1178TIP3    H225026   0.221   2.532  15.577 -0.4384 -0.2035  0.2583
 1179TIP3   OH225027   6.508   0.535   3.131  0.2441 -0.1898  0.3565
 1179TIP3    H125028   6.508   0.624   3.095  2.1679  0.4882  1.8514
 1179TIP3    H225029   6.495   0.479   3.054 -1.8946  1.3456 -0.5139
 1180TIP3   OH225030   2.968   2.466  14.475 -0.0595  0.1320  0.5007
 1180TIP3    H125031   2.940   2.466  14.384  1.3356 -0.6277  0.0423
 1180TIP3    H225032   2.889   2.488  14.525 -1.9747 -3.4447 -0.5950
 1181TIP3   OH225033   3.421   2.752  13.350 -0.3636 -0.5560  0.2068
 1181TIP3    H125034   3.493   2.777  13.406 -1.7803  1.5502  1.1971
 1181TIP3    H225035   3.426   2.656  13.346  2.6508 -0.4819 -0.1156
 1182TIP3   OH225036   3.340   4.049  16.122 -0.3146  0.3672 -0.0356
 1182TIP3    H125037   3.374   3.991  16.190 -1.6080 -1.4504 -0.8699
 1182TIP3    H225038   3.271   3.999  16.079  0.3491  1.4813 -2.6228
 1183TIP3   OH225039   1.606   4.823   0.976 -0.4318 -0.7090 -0.0551
 1183TIP3    H125040   1.645   4.759   0.916  0.0200 -0.5284  0.0430
 1183TIP3    H225041   1.660   4.818   1.055  1.9833  2.3760 -1.2954
 1184TIP3   OH225042   3.955   0.990   3.300  0.0202 -0.4515 -0.6884
 1184TIP3    H125043   3.885   0.969   3.238 -0.6904 -2.8803  0.8046
 1184TIP3    H225044   3.946   0.925   3.369  0.3821  2.4430  2.3313
 1185TIP3   OH225045   0.973   6.555  12.803  0.1487  0.5016 -0.1538
 1185TIP3    H125046   0.971   6.508  12.721 -1.3931  1.0640 -0.4775
 1185TIP3    H225047   0.893   6.528  12.849  0.2992  1.2092  0.5636
 1186TIP3   OH225048   5.838   4.212   3.114 -0.6230 -0.7004  0.2412
 1186TIP3    H125049   5.917   4.266   3.119 -0.4389 -0.8960 -0.4734
 1186TIP3    H225050   5.809   4.221   3.023 -1.3182 -0.7832  0.4505
 1187TIP3   OH225051   6.631   6.170  12.756 -0.2776  0.1408 -0.5482
 1187TIP3    H125052   6.636   6.101  12.823  0.8062  0.0413 -0.7084
 1187TIP3    H225053   6.587   6.243  12.799  0.2326  0.0071  0.2278
 1188TIP3   OH225054   3.566   2.489  17.147 -0.3289 -0.5582  0.4638
 1188TIP3    H125055   3.519   2.529  17.073 -0.7257 -0.8597  0.5510
 1188TIP3    H225056   3.643   2.449  17.107 -0.5960 -0.8118  0.1950
 1189TIP3   OH225057   5.282   1.188  13.286 -0.5350  0.0435 -0.6270
 1189TIP3    H125058   5.301   1.275  13.320 -0.7961  0.2731 -1.0591
 1189TIP3    H225059   5.367   1.153  13.259 -0.6052  0.7192 -1.7450
 1190TIP3   OH225060   6.368   1.595  14.563 -0.1900 -0.1398 -0.0498
 1190TIP3    H125061   6.289   1.623  14.609 -0.2065 -0.0425 -0.1386
 1190TIP3    H225062   6.391   1.512  14.604 -0.0825  0.0521  0.2829
 1191TIP3   OH225063   6.690   2.222  17.025 -0.1405  0.1451 -0.0854
 1191TIP3    H125064   6.711   2.234  16.932  0.4094 -2.0703 -0.3077
 1191TIP3    H225065   6.673   2.310  17.057  0.9771  1.1275 -1.9808
 1192TIP3   OH225066   5.166   3.642   1.764 -0.3725  0.1060 -0.3476
 1192TIP3    H125067   5.154   3.574   1.699  0.6621  0.2737 -0.7378
 1192TIP3    H225068   5.113   3.716   1.732  1.6410  0.8937 -2.0970
 1193TIP3   OH225069   2.464   6.482  11.443 -0.2070  0.2509 -0.7744
 1193TIP3    H125070   2.530   6.542  11.479 -0.6891 -0.0122  0.5752
 1193TIP3    H225071   2.511   6.434  11.375  0.9365  0.2501 -0.0123
 1194TIP3   OH225072   6.751   1.031  17.119 -0.4214  0.4057 -0.2615
 1194TIP3    H125073   6.818   1.098  17.118 -1.0609  1.0592 -0.0626
 1194TIP3    H225074   6.799   0.948  17.127  0.3477  0.8592 -0.1472
 1195TIP3   OH225075   4.559   0.804  15.645  0.1330  0.2982 -0.5367
 1195TIP3    H125076   4.583   0.711  15.645  1.3118  0.5787  0.1911
 1195TIP3    H225077   4.556   0.827  15.738 -1.2582  0.7331 -0.6722
 1196TIP3   OH225078   6.159   3.245  12.534  0.0172  0.1123  0.1394
 1196TIP3    H125079   6.224   3.175  12.523  0.8808  0.8898  0.1249
 1196TIP3    H225080   6.086   3.203  12.578  0.4391 -0.8498 -0.0537
 1197TIP3   OH225081   4.172   4.334   4.125  0.0178  0.2429  0.2809
 1197TIP3    H125082   4.126   4.253   4.101 -0.2254  0.1835  0.9158
 1197TIP3    H225083   4.228   4.353   4.050 -1.1449  0.3889 -0.5839
 1198TIP3   OH225084   0.902   0.582   3.264 -0.3505  0.0638 -0.6158
 1198TIP3    H125085   0.927   0.663   3.310 -0.2521 -1.2893  1.9094
 1198TIP3    H225086   0.984   0.533   3.256 -0.9372 -1.4106  1.4678
 1199TIP3   OH225087   2.048   2.389  16.138 -0.8840  0.2440 -0.1266
 1199TIP3    H125088   2.124   2.333  16.122  0.8442  1.7622  2.1001
 1199TIP3    H225089   1.974   2.329  16.140  0.8039 -1.9623  1.7078
 1200TIP3   OH225090   3.367   3.538   0.505 -0.0037  0.0993  0.6318
 1200TIP3    H125091   3.343   3.457   0.461  1.8299 -0.1830  0.0708
 1200TIP3    H225092   3.428   3.511   0.574  1.4506  1.0724 -0.2280
 1201TIP3   OH225093   6.325   4.673   0.635  0.0499 -0.0882  0.1811
 1201TIP3    H125094   6.355   4.746   0.580  1.2957  0.0428  0.9928
 1201TIP3    H225095   6.405   4.638   0.673 -0.7017 -0.8146  1.1323
 1202TIP3   OH225096   1.782   3.770   5.238 -0.1967 -0.1705 -0.3926
 1202TIP3    H125097   1.763   3.687   5.281 -1.4883 -0.1142 -0.8110
 1202TIP3    H225098   1.822   3.824   5.307 -0.2655 -0.7964  0.1471
 1203TIP3   OH225099   3.762   5.864  13.584 -0.6239  0.0167  0.2299
 1203TIP3    H125100   3.846   5.898  13.555 -1.8199  1.7183 -1.5600
 1203TIP3    H225101   3.782   5.782  13.628  2.0086  0.7584  0.5447
 1204TIP3   OH225102   5.510   5.554  13.131  0.0626 -0.3247 -0.1051
 1204TIP3    H125103   5.543   5.638  13.162  0.4736 -0.4325 -0.2356
 1204TIP3    H225104   5.582   5.517  13.080  0.4779 -1.4098  1.1783
 1205TIP3   OH225105   1.718   0.982  14.710  0.1573  0.1687  0.0271
 1205TIP3    H125106   1.758   0.975  14.796  0.8923  0.0790 -0.3154
 1205TIP3    H225107   1.775   1.042  14.662  0.8171 -1.2251 -0.9858
 1206TIP3   OH225108   0.013   0.909  16.270 -0.0898  0.4251  0.4251
 1206TIP3    H125109   0.085   0.932  16.329  1.8151 -2.1958 -0.7051
 1206TIP3    H225110   0.039   0.943  16.185 -0.6380  0.2467  0.1819
 1207TIP3   OH225111   1.710   6.775  11.682 -0.4740 -0.1992  0.0499
 1207TIP3    H125112   1.690   6.759  11.774 -1.4589 -0.9583 -0.2762
 1207TIP3    H225113   1.698   6.690  11.640  3.0413 -0.6563 -0.3028
 1208TIP3   OH225114   5.858   1.798  11.113 -0.1268  0.5310  0.4039
 1208TIP3    H125115   5.818   1.864  11.169 -0.1628  0.9949 -0.1591
 1208TIP3    H225116   5.871   1.842  11.029  0.3993  0.0002  0.2004
 1209TIP3   OH225117   2.953   0.007  17.008 -0.0995  0.3252 -0.0545
 1209TIP3    H125118   2.905   0.088  17.026 -2.6492 -1.1980  0.4787
 1209TIP3    H225119   2.922  -0.019  16.921 -0.0465 -0.5530  0.1869
 1210TIP3   OH225120   4.041   1.908   0.029  0.0832 -0.0115 -0.0742
 1210TIP3    H125121   3.970   1.848   0.010 -1.0340  1.4430 -0.6560
 1210TIP3    H225122   4.090   1.866   0.100 -0.2882 -1.8537 -0.8501
 1211TIP3   OH225123   4.934   4.629   4.430  0.0903 -0.0747 -0.1504
 1211TIP3    H125124   4.998   4.664   4.492  0.7111 -1.1685 -0.1459
 1211TIP3    H225125   4.874   4.701   4.414  0.2967  0.4268  1.2201
 1212TIP3   OH225126   3.641   1.736  15.816 -0.3082 -0.1483  0.6665
 1212TIP3    H125127   3.629   1.704  15.727  1.1531 -1.6717  0.9606
 1212TIP3    H225128   3.554   1.768  15.842 -1.0519 -0.8374 -0.8417
 1213TIP3   OH225129   2.781   3.841   1.491 -0.3344 -0.2939  0.0041
 1213TIP3    H125130   2.760   3.909   1.427  0.6010  0.1607  0.1657
 1213TIP3    H225131   2.749   3.875   1.574 -1.0376 -0.6352 -0.1188
 1214TIP3   OH225132   6.396   2.132  12.094  0.2098  0.6889  0.3698
 1214TIP3    H125133   6.345   2.100  12.019 -0.3917  0.9948  0.6488
 1214TIP3    H225134   6.472   2.175  12.054  0.7913 -0.6391 -0.0304
 1215TIP3   OH225135   2.315   4.681   0.625 -0.1470  0.3080 -0.0799
 1215TIP3    H125136   2.238   4.624   0.627 -0.1362  0.3091  1.0741
 1215TIP3    H225137   2.389   4.621   0.614 -0.0805 -0.0006  1.7686
 1216TIP3   OH225138   1.292   0.123   5.839 -0.1382  0.4251  0.3022
 1216TIP3    H125139   1.305   0.147   5.748  1.7433  1.1619  0.7228
 1216TIP3    H225140   1.272   0.206   5.883 -1.1720  0.0589  0.5527
 1217TIP3   OH225141   1.584   4.676  15.853  0.3402 -0.1552 -0.4429
 1217TIP3    H125142   1.524   4.735  15.899 -0.4902 -1.1496 -0.2212
 1217TIP3    H225143   1.650   4.734  15.816 -1.1201  1.0380 -1.2791
 1218TIP3   OH225144   5.044   2.032  15.561  0.4877  0.3295  0.3286
 1218TIP3    H125145   5.082   2.004  15.478 -2.8800  1.0042 -1.6637
 1218TIP3    H225146   5.116   2.072  15.609  2.8695 -1.3102 -1.6622
 1219TIP3   OH225147   5.135   3.000   5.883  0.5962  0.3783  0.4952
 1219TIP3    H125148   5.098   3.088   5.875  0.1135  0.1234 -0.2711
 1219TIP3    H225149   5.064   2.947   5.921 -0.0093 -0.1885 -1.3052
 1220TIP3   OH225150   6.018   1.646  11.961 -0.6014 -0.0094 -0.1402
 1220TIP3    H125151   6.050   1.717  11.905 -1.4483 -0.6946 -1.5387
 1220TIP3    H225152   6.074   1.650  12.039  0.1767  1.3876 -0.7371
 1221TIP3   OH225153   1.005   3.833  14.279 -0.2701 -0.1581 -0.4867
 1221TIP3    H125154   0.924   3.787  14.257 -0.4675  0.0793 -0.2691
 1221TIP3    H225155   0.994   3.857  14.371 -0.5320  1.0653 -0.8218
 1222TIP3   OH225156   6.457   4.393   3.750 -0.9436 -0.0330  0.4237
 1222TIP3    H125157   6.517   4.466   3.761 -1.7399  0.6763  0.1700
 1222TIP3    H225158   6.491   4.325   3.807  0.0742  0.3673  0.3104
 1223TIP3   OH225159   3.151   0.359   1.525  0.3568  0.6336 -0.0695
 1223TIP3    H125160   3.098   0.360   1.604  0.3066  0.9899 -0.1073
 1223TIP3    H225161   3.111   0.290   1.471  0.9185 -0.2194  0.5613
 1224TIP3   OH225162   5.222   0.941  14.732 -0.5605  0.0639  0.2853
 1224TIP3    H125163   5.166   0.974  14.802 -1.1728 -2.3964  1.0632
 1224TIP3    H225164   5.235   0.849  14.753 -0.5732 -0.7373 -2.6903
 1225TIP3   OH225165   6.066   3.433   5.443  0.2692 -0.8603 -0.1485
 1225TIP3    H125166   6.008   3.386   5.503  0.8314 -1.3865 -0.0141
 1225TIP3    H225167   6.152   3.393   5.455  0.8169  0.3467  0.1298
 1226TIP3   OH225168   3.402   2.055  12.529  0.0634  0.1262 -0.2656
 1226TIP3    H125169   3.311   2.076  12.508  0.0398  0.2301 -0.0645
 1226TIP3    H225170   3.454   2.108  12.467 -0.0241 -0.7147 -1.0762
 1227TIP3   OH225171   1.474   6.275  11.446  0.1943  0.3868  0.4126
 1227TIP3    H125172   1.517   6.266  11.361  0.0075 -1.5001  0.4698
 1227TIP3    H225173   1.382   6.253  11.428 -0.0789  1.1018  0.9033
 1228TIP3   OH225174   1.447   6.270   6.421  0.1437  0.0952 -0.3867
 1228TIP3    H125175   1.430   6.209   6.492  0.4985  0.4598  0.0151
 1228TIP3    H225176   1.376   6.334   6.427 -0.2083 -0.2482 -0.7865
 1229TIP3   OH225177   6.323   2.182  13.807  0.1018 -0.5930  0.4303
 1229TIP3    H125178   6.385   2.117  13.839 -0.0031  0.1594  2.2773
 1229TIP3    H225179   6.296   2.149  13.721  1.7972 -1.7721  0.2918
 1230TIP3   OH225180   0.241   3.194  14.444 -0.1120 -0.3241  0.3838
 1230TIP3    H125181   0.286   3.198  14.359  0.8786  0.9949  0.9344
 1230TIP3    H225182   0.152   3.225  14.424 -0.1504 -0.8574 -0.3240
 1231TIP3   OH225183   1.314   1.243   3.106 -0.1421 -0.3824  0.4823
 1231TIP3    H125184   1.381   1.312   3.111 -2.4860  2.2593 -1.4415
 1231TIP3    H225185   1.306   1.223   3.013 -2.1355 -0.4470  0.6195
 1232TIP3   OH225186   3.135   6.072  14.836  0.0370  0.5101 -0.1435
 1232TIP3    H125187   3.190   6.111  14.903  0.2144  1.8129 -1.0106
 1232TIP3    H225188   3.099   5.993  14.877 -0.2316  1.5061  1.6166
 1233TIP3   OH225189   5.960   3.410   2.153 -0.4437  0.3058  0.3160
 1233TIP3    H125190   5.904   3.487   2.165 -0.5924  0.0178  1.6084
 1233TIP3    H225191   5.900   3.341   2.125 -0.1962  0.8193 -1.6002
 1234TIP3   OH225192   3.213   4.635  12.319 -0.3576  0.5433  0.3121
 1234TIP3    H125193   3.185   4.559  12.369  0.5274  1.0235  1.5874
 1234TIP3    H225194   3.203   4.709  12.379 -1.3045  1.4758 -0.9393
 1235TIP3   OH225195   6.300   1.152   5.861 -0.3781  0.1620  0.0886
 1235TIP3    H125196   6.237   1.081   5.853 -0.3953  0.0975  0.7712
 1235TIP3    H225197   6.340   1.158   5.774  0.0456 -1.0779  0.1732
 1236TIP3   OH225198   3.477   0.611   0.666  0.1397  0.0737  0.4660
 1236TIP3    H125199   3.425   0.545   0.713 -1.5933 -0.4995 -2.0869
 1236TIP3    H225200   3.446   0.607   0.576  1.1685  3.2447 -0.1656
 1237TIP3   OH225201   1.450   5.386  12.658  0.1808 -0.1076  0.7574
 1237TIP3    H125202   1.527   5.429  12.697  0.8268 -1.6800  1.3242
 1237TIP3    H225203   1.457   5.404  12.565  0.7788  0.4768  0.9082
 1238TIP3   OH225204   6.231   4.697   5.606  0.1972  0.4179 -0.2737
 1238TIP3    H125205   6.163   4.662   5.548  0.8702  2.2628 -2.2867
 1238TIP3    H225206   6.298   4.629   5.608  0.5252  0.6352 -2.3595
 1239TIP3   OH225207   0.486   0.683   3.660 -0.5357 -0.7463  0.1580
 1239TIP3    H125208   0.568   0.677   3.610 -1.3178  0.1185 -1.3173
 1239TIP3    H225209   0.513   0.714   3.746  0.5355  1.4975 -0.9044
 1240TIP3   OH225210   3.409   1.338   4.693 -0.1802 -0.5678 -0.4049
 1240TIP3    H125211   3.392   1.250   4.659 -0.3592 -0.1278 -1.5248
 1240TIP3    H225212   3.390   1.396   4.619  0.3348  0.3845  0.1819
 1241TIP3   OH225213   3.008   0.418  13.349 -0.9802 -0.2837 -0.1344
 1241TIP3    H125214   3.047   0.485  13.407  1.0107  1.1340 -2.8900
 1241TIP3    H225215   3.052   0.337  13.373  0.4185  0.4385 -0.1748
 1242TIP3   OH225216   3.129   2.702   6.620  0.2366  0.4242  0.0555
 1242TIP3    H125217   3.120   2.781   6.673  3.4402  0.9162  0.0676
 1242TIP3    H225218   3.181   2.643   6.674  0.4157 -0.5298 -1.1192
 1243TIP3   OH225219   4.499   4.231  13.371  0.0174 -0.8937 -0.3866
 1243TIP3    H125220   4.530   4.320  13.356  0.0010 -0.7865  0.2087
 1243TIP3    H225221   4.477   4.199  13.283 -0.3170 -0.1858 -0.5726
 1244TIP3   OH225222   2.003   0.063  17.258  0.2577  0.0253 -0.6847
 1244TIP3    H125223   1.973   0.147  17.293  0.2068  0.3768 -1.5641
 1244TIP3    H225224   2.099   0.069  17.261  0.2589  0.3199 -1.2222
 1245TIP3   OH225225   3.193   6.390  13.362 -0.1755 -0.3659 -0.0761
 1245TIP3    H125226   3.118   6.332  13.352 -1.2963  1.1463 -0.8319
 1245TIP3    H225227   3.224   6.406  13.273 -0.2024  0.5487  0.0625
 1246TIP3   OH225228   1.731   5.429  14.300  0.5068 -0.3626  0.2314
 1246TIP3    H125229   1.659   5.454  14.242 -0.5355  1.6796  2.2813
 1246TIP3    H225230   1.690   5.375  14.367  0.9149  0.5846  1.2586
 1247TIP3   OH225231   3.900   6.592   1.080  0.1517 -0.1843 -0.2943
 1247TIP3    H125232   3.885   6.664   1.140  0.1779 -0.3176 -0.1274
 1247TIP3    H225233   3.884   6.629   0.993  1.3927  0.3596 -0.3141
 1248TIP3   OH225234   6.342   4.670   1.731 -0.1647 -0.1069 -0.2947
 1248TIP3    H125235   6.327   4.733   1.801  0.3176 -0.5017  0.1661
 1248TIP3    H225236   6.365   4.588   1.776 -1.1748 -0.7255 -0.8683
 1249TIP3   OH225237   5.175   3.513  14.681  0.3045  0.0744  0.1105
 1249TIP3    H125238   5.138   3.515  14.593  0.5312 -0.7783 -0.0144
 1249TIP3    H225239   5.205   3.602  14.696 -0.7192  0.5030 -0.2451
 1250TIP3   OH225240   6.497   2.832  14.300  0.2665  0.2637  0.3400
 1250TIP3    H125241   6.501   2.882  14.381  0.1939  1.7659 -0.5528
 1250TIP3    H225242   6.412   2.854  14.262  0.8258  0.5974 -0.7595
 1251TIP3   OH225243   3.411   4.508   1.588 -0.1998  0.5585  0.6939
 1251TIP3    H125244   3.355   4.532   1.515 -0.7964 -1.6203  0.3662
 1251TIP3    H225245   3.499   4.530   1.559 -0.3838 -0.6009 -0.8632
 1252TIP3   OH225246   4.794   3.015  12.287  0.1417  0.2755  0.1445
 1252TIP3    H125247   4.701   3.017  12.264  0.2326  2.4316 -0.2894
 1252TIP3    H225248   4.839   3.041  12.206  1.0263  0.3954  0.6624
 1253TIP3   OH225249   0.704   0.007  14.098 -0.6087  0.8899  0.1153
 1253TIP3    H125250   0.768   0.028  14.165  0.8771  0.4650 -1.1049
 1253TIP3    H225251   0.692   0.089  14.050  1.1028  0.3702 -1.3042
 1254TIP3   OH225252   1.927   4.316   2.097 -0.4882  0.0605 -0.1600
 1254TIP3    H125253   1.909   4.354   2.011  1.0728  1.4710  0.0878
 1254TIP3    H225254   2.018   4.341   2.116 -0.6898 -0.4929  1.7588
 1255TIP3   OH225255   5.213   4.211  15.627 -0.6907 -0.5391  0.1290
 1255TIP3    H125256   5.193   4.165  15.709  0.1955  0.9411  1.2408
 1255TIP3    H225257   5.182   4.301  15.643  0.2258 -0.0305 -0.8492
 1256TIP3   OH225258   3.415   2.588  14.408  0.1514  0.0602  0.1259
 1256TIP3    H125259   3.412   2.516  14.345  0.9907  1.3724 -1.4888
 1256TIP3    H225260   3.495   2.573  14.458 -0.2222 -0.6691  0.5362
 1257TIP3   OH225261   1.621   2.050  16.091  0.1196 -0.1187  0.2279
 1257TIP3    H125262   1.639   1.957  16.085  0.7378  0.0858 -1.7463
 1257TIP3    H225263   1.662   2.077  16.173 -0.2024 -1.6013  0.8970
 1258TIP3   OH225264   3.521   4.872   3.678 -0.3967  0.3116  0.0642
 1258TIP3    H125265   3.482   4.958   3.662  0.9505  0.7137 -1.2993
 1258TIP3    H225266   3.592   4.888   3.740  1.5443  0.7035 -2.1363
 1259TIP3   OH225267   6.429   4.657  11.738  0.2682 -0.7266 -0.1719
 1259TIP3    H125268   6.519   4.626  11.731  0.9966  1.3796 -1.0327
 1259TIP3    H225269   6.387   4.630  11.656  0.2491 -1.3370  0.0407
 1260TIP3   OH225270   5.898   4.185   1.924 -0.0691  0.0652 -0.0844
 1260TIP3    H125271   5.862   4.271   1.946 -1.2649 -0.4776  0.1575
 1260TIP3    H225272   5.977   4.177   1.978  1.4858  1.9865 -1.8751
 1261TIP3   OH225273   2.934   5.215  15.471  0.4064 -0.3974  0.1847
 1261TIP3    H125274   2.859   5.224  15.529  0.3794 -2.3418  0.5266
 1261TIP3    H225275   2.895   5.200  15.384  0.4481  1.3904 -0.1855
 1262TIP3   OH225276   3.253   5.136  14.722  0.3643 -0.5064 -0.1719
 1262TIP3    H125277   3.179   5.168  14.671  0.9946 -0.6758 -1.2309
 1262TIP3    H225278   3.234   5.163  14.812 -0.7470 -0.1435 -0.4992
 1263TIP3   OH225279   6.784   6.132   0.080 -0.3142  0.2587 -0.1047
 1263TIP3    H125280   6.693   6.159   0.067  0.1484  2.5000  0.7857
 1263TIP3    H225281   6.793   6.051   0.029 -2.3053  0.9542 -1.7097
 1264TIP3   OH225282   1.821   2.733   5.774  0.4858 -0.2175 -0.2138
 1264TIP3    H125283   1.832   2.828   5.767 -1.5450  0.0528 -0.5838
 1264TIP3    H225284   1.780   2.708   5.691  0.9521 -1.4286 -0.1016
 1265TIP3   OH225285   0.262   6.058  12.338 -0.2452  0.0191  0.1509
 1265TIP3    H125286   0.314   6.108  12.274 -1.0401  0.3364 -0.2680
 1265TIP3    H225287   0.319   5.986  12.364  0.1449 -0.0592 -0.8483
 1266TIP3   OH225288   2.473   3.092   1.585 -0.0096  0.2935 -0.2588
 1266TIP3    H125289   2.460   3.150   1.660  4.1139  0.5530  0.4819
 1266TIP3    H225290   2.469   3.150   1.509  0.6518  0.9713  0.2032
 1267TIP3   OH225291   2.185   4.669   3.237  0.2678  0.2725 -0.6400
 1267TIP3    H125292   2.178   4.749   3.290  0.3221 -0.2184  0.1278
 1267TIP3    H225293   2.178   4.598   3.301  1.9050 -0.3415 -1.0991
 1268TIP3   OH225294   4.887   0.663  13.256  0.2886  0.2647  0.2549
 1268TIP3    H125295   4.900   0.692  13.346  1.4329  1.3068 -0.2183
 1268TIP3    H225296   4.935   0.581  13.250  2.3008  1.3884 -0.0095
 1269TIP3   OH225297   4.360   0.412   3.498  0.1068 -0.5605  0.2881
 1269TIP3    H125298   4.405   0.443   3.420  1.3168  0.1329  1.2268
 1269TIP3    H225299   4.404   0.330   3.520 -1.0132 -1.3716 -0.4038
 1270TIP3   OH225300   1.110   4.878   5.269 -0.3311 -0.1831 -0.0477
 1270TIP3    H125301   1.149   4.887   5.356  1.3644 -0.9122 -0.6893
 1270TIP3    H225302   1.174   4.918   5.210 -2.6552  2.8520 -0.8068
 1271TIP3   OH225303   1.088   2.239   3.099  0.2427 -0.5870 -0.2975
 1271TIP3    H125304   0.997   2.208   3.109 -0.4407  1.6172  0.9068
 1271TIP3    H225305   1.086   2.293   3.020  0.1908  0.4079  0.3668
 1272TIP3   OH225306   2.427   2.758  12.457 -0.1587  0.3221  0.7458
 1272TIP3    H125307   2.501   2.818  12.449  0.5149 -0.4339  1.1925
 1272TIP3    H225308   2.359   2.796  12.401 -0.0598  1.9553  1.6881
 1273TIP3   OH225309   2.726   3.267  14.961  0.1204 -0.4353  0.0467
 1273TIP3    H125310   2.689   3.180  14.947  0.3000 -0.4104 -0.5951
 1273TIP3    H225311   2.807   3.251  15.010 -1.1939 -0.4258  2.4012
 1274TIP3   OH225312   0.191   0.643  12.854  0.3742 -0.2447 -0.4625
 1274TIP3    H125313   0.179   0.551  12.832  0.1480 -1.4541  3.8861
 1274TIP3    H225314   0.285   0.652  12.868  0.5365  0.5159 -1.8872
 1275TIP3   OH225315   0.124   4.893   3.154  0.2673  0.0341  0.0770
 1275TIP3    H125316   0.039   4.936   3.146  0.2703  0.0358  0.0570
 1275TIP3    H225317   0.103   4.800   3.168  0.2112  0.2740  1.8175
 1276TIP3   OH225318   1.285   2.506   2.467 -0.2198  0.0353 -0.0408
 1276TIP3    H125319   1.346   2.472   2.533 -1.1695 -2.4405 -0.3094
 1276TIP3    H225320   1.337   2.507   2.386  0.1577  0.3367  0.2038
 1277TIP3   OH225321   6.427   3.620   4.454  0.2893 -0.6247 -0.0914
 1277TIP3    H125322   6.456   3.703   4.415 -2.7023  1.0309  0.8289
 1277TIP3    H225323   6.488   3.555   4.420  3.3410  2.0298 -0.1923
 1278TIP3   OH225324   2.498   0.680  17.041 -0.4187 -0.1968 -0.0303
 1278TIP3    H125325   2.584   0.651  17.072 -1.1168 -0.4821  1.7554
 1278TIP3    H225326   2.512   0.703  16.949  1.5698 -0.2018  0.2264
 1279TIP3   OH225327   3.602   2.160  15.413 -0.1628  0.1253 -0.1252
 1279TIP3    H125328   3.597   2.066  15.432 -1.0141  0.4801  1.7104
 1279TIP3    H225329   3.544   2.172  15.338 -0.3829 -0.7618 -0.1166
 1280TIP3   OH225330   5.102   5.574  15.267 -0.5918 -0.6247  0.6882
 1280TIP3    H125331   5.127   5.573  15.359 -1.1055  0.9367  0.8889
 1280TIP3    H225332   5.090   5.667  15.248 -0.1500 -0.8975 -1.0563
 1281TIP3   OH225333   4.628   3.940  11.985 -0.1157  0.2180  0.0445
 1281TIP3    H125334   4.692   4.010  11.998 -0.9848  1.0433  0.0096
 1281TIP3    H225335   4.630   3.923  11.891  0.1219  0.1736  0.0572
 1282TIP3   OH225336   1.637   3.984   2.396  0.6080 -0.1492  0.3053
 1282TIP3    H125337   1.703   4.027   2.450 -0.5737  0.0812  1.6198
 1282TIP3    H225338   1.639   4.032   2.313  1.3324  0.5492  0.7158
 1283TIP3   OH225339   2.358   2.171  16.596  0.2539 -0.0404  0.1340
 1283TIP3    H125340   2.412   2.215  16.530 -0.0432  0.7027  0.3784
 1283TIP3    H225341   2.369   2.078  16.577  1.9962  0.0719  0.4662
 1284TIP3   OH225342   2.156   5.518  15.173  0.4707  0.1997 -0.1023
 1284TIP3    H125343   2.143   5.441  15.228  1.7958  0.3583  0.4852
 1284TIP3    H225344   2.218   5.489  15.106 -0.3621  0.2894 -0.9299
 1285TIP3   OH225345   4.720   0.468  16.574  0.0671 -0.1573  0.5994
 1285TIP3    H125346   4.803   0.514  16.562 -0.6874  1.5861  1.6725
 1285TIP3    H225347   4.715   0.408  16.499  1.8577  0.3382  0.0298
 1286TIP3   OH225348   5.966   1.503  11.698  0.2330 -0.0589 -0.5519
 1286TIP3    H125349   6.028   1.432  11.679 -1.8608 -2.7559  1.9098
 1286TIP3    H225350   6.016   1.564  11.753  1.0124 -1.7037  0.6386
 1287TIP3   OH225351   3.398   1.535  12.439 -0.5166 -0.3410 -0.6655
 1287TIP3    H125352   3.312   1.507  12.469 -0.7255 -0.8792 -1.7187
 1287TIP3    H225353   3.439   1.455  12.405  1.1460 -0.4899  1.4789
 1288TIP3   OH225354   6.809   1.762   0.835  0.1324  0.2654  0.7520
 1288TIP3    H125355   6.723   1.799   0.815 -0.0166  0.1398  1.1620
 1288TIP3    H225356   6.832   1.799   0.920  0.7890  0.8378  0.3287
 1289TIP3   OH225357   1.215   5.632   1.888 -0.3809 -0.6161  0.3380
 1289TIP3    H125358   1.125   5.616   1.915 -0.2453  0.5020  1.5657
 1289TIP3    H225359   1.213   5.719   1.848  0.1319 -0.6073  0.3223
 1290TIP3   OH225360   1.584   4.586  15.576  0.0257 -0.2906  0.2832
 1290TIP3    H125361   1.602   4.627  15.661  1.6766  0.4416 -0.3863
 1290TIP3    H225362   1.655   4.522  15.565 -1.7480 -2.4835  0.6898
 1291TIP3   OH225363   4.551   5.157   1.911  0.3973  0.2546 -0.3788
 1291TIP3    H125364   4.567   5.143   2.004  1.6524  0.3412 -0.5666
 1291TIP3    H225365   4.635   5.138   1.869  0.0072  0.7811 -1.4284
 1292TIP3   OH225366   0.735   5.116  16.019 -0.6745  0.1693  0.1362
 1292TIP3    H125367   0.770   5.165  15.945 -1.3282  2.3675  1.1840
 1292TIP3    H225368   0.649   5.087  15.990 -1.2734  1.7271  0.2506
 1293TIP3   OH225369   1.183   1.706   5.712  0.6288 -0.4939 -0.2891
 1293TIP3    H125370   1.230   1.705   5.795  0.7234 -0.2702 -0.3386
 1293TIP3    H225371   1.219   1.782   5.665 -0.6755  0.4631  0.1910
 1294TIP3   OH225372   5.399   6.378  16.147  0.0201 -0.1306  0.0112
 1294TIP3    H125373   5.466   6.421  16.094 -0.4922 -0.2439 -0.7471
 1294TIP3    H225374   5.446   6.309  16.193  0.8438  1.2063  1.2398
 1295TIP3   OH225375   4.388   5.947  11.773 -0.1260 -0.3107 -0.0182
 1295TIP3    H125376   4.417   5.944  11.681  3.2720 -0.9815  0.9362
 1295TIP3    H225377   4.302   5.904  11.772  0.0838 -0.8888 -2.7702
 1296TIP3   OH225378   2.712   6.683   2.446  0.3101  0.1408  0.1936
 1296TIP3    H125379   2.738   6.616   2.383  0.4010 -0.6511  1.0679
 1296TIP3    H225380   2.626   6.713   2.414  0.6058  0.1616 -0.6182
 1297TIP3   OH225381   1.022   3.976   4.918 -1.0246  0.3930  0.0366
 1297TIP3    H125382   1.115   3.960   4.899 -1.1212  0.1431 -0.2550
 1297TIP3    H225383   1.012   3.957   5.011 -1.0468 -0.9146 -0.2091
 1298TIP3   OH225384   1.523   5.504  13.755 -0.4173  0.5957 -0.2841
 1298TIP3    H125385   1.450   5.476  13.811 -0.5998  0.7509 -0.4414
 1298TIP3    H225386   1.528   5.435  13.688  1.5524 -1.0537  1.4325
 1299TIP3   OH225387   4.949   5.625   5.680 -0.0305 -0.2496 -0.0659
 1299TIP3    H125388   4.943   5.711   5.638  2.4932  0.6830  1.3050
 1299TIP3    H225389   4.933   5.642   5.773  0.5960 -1.2273  0.2384
 1300TIP3   OH225390   3.673   0.159   2.791 -0.3351  0.6899 -0.2920
 1300TIP3    H125391   3.605   0.165   2.859  1.8723 -0.6218  2.2480
 1300TIP3    H225392   3.672   0.245   2.749 -2.7321  1.1017  0.4369
 1301TIP3   OH225393   0.309   3.484   4.644  0.9318 -0.6171 -0.1653
 1301TIP3    H125394   0.325   3.535   4.565 -1.5218  1.1406  0.3520
 1301TIP3    H225395   0.245   3.418   4.618 -0.9905  0.8733  0.5765
 1302TIP3   OH225396   2.238   1.115   6.643  0.3397  0.0755  0.1952
 1302TIP3    H125397   2.199   1.046   6.697  4.2438 -3.1661 -0.6900
 1302TIP3    H225398   2.224   1.085   6.553 -0.1142  1.8740 -0.3684
 1303TIP3   OH225399   5.227   4.239   3.405  0.4831 -0.0164  0.3620
 1303TIP3    H125400   5.287   4.273   3.471  1.3092  0.8319 -0.7768
 1303TIP3    H225401   5.160   4.192   3.455  1.1122  0.5352  1.7805
 1304TIP3   OH225402   0.677   1.132  17.160  0.4274  0.2099  0.0669
 1304TIP3    H125403   0.751   1.166  17.210  0.9361  0.4901 -0.8580
 1304TIP3    H225404   0.642   1.061  17.214  3.5540 -2.3839 -1.0182
 1305TIP3   OH225405   4.419   5.321   3.618 -0.2575  0.7060 -0.4161
 1305TIP3    H125406   4.384   5.253   3.562 -0.5734 -0.5171  1.1903
 1305TIP3    H225407   4.350   5.387   3.624 -1.1956 -0.3228  0.4497
 1306TIP3   OH225408   2.335   2.560  14.352 -0.0773  0.0915  0.6542
 1306TIP3    H125409   2.312   2.468  14.364 -0.0386 -0.0728 -0.4466
 1306TIP3    H225410   2.270   2.593  14.289 -0.9460  1.1906  2.0589
 1307TIP3   OH225411   2.642   6.383   3.836  0.2966 -0.2576  0.3811
 1307TIP3    H125412   2.621   6.459   3.783  0.3288 -0.3648  0.2121
 1307TIP3    H225413   2.561   6.331   3.837  0.4416 -0.5022  0.0140
 1308TIP3   OH225414   5.736   1.139  17.044 -0.0066  0.0442  0.4438
 1308TIP3    H125415   5.791   1.177  17.113 -0.2521  0.4154  0.4385
 1308TIP3    H225416   5.762   1.047  17.041  1.1848  0.3891 -0.1240
 1309TIP3   OH225417   6.001   5.119   5.823  0.0654  0.2761 -0.4038
 1309TIP3    H125418   6.062   5.089   5.890  0.9506 -0.6043 -1.5520
 1309TIP3    H225419   5.915   5.112   5.863  0.4399 -1.6839  0.1589
 1310TIP3   OH225420   5.978   0.031   1.599 -0.0875 -0.3349  0.4282
 1310TIP3    H125421   6.043   0.021   1.668 -0.3569  1.1933  0.9431
 1310TIP3    H225422   6.012   0.103   1.545 -0.8539 -0.1768  0.1386
 1311TIP3   OH225423   1.860   4.115   4.526  0.2886 -0.4038 -0.0383
 1311TIP3    H125424   1.885   4.044   4.585  3.6635  0.9819  0.4377
 1311TIP3    H225425   1.824   4.182   4.582  0.0676 -0.5144 -0.0485
 1312TIP3   OH225426   1.371   5.932   6.127 -0.4037 -0.4588  0.3260
 1312TIP3    H125427   1.421   5.936   6.209  2.4042  2.3419 -1.3254
 1312TIP3    H225428   1.378   5.840   6.099  1.7027 -0.7030  1.4529
 1313TIP3   OH225429   6.513   0.039   2.915  0.6472 -0.1355 -0.4178
 1313TIP3    H125430   6.553  -0.003   2.839  2.0990  0.1974  0.1440
 1313TIP3    H225431   6.450   0.101   2.877  0.0914 -1.1983 -1.2927
 1314TIP3   OH225432   2.386   1.390  10.409 -0.2461 -0.0504  0.4254
 1314TIP3    H125433   2.385   1.460  10.344 -0.1149  0.9051  1.4180
 1314TIP3    H225434   2.367   1.310  10.359  0.4496  0.5616 -0.8737
 1315TIP3   OH225435   5.317   3.542   4.035 -0.2123 -0.2620 -0.6393
 1315TIP3    H125436   5.317   3.594   4.116 -1.9566  0.0061 -0.7760
 1315TIP3    H225437   5.236   3.491   4.039 -0.4197 -0.1159 -2.2778
 1316TIP3   OH225438   5.745   0.305  11.264  0.0759 -0.4709 -0.0781
 1316TIP3    H125439   5.830   0.324  11.302  0.6718 -1.7182 -0.7296
 1316TIP3    H225440   5.765   0.263  11.180 -1.1862  0.4349 -0.8810
 1317TIP3   OH225441   6.127   3.846  13.581  0.4568 -0.1100  0.2260
 1317TIP3    H125442   6.105   3.796  13.502  0.3919  0.9405 -0.4459
 1317TIP3    H225443   6.043   3.878  13.613  0.5179 -0.2640  0.5438
 1318TIP3   OH225444   0.807   1.127   4.796 -0.0952 -0.1592 -0.8732
 1318TIP3    H125445   0.741   1.066   4.830 -0.9487  1.3451  0.2665
 1318TIP3    H225446   0.861   1.149   4.872  0.6559 -0.0299 -1.4350
 1319TIP3   OH225447   4.985   1.856   3.238  0.0882 -0.4696  0.1163
 1319TIP3    H125448   4.892   1.834   3.244  0.4806 -1.8064  1.8863
 1319TIP3    H225449   4.992   1.907   3.157 -2.6435  2.0820  1.2877
 1320TIP3   OH225450   5.200   0.695   4.534  0.2338  0.2898 -0.5920
 1320TIP3    H125451   5.199   0.603   4.562 -0.0594 -0.0109 -1.5625
 1320TIP3    H225452   5.141   0.698   4.459  0.3683  1.2441 -0.6718
 1321TIP3   OH225453   2.215   2.771   5.108  0.3048  0.4865  0.5947
 1321TIP3    H125454   2.130   2.790   5.148 -0.4922 -0.2071 -0.7028
 1321TIP3    H225455   2.223   2.676   5.113  1.5902  0.6207  1.7894
 1322TIP3   OH225456   2.437   0.235  11.578  0.1800 -0.4192  0.2427
 1322TIP3    H125457   2.482   0.186  11.510  0.0347  0.7944 -0.7566
 1322TIP3    H225458   2.409   0.168  11.641  2.3730 -1.3122  0.3474
 1323TIP3   OH225459   2.639   0.541  11.337 -0.3844  0.2485 -0.0683
 1323TIP3    H125460   2.694   0.619  11.342  0.6471 -0.4896  0.2278
 1323TIP3    H225461   2.647   0.511  11.247 -0.9622  0.6041 -0.2433
 1324TIP3   OH225462   2.459   4.612  16.712  0.4210 -0.2853 -0.6664
 1324TIP3    H125463   2.366   4.606  16.692  0.7890 -1.7355 -2.1468
 1324TIP3    H225464   2.484   4.701  16.688 -0.8656  0.6840  1.2968
 1325TIP3   OH225465   2.315   1.149   0.442  0.3739 -0.3074 -0.2292
 1325TIP3    H125466   2.326   1.233   0.398 -1.5816  1.2264  1.9432
 1325TIP3    H225467   2.373   1.153   0.518 -0.6696 -0.3277  0.5956
 1326TIP3   OH225468   2.839   3.803  12.409  0.0238 -0.6004 -0.0467
 1326TIP3    H125469   2.904   3.815  12.340 -0.5469 -0.3215 -0.5449
 1326TIP3    H225470   2.772   3.748  12.369 -0.6139  0.0750  0.0796
 1327TIP3   OH225471   4.179   0.502   6.437 -0.8565  0.1063 -0.2325
 1327TIP3    H125472   4.271   0.515   6.459 -0.1504 -1.6492 -1.9383
 1327TIP3    H225473   4.158   0.576   6.379 -1.2144  1.7292  1.8362
 1328TIP3   OH225474   6.034   4.371  10.571 -0.6438 -0.5006 -0.1977
 1328TIP3    H125475   6.101   4.370  10.503  1.1281 -0.9740  1.4528
 1328TIP3    H225476   5.963   4.424  10.535  1.1020  1.0118 -1.5767
 1329TIP3   OH225477   1.339   3.353   0.716  0.6244  0.4465  0.1576
 1329TIP3    H125478   1.408   3.375   0.778 -1.2614  1.1375  2.1321
 1329TIP3    H225479   1.311   3.437   0.680 -0.2838  0.3554  0.6327
 1330TIP3   OH225480   0.625   0.095  17.113 -0.3088  0.1321 -0.3461
 1330TIP3    H125481   0.636   0.159  17.043 -1.1360  0.6466 -0.0117
 1330TIP3    H225482   0.714   0.068  17.136  0.0363  1.0999 -0.5411
 1331TIP3   OH225483   5.288   5.270  17.198  0.1091 -0.0807 -0.3635
 1331TIP3    H125484   5.326   5.188  17.168  0.0643 -0.2982  0.1626
 1331TIP3    H225485   5.361   5.317  17.239  0.3066  0.4746 -1.3199
 1332TIP3   OH225486   5.610   0.332  12.895 -0.6619 -0.3601  0.4002
 1332TIP3    H125487   5.592   0.405  12.835 -0.7595 -0.3726  0.4134
 1332TIP3    H225488   5.576   0.255  12.848  0.1314 -0.5025  0.0546
 1333TIP3   OH225489   2.104   3.004  16.032 -0.0111  0.3069  0.0966
 1333TIP3    H125490   2.126   3.015  16.125  0.8446  0.4377 -0.1104
 1333TIP3    H225491   2.087   3.093  16.001  1.2324  0.4528 -0.2234
 1334TIP3   OH225492   0.901   3.472  14.625  0.3437 -0.0995 -0.3452
 1334TIP3    H125493   0.954   3.496  14.701  0.0071  0.2776 -0.2250
 1334TIP3    H225494   0.930   3.383  14.603  0.1637 -0.3729  0.4802
 1335TIP3   OH225495   5.568   6.320   1.685  0.3954  0.0848  0.6510
 1335TIP3    H125496   5.654   6.350   1.655  1.6116 -2.1546  1.6655
 1335TIP3    H225497   5.580   6.303   1.778 -2.2702  3.2823  1.7744
 1336TIP3   OH225498   5.032   3.550   0.743  0.0419  0.2217  0.3033
 1336TIP3    H125499   5.125   3.556   0.719 -0.2788  0.6835 -0.8788
 1336TIP3    H225500   5.033   3.530   0.837  1.3733 -2.2152 -0.1361
 1337TIP3   OH225501   2.550   2.693   5.764  0.3791 -0.8477  0.2944
 1337TIP3    H125502   2.503   2.769   5.728 -0.1642 -0.5011  1.6711
 1337TIP3    H225503   2.603   2.729   5.834  0.3551 -1.7027  0.7593
 1338TIP3   OH225504   6.279   5.375  16.942  0.2893 -0.0317  0.0964
 1338TIP3    H125505   6.201   5.369  16.886 -1.1892 -0.9729  2.1077
 1338TIP3    H225506   6.285   5.467  16.965 -2.4193 -0.3348  2.6533
 1339TIP3   OH225507   5.339   0.350   4.916 -0.4780  0.0523  0.4041
 1339TIP3    H125508   5.423   0.376   4.878 -0.2891 -0.2976  0.5787
 1339TIP3    H225509   5.322   0.415   4.984 -0.0972 -0.1655  0.7133
 1340TIP3   OH225510   0.104   3.091  11.638 -0.2709 -0.0003 -1.1012
 1340TIP3    H125511   0.064   3.161  11.586 -0.9034  1.2361  0.9178
 1340TIP3    H225512   0.047   3.015  11.623 -2.4164  1.2225  0.2692
 1341TIP3   OH225513   5.831   6.656  15.586 -0.3823 -0.2795  0.5002
 1341TIP3    H125514   5.875   6.729  15.630  0.3963  0.4971 -1.4728
 1341TIP3    H225515   5.875   6.578  15.621  1.3300  0.3932 -0.0438
 1342TIP3   OH225516   1.986   5.806   4.737 -0.4759 -0.7425  0.2136
 1342TIP3    H125517   1.909   5.862   4.752 -0.4933 -0.6685 -0.1574
 1342TIP3    H225518   1.985   5.745   4.810 -1.9453 -1.9351 -0.7593
 1343TIP3   OH225519   0.325   0.075   0.760 -0.1981  0.2403 -0.2655
 1343TIP3    H125520   0.414   0.106   0.746  0.1029 -0.4437  0.0998
 1343TIP3    H225521   0.270   0.142   0.719  0.4537  0.9493 -0.0104
 1344TIP3   OH225522   4.118   1.565  16.133 -0.5363  0.3929 -0.1468
 1344TIP3    H125523   4.024   1.561  16.115 -0.2306 -1.0177 -1.6818
 1344TIP3    H225524   4.149   1.639  16.081 -0.2807 -1.3665 -2.7134
 1345TIP3   OH225525   3.566   5.673   4.805 -0.1427  0.1609  0.9263
 1345TIP3    H125526   3.597   5.584   4.819  0.1101  0.3796  1.7844
 1345TIP3    H225527   3.639   5.728   4.834 -0.2757  0.6516  0.3459
 1346TIP3   OH225528   3.070   6.262   2.040  0.3911  0.3466  0.2479
 1346TIP3    H125529   3.069   6.250   2.135 -0.6557  2.1898  0.5170
 1346TIP3    H225530   2.990   6.220   2.010 -0.3205  1.4774  0.4751
 1347TIP3   OH225531   2.137   5.347  14.121  0.4058 -0.0427  0.3698
 1347TIP3    H125532   2.051   5.349  14.080  1.0681  1.7244 -1.0541
 1347TIP3    H225533   2.162   5.439  14.128  2.2589 -0.5289  0.5869
 1348TIP3   OH225534   1.592   0.378   0.075  0.0636 -0.3577  0.1217
 1348TIP3    H125535   1.541   0.457   0.055  0.1678 -0.3658 -0.1880
 1348TIP3    H225536   1.666   0.382   0.014 -0.2317 -0.9857 -0.2907
 1349TIP3   OH225537   3.164   3.353   6.275 -0.2527 -0.2728 -0.2108
 1349TIP3    H125538   3.134   3.263   6.286  0.3696 -0.3895  0.7211
 1349TIP3    H225539   3.115   3.403   6.340  0.8899 -0.3234  0.7412
 1350TIP3   OH225540   2.392   2.228   1.516 -0.3257 -0.4627 -0.5364
 1350TIP3    H125541   2.400   2.265   1.428 -1.2214 -0.5463 -0.6651
 1350TIP3    H225542   2.311   2.267   1.551 -0.6823 -1.4398 -0.2483
 1351TIP3   OH225543   1.365   5.248  14.613  0.3274 -0.2369 -0.4429
 1351TIP3    H125544   1.356   5.301  14.692 -0.5777  0.1302 -0.7899
 1351TIP3    H225545   1.323   5.298  14.544  1.0833 -0.5672 -1.1709
 1352TIP3   OH225546   3.344   0.982  11.120  0.1511 -0.0199 -0.4722
 1352TIP3    H125547   3.285   0.991  11.045 -1.4240 -0.2405  0.7142
 1352TIP3    H225548   3.425   1.026  11.091 -0.5304  0.2143 -2.1590
 1353TIP3   OH225549   2.852   3.746   1.060 -0.1837 -0.8199 -0.0799
 1353TIP3    H125550   2.803   3.665   1.053 -0.3266 -0.7053 -0.4183
 1353TIP3    H225551   2.829   3.795   0.981  1.6432 -1.3951 -1.0210
 1354TIP3   OH225552   0.509   0.716   5.589 -0.7281  0.0896  0.0765
 1354TIP3    H125553   0.570   0.682   5.523 -1.7766  0.5742 -1.1920
 1354TIP3    H225554   0.501   0.644   5.652  1.1908  0.0489  0.3333
 1355TIP3   OH225555   3.361   5.333   2.285 -0.0934  0.3156 -0.3598
 1355TIP3    H125556   3.288   5.274   2.269 -0.9263  1.3062 -0.2769
 1355TIP3    H225557   3.332   5.389   2.357  1.9912 -1.3523  1.9527
 1356TIP3   OH225558   2.873   0.214   3.756 -0.4280 -0.2475 -0.0989
 1356TIP3    H125559   2.847   0.296   3.715 -0.1467  0.5977  1.3206
 1356TIP3    H225560   2.843   0.146   3.696 -2.9164  0.7830 -0.1445
 1357TIP3   OH225561   0.081   5.665   2.107 -0.1635  0.5661  0.0981
 1357TIP3    H125562   0.009   5.690   2.164 -1.0966 -0.1978 -0.7194
 1357TIP3    H225563   0.084   5.733   2.040 -0.6328  0.2041 -0.2999
 1358TIP3   OH225564   0.773   6.453   2.636 -0.2226  0.0423 -0.4363
 1358TIP3    H125565   0.741   6.500   2.713 -0.6481  1.2074 -1.2852
 1358TIP3    H225566   0.813   6.522   2.581  2.2451 -1.0919 -0.2092
 1359TIP3   OH225567   0.502   1.964  11.054 -0.2268 -0.0949  0.1072
 1359TIP3    H125568   0.565   2.002  10.992 -0.3700  1.2005  0.7126
 1359TIP3    H225569   0.445   1.910  11.000 -1.7275  2.6948 -1.3591
 1360TIP3   OH225570   5.586   5.775   4.891  0.4520  0.9285 -0.4539
 1360TIP3    H125571   5.613   5.866   4.879  0.3560  0.7768 -1.9946
 1360TIP3    H225572   5.495   5.781   4.921  1.0385  1.3527  1.3784
 1361TIP3   OH225573   6.302   3.977  15.503 -0.2896 -0.2707 -0.3184
 1361TIP3    H125574   6.278   3.938  15.419  1.7546  1.0706 -1.6042
 1361TIP3    H225575   6.367   4.044  15.481 -1.1665  1.5392  2.1365
 1362TIP3   OH225576   2.903   1.229   3.558  0.1200  0.1997 -0.0473
 1362TIP3    H125577   2.988   1.261   3.528 -0.2381  1.3351  0.0765
 1362TIP3    H225578   2.840   1.289   3.517 -0.6412 -0.8161 -0.3844
 1363TIP3   OH225579   2.862   5.579  16.002  0.7345 -0.0455  0.0909
 1363TIP3    H125580   2.899   5.542  15.922 -0.0486 -2.0951  0.6139
 1363TIP3    H225581   2.910   5.535  16.073 -0.4143 -0.2858  0.7387
 1364TIP3   OH225582   0.811   3.794   5.502  0.4670 -0.2818 -0.7696
 1364TIP3    H125583   0.775   3.874   5.465  1.8677  2.2804  2.8717
 1364TIP3    H225584   0.903   3.814   5.519  0.8513 -2.6309  0.4371
 1365TIP3   OH225585   1.194   3.700   5.184 -0.3598 -0.6976  0.1591
 1365TIP3    H125586   1.215   3.790   5.159  0.0491 -0.4187  1.4617
 1365TIP3    H225587   1.099   3.693   5.173 -0.3950 -0.1122  0.0776
 1366TIP3   OH225588   0.040   3.862  15.542 -0.1223 -0.3257  0.7359
 1366TIP3    H125589   0.104   3.845  15.611 -0.3706 -0.9141  0.8365
 1366TIP3    H225590  -0.023   3.790  15.551 -1.7796  1.1919  1.7907
 1367TIP3   OH225591   1.471   1.127  12.119 -0.6850 -0.4704 -0.0826
 1367TIP3    H125592   1.381   1.101  12.138 -1.0484 -0.7224 -1.9685
 1367TIP3    H225593   1.499   1.177  12.197 -0.7921 -4.2321  2.6259
 1368TIP3   OH225594   2.379   1.978   2.598  0.6857 -0.6455 -0.0250
 1368TIP3    H125595   2.358   1.963   2.690  1.2431 -0.5453  0.1209
 1368TIP3    H225596   2.314   1.927   2.550 -3.2632  3.3922  0.2448
 1369TIP3   OH225597   1.459   4.373   0.675  0.0877 -0.5563  0.0503
 1369TIP3    H125598   1.482   4.407   0.762 -0.7178 -0.4698  0.2323
 1369TIP3    H225599   1.529   4.312   0.654  0.7272  0.0367  0.4061
 1370TIP3   OH225600   3.902   0.203  12.747 -0.3821 -0.3909  0.1178
 1370TIP3    H125601   3.889   0.169  12.836 -1.5763  0.2876  0.2246
 1370TIP3    H225602   3.817   0.239  12.723  0.2160  0.3743 -0.9056
 1371TIP3   OH225603   6.245   2.789  12.589 -0.1110 -0.4791  0.2255
 1371TIP3    H125604   6.156   2.760  12.571 -0.0704 -1.2035  1.1078
 1371TIP3    H225605   6.299   2.711  12.574  0.5300  0.2339 -1.3717
 1372TIP3   OH225606   5.915   3.917  13.097 -0.7924  0.4010 -0.1381
 1372TIP3    H125607   5.825   3.897  13.070 -1.1747 -0.3337  1.5327
 1372TIP3    H225608   5.963   3.835  13.082 -0.1546  1.0254 -1.7992
 1373TIP3   OH225609   1.546   3.735  12.204  0.0319  0.1105  0.0031
 1373TIP3    H125610   1.629   3.744  12.251 -1.2398  0.2318  2.3872
 1373TIP3    H225611   1.560   3.662  12.143  1.4649 -0.7828  1.3429
 1374TIP3   OH225612   5.563   6.077   5.448 -0.1035 -0.8330 -0.0326
 1374TIP3    H125613   5.553   6.098   5.355 -0.9568 -1.3653 -0.0661
 1374TIP3    H225614   5.621   6.001   5.449 -0.0396 -0.7868 -0.1201
 1375TIP3   OH225615   3.659   3.879   3.451 -0.1086  0.1560 -0.0593
 1375TIP3    H125616   3.693   3.793   3.428  1.5659  1.1442 -1.5201
 1375TIP3    H225617   3.636   3.920   3.367  3.1055  2.6514  0.0693
 1376TIP3   OH225618   3.324   4.431   2.995  0.1328  0.1190  0.4942
 1376TIP3    H125619   3.258   4.483   2.949  1.1291  0.5186 -0.5316
 1376TIP3    H225620   3.314   4.455   3.087 -0.4045  0.9941  0.2165
 1377TIP3   OH225621   1.504   5.211   4.832  0.5083 -0.3351 -0.5656
 1377TIP3    H125622   1.541   5.247   4.912 -1.4122  1.9890 -0.6246
 1377TIP3    H225623   1.567   5.234   4.764  1.2477 -0.6970 -0.0200
 1378TIP3   OH225624   1.653   5.855   3.698  0.4459  0.3143  0.5858
 1378TIP3    H125625   1.603   5.884   3.774 -0.6212 -1.7757  0.7439
 1378TIP3    H225626   1.635   5.921   3.631 -1.6234  0.2169  0.9871
 1379TIP3   OH225627   4.292   5.147  11.899  0.0403  0.5230  0.6394
 1379TIP3    H125628   4.272   5.184  11.985 -1.3473  1.4278 -0.0458
 1379TIP3    H225629   4.279   5.219  11.838  1.0807 -0.0927 -0.3448
 1380TIP3   OH225630   3.631   5.507   0.134 -0.1960 -0.2108  0.1836
 1380TIP3    H125631   3.551   5.560   0.136 -0.9377 -0.9080 -3.3038
 1380TIP3    H225632   3.701   5.568   0.157 -1.4002  1.3039  0.0016
 1381TIP3   OH225633   1.438   1.855   5.820 -0.0362  0.0575 -0.2430
 1381TIP3    H125634   1.414   1.905   5.743  1.6426 -1.0907 -1.5951
 1381TIP3    H225635   1.532   1.869   5.829  0.1672 -1.4627  0.3397
 1382TIP3   OH225636   1.188   2.273   2.233  0.3277 -0.2725  0.2373
 1382TIP3    H125637   1.108   2.288   2.284 -0.5281 -0.0019 -1.1208
 1382TIP3    H225638   1.247   2.344   2.259  0.3999 -0.8568  1.7356
 1383TIP3   OH225639   4.477   4.230  11.965  0.1951  0.4549 -0.8380
 1383TIP3    H125640   4.496   4.316  12.001 -2.2190  0.3016  1.1126
 1383TIP3    H225641   4.509   4.169  12.032 -1.2290  0.0286 -0.5009
 1384TIP3   OH225642   3.026   6.792  12.108 -0.1400 -0.4372 -0.1854
 1384TIP3    H125643   2.959   6.855  12.136  1.4321  1.0771  0.3908
 1384TIP3    H225644   2.980   6.731  12.051 -1.6904  1.5563 -1.1933
 1385TIP3   OH225645   0.264   1.484  14.061  0.1742  0.6668  0.0747
 1385TIP3    H125646   0.249   1.487  13.966  0.1999  4.1591  0.0444
 1385TIP3    H225647   0.202   1.419  14.093 -0.0513 -0.3967 -2.2846
 1386TIP3   OH225648   2.545   1.203   0.624 -0.2331  0.2093  0.4032
 1386TIP3    H125649   2.582   1.290   0.605  0.1550 -0.0030  0.1726
 1386TIP3    H225650   2.594   1.172   0.700 -0.6264  0.3439  0.7181
 1387TIP3   OH225651   1.380   2.594   5.417  0.4646 -0.2642 -0.0806
 1387TIP3    H125652   1.351   2.514   5.373 -0.2022  0.2658 -0.6154
 1387TIP3    H225653   1.431   2.641   5.351  2.6700 -1.2042  0.8582
 1388TIP3   OH225654   6.075   5.583   5.588  0.4301  0.3373  0.0175
 1388TIP3    H125655   6.157   5.575   5.540  0.7043  0.4710  0.4524
 1388TIP3    H225656   6.026   5.651   5.541  0.5163  0.1669 -0.3181
 1389TIP3   OH225657   6.508   0.927  15.762  0.1120  0.5681 -0.7329
 1389TIP3    H125658   6.483   0.843  15.800 -0.0874  0.5092 -0.9880
 1389TIP3    H225659   6.549   0.975  15.833  0.2474  0.2442 -0.5925
 1390TIP3   OH225660   1.677   0.023  11.000  0.1575  0.1694 -0.8163
 1390TIP3    H125661   1.660  -0.026  10.920 -0.2429 -1.1951  0.0571
 1390TIP3    H225662   1.598   0.075  11.014 -0.0350 -0.0789 -0.9766
 1391TIP3   OH225663   5.741   3.532   1.558 -0.0075  0.0450  0.7107
 1391TIP3    H125664   5.706   3.618   1.536 -0.1584 -0.7695 -2.8596
 1391TIP3    H225665   5.699   3.509   1.641 -2.1293  2.2036  0.3236
 1392TIP3   OH225666   2.528   0.718   2.400  0.6975  0.0753  0.0112
 1392TIP3    H125667   2.439   0.687   2.383  0.7057  0.5555 -0.9656
 1392TIP3    H225668   2.584   0.664   2.344  1.2516 -1.4595  1.9215
 1393TIP3   OH225669   0.554   1.247  10.368  0.2525 -0.3771  0.2900
 1393TIP3    H125670   0.588   1.333  10.392 -1.1733 -0.2486  1.9863
 1393TIP3    H225671   0.538   1.203  10.451 -1.6404 -1.2455 -0.4842
 1394TIP3   OH225672   1.662   3.192   1.362 -0.0432  0.2170 -0.3219
 1394TIP3    H125673   1.697   3.145   1.437 -0.4234  0.1703 -0.1740
 1394TIP3    H225674   1.590   3.244   1.397 -0.4874 -0.1170 -0.7179
 1395TIP3   OH225675   1.676   5.173  15.913  0.0014 -0.0610 -0.1702
 1395TIP3    H125676   1.753   5.126  15.946 -0.4545 -1.0687 -0.5019
 1395TIP3    H225677   1.672   5.151  15.820 -0.0641  0.8839 -0.3992
 1396TIP3   OH225678   6.219   0.441   2.675 -0.3089 -0.2568  0.0455
 1396TIP3    H125679   6.246   0.501   2.605 -0.2989 -1.5724 -1.1305
 1396TIP3    H225680   6.142   0.396   2.640 -0.9060 -0.2483  1.2895
 1397TIP3   OH225681   6.064   6.148   5.940 -0.6610 -0.1805 -0.1106
 1397TIP3    H125682   6.073   6.095   5.861 -0.6996 -0.6253  0.1778
 1397TIP3    H225683   5.975   6.130   5.971  0.3605 -2.5835  1.8275
 1398TIP3   OH225684   4.344   3.166  14.041  0.0481  0.1672  0.1052
 1398TIP3    H125685   4.338   3.070  14.048 -0.7791  0.1695 -0.3649
 1398TIP3    H225686   4.255   3.196  14.061  0.0972  0.7809 -0.5889
 1399TIP3   OH225687   1.457   1.354  13.539  0.0601 -0.4201 -0.2973
 1399TIP3    H125688   1.395   1.329  13.471 -0.6931  0.9906 -0.1778
 1399TIP3    H225689   1.476   1.447  13.521 -1.3175  0.4475  2.2232
 1400TIP3   OH225690   1.392   5.979   2.015  0.1387 -0.1172  0.2554
 1400TIP3    H125691   1.368   5.897   2.058  1.0635 -1.7128 -2.0837
 1400TIP3    H225692   1.356   5.972   1.927  2.6372  0.7121 -0.9307
 1401TIP3   OH225693   5.696   6.640   5.039  0.4180  0.3614  0.3608
 1401TIP3    H125694   5.655   6.726   5.040  1.9530  1.1151  0.7291
 1401TIP3    H225695   5.707   6.617   5.132 -0.0037 -0.2443  0.2652
 1402TIP3   OH225696   4.463   5.772  13.049 -0.1652  0.1745  0.3293
 1402TIP3    H125697   4.444   5.777  12.955 -1.2122 -0.2754  0.5018
 1402TIP3    H225698   4.386   5.810  13.091  1.4301  2.9300  0.9764
 1403TIP3   OH225699   4.243   4.804   4.570 -0.6085  0.2974  0.6735
 1403TIP3    H125700   4.195   4.793   4.487  0.6042  0.8052 -0.1267
 1403TIP3    H225701   4.228   4.722   4.617  0.1780 -0.7809 -0.8669
 1404TIP3   OH225702   1.735   1.379  11.726  0.6354  0.0720  0.1718
 1404TIP3    H125703   1.686   1.341  11.653  0.9818 -0.5704  0.2681
 1404TIP3    H225704   1.720   1.318  11.799  1.2669  0.0718  0.3047
 1405TIP3   OH225705   1.519   4.822   0.618  0.1438  0.3100  0.3082
 1405TIP3    H125706   1.499   4.763   0.546 -0.5256  1.5043 -0.5257
 1405TIP3    H225707   1.611   4.804   0.640  0.0519 -0.7671 -0.1553
 1406TIP3   OH225708   2.972   0.910  15.211 -0.1113 -0.0538  0.0070
 1406TIP3    H125709   3.055   0.866  15.194  0.3638  1.0121 -0.5043
 1406TIP3    H225710   2.949   0.885  15.300  0.7835 -0.3293  0.1662
 1407TIP3   OH225711   0.023   4.976   4.109 -0.2256  0.4098  0.1237
 1407TIP3    H125712  -0.019   5.031   4.042 -1.4340 -0.8068 -0.1576
 1407TIP3    H225713   0.036   5.035   4.183 -0.9676  1.2296 -0.3698
 1408TIP3   OH225714   1.897   2.927   2.010 -0.3130  0.1094  0.1587
 1408TIP3    H125715   1.940   2.988   1.951 -0.3807 -0.6857 -0.7340
 1408TIP3    H225716   1.892   2.845   1.961  0.0684 -0.7179  1.4375
 1409TIP3   OH225717   4.479   3.905   4.507  0.1826  0.2703  0.3367
 1409TIP3    H125718   4.480   3.995   4.538 -0.4534  0.4464 -0.1498
 1409TIP3    H225719   4.399   3.867   4.544 -0.9316  0.6654 -1.5551
 1410TIP3   OH225720   1.179   5.478   5.400  0.5762 -0.2787  0.3292
 1410TIP3    H125721   1.188   5.496   5.306 -1.2618  1.7834  0.4675
 1410TIP3    H225722   1.154   5.386   5.405  0.1700 -0.2706 -1.2318
 1411TIP3   OH225723   5.743   1.983  11.958  0.2141  0.4342  0.3524
 1411TIP3    H125724   5.709   2.056  11.906 -1.4021  0.3678  1.2334
 1411TIP3    H225725   5.816   2.020  12.006 -0.3305  1.3829  0.4804
 1412TIP3   OH225726   4.694   3.430   2.130  0.1919  0.2334 -0.8346
 1412TIP3    H125727   4.715   3.345   2.171  0.8911 -0.1033 -1.8411
 1412TIP3    H225728   4.641   3.407   2.054  1.7094  0.5134 -2.0466
 1413TIP3   OH225729   0.463   1.012  15.132 -0.7264  0.1500 -0.7623
 1413TIP3    H125730   0.389   1.013  15.071 -0.9997  1.8220 -0.4522
 1413TIP3    H225731   0.518   0.940  15.102 -1.4037  0.2411 -2.3145
 1414TIP3   OH225732   0.817   3.191   1.532  0.1696 -0.0535 -0.4993
 1414TIP3    H125733   0.722   3.181   1.537  0.2502 -0.3003  1.1180
 1414TIP3    H225734   0.831   3.249   1.457 -1.2234 -0.2691 -0.9576
 1415TIP3   OH225735   2.572   1.341   3.313  0.7337 -0.5895 -0.5849
 1415TIP3    H125736   2.536   1.253   3.313  0.3957 -0.5312  1.8628
 1415TIP3    H225737   2.497   1.398   3.299  0.4039 -0.6016  1.0036
 1416TIP3   OH225738   3.567   6.671  16.958 -0.3884  0.0859  0.2940
 1416TIP3    H125739   3.584   6.759  16.924 -0.8805  0.9097  2.0696
 1416TIP3    H225740   3.472   6.667  16.967 -0.4328 -0.9148 -0.4315
 1417TIP3   OH225741   4.585   3.407   5.854  0.2667 -0.2142  0.8206
 1417TIP3    H125742   4.643   3.461   5.909  0.3063  0.4716  0.1284
 1417TIP3    H225743   4.631   3.324   5.846  0.5218 -0.1342  1.3665
 1418TIP3   OH225744   0.184   2.668  15.269 -0.3715  0.4153  0.1385
 1418TIP3    H125745   0.239   2.639  15.196 -3.4165 -0.3868 -2.0694
 1418TIP3    H225746   0.167   2.760  15.251 -1.1570  0.2073 -0.2571
 1419TIP3   OH225747   1.494   6.143   5.944 -0.2096  0.1941  0.0222
 1419TIP3    H125748   1.463   6.060   5.982 -0.6625  0.4459  0.2177
 1419TIP3    H225749   1.519   6.196   6.020  0.5101  0.0728 -0.1256
 1420TIP3   OH225750   4.854   4.774   1.074  0.5855  0.1212 -0.2293
 1420TIP3    H125751   4.840   4.695   1.022  1.5463  1.0013 -1.9122
 1420TIP3    H225752   4.791   4.837   1.039  1.5348  0.8597 -0.6397
 1421TIP3   OH225753   4.777   3.018   6.701 -0.5785  0.4961 -0.5028
 1421TIP3    H125754   4.857   2.974   6.672 -0.6026  1.3528 -1.9305
 1421TIP3    H225755   4.799   3.111   6.702 -1.6410  0.7741 -1.2493
 1422TIP3   OH225756   5.502   5.828  15.222 -0.1547  0.4860 -0.5209
 1422TIP3    H125757   5.555   5.883  15.165 -0.5555  0.0782 -1.2996
 1422TIP3    H225758   5.435   5.887  15.257 -0.4585  0.5483 -1.1918
 1423TIP3   OH225759   1.020   5.726   5.692  0.5899  0.0277  0.0098
 1423TIP3    H125760   0.971   5.761   5.617  0.6478  3.0870  1.2494
 1423TIP3    H225761   0.973   5.646   5.715 -0.6749  0.1041 -2.0224
 1424TIP3   OH225762   2.073   0.152  13.331  0.0879  0.0516 -0.3638
 1424TIP3    H125763   2.146   0.114  13.281  0.7733 -1.6619  1.7822
 1424TIP3    H225764   2.012   0.080  13.343 -1.9792  1.4255 -1.9819
 1425TIP3   OH225765   1.292   1.047  13.790  0.0065 -0.9702  0.5371
 1425TIP3    H125766   1.207   1.040  13.832 -0.1315 -1.7228  0.1528
 1425TIP3    H225767   1.284   0.994  13.711  0.1831  0.5848 -0.5740
 1426TIP3   OH225768   4.592   1.140  12.051  0.1785 -0.1534 -0.0086
 1426TIP3    H125769   4.679   1.181  12.047 -0.8122  2.0737 -0.2895
 1426TIP3    H225770   4.538   1.191  11.991 -1.4589 -1.1828  0.5089
 1427TIP3   OH225771   1.018   0.262  14.113 -0.5318 -0.4245 -0.3362
 1427TIP3    H125772   1.014   0.329  14.181 -1.4190 -0.2804 -0.5217
 1427TIP3    H225773   0.992   0.181  14.156 -2.2708 -0.1214 -0.7477
 1428TIP3   OH225774   2.880   2.569   3.694 -0.4192 -0.6635  0.1965
 1428TIP3    H125775   2.957   2.515   3.712 -0.4692 -0.8903 -0.2737
 1428TIP3    H225776   2.856   2.548   3.604 -1.5257 -1.2088  0.5962
 1429TIP3   OH225777   3.985   1.832   2.250  0.5158 -0.1179 -0.1972
 1429TIP3    H125778   3.965   1.745   2.214  0.7110 -1.3293  2.3790
 1429TIP3    H225779   3.899   1.870   2.268  0.3690  0.9391 -2.6387
 1430TIP3   OH225780   0.344   4.210   5.512 -0.4323 -0.2012  0.4008
 1430TIP3    H125781   0.297   4.152   5.453 -1.6440  0.6966  0.4551
 1430TIP3    H225782   0.328   4.298   5.479  0.3440  0.2077  1.0424
 1431TIP3   OH225783   0.752   1.440  15.625  0.6571  0.5048  0.8014
 1431TIP3    H125784   0.682   1.491  15.584  1.8396  1.7193  0.1947
 1431TIP3    H225785   0.712   1.356  15.644 -1.0883  1.2995  0.8801
 1432TIP3   OH225786   5.886   1.917  12.361  0.4000  0.0319 -0.6688
 1432TIP3    H125787   5.875   1.967  12.442  2.4939 -1.7157  0.8462
 1432TIP3    H225788   5.811   1.940  12.307  0.6167  3.8022  0.3712
 1433TIP3   OH225789   2.906   4.207   2.430  0.3127 -0.2674  0.3612
 1433TIP3    H125790   2.901   4.115   2.405  0.2667  0.3927 -2.3787
 1433TIP3    H225791   2.999   4.229   2.423  0.0706  0.3833 -1.1098
 1434TIP3   OH225792   1.720   3.060   1.125  0.8502 -0.6506 -0.1403
 1434TIP3    H125793   1.733   2.967   1.143  1.0590 -0.3941  1.1093
 1434TIP3    H225794   1.688   3.097   1.207  1.8889  0.6001 -0.2531
 1435TIP3   OH225795   2.978   3.854   5.739 -0.1240  0.1764 -0.2389
 1435TIP3    H125796   2.976   3.766   5.776  1.4241  0.7703  1.4209
 1435TIP3    H225797   2.907   3.900   5.784  0.2281  0.2524  0.2446
 1436TIP3   OH225798   3.137   3.635  10.910 -0.3469  0.2504 -0.7684
 1436TIP3    H125799   3.107   3.703  10.850  1.2884  0.9028 -0.9183
 1436TIP3    H225800   3.122   3.553  10.863  0.9375  0.7487 -2.1396
 1437TIP3   OH225801   2.651   2.218   3.769  0.3882  0.7669 -0.1690
 1437TIP3    H125802   2.636   2.307   3.736  0.4991  1.0629  0.5548
 1437TIP3    H225803   2.689   2.171   3.695  1.7481  1.7404 -0.1419
 1438TIP3   OH225804   0.896   5.569   3.537 -0.4478 -0.5938  0.3518
 1438TIP3    H125805   0.860   5.483   3.559 -2.0594 -0.5246 -1.7216
 1438TIP3    H225806   0.904   5.614   3.621  0.0197 -2.5911  1.4295
 1439TIP3   OH225807   3.093   3.394  10.770  0.0954 -0.2943 -0.0375
 1439TIP3    H125808   3.011   3.437  10.747  0.8973  0.2435 -2.1887
 1439TIP3    H225809   3.068   3.318  10.822 -1.6822  0.3545  0.1017
 1440TIP3   OH225810   1.510   1.238  16.039 -0.2266 -0.0949  0.1023
 1440TIP3    H125811   1.423   1.208  16.013  0.3320 -1.1799 -0.5652
 1440TIP3    H225812   1.543   1.170  16.098  0.2744  0.1855  0.1526
 1441TIP3   OH225813   1.391   4.273   2.047  0.5912  0.3501 -0.1977
 1441TIP3    H125814   1.302   4.251   2.016  0.7103 -0.8604  0.2480
 1441TIP3    H225815   1.427   4.328   1.978 -0.4356  0.6824 -0.4883
 1442TIP3   OH225816   2.159   6.349  16.382  0.2322 -0.1407  0.1758
 1442TIP3    H125817   2.236   6.364  16.328 -0.1223 -0.1627 -0.3436
 1442TIP3    H225818   2.085   6.355  16.321 -0.0025 -3.7770 -0.1389
 1443TIP3   OH225819   0.227   2.338   4.217 -0.3060 -0.1813  0.0451
 1443TIP3    H125820   0.268   2.395   4.153  2.6832 -1.5956  0.5576
 1443TIP3    H225821   0.241   2.382   4.301  1.6926 -1.3696  0.3997
 1444TIP3   OH225822   6.093   1.411  16.623 -0.0908  0.0305  0.5256
 1444TIP3    H125823   6.142   1.378  16.547 -0.9442  0.2836 -0.1542
 1444TIP3    H225824   6.055   1.493  16.593 -1.4782 -0.4864  0.8018
 1445TIP3   OH225825   3.248   5.744  13.806 -0.3050 -0.4926 -0.0551
 1445TIP3    H125826   3.204   5.783  13.882  0.7880 -1.7256  1.2626
 1445TIP3    H225827   3.311   5.810  13.778  0.0517 -0.4555  0.8168
 1446TIP3   OH225828   3.777   4.080  17.271 -0.2567 -0.0951 -0.1527
 1446TIP3    H125829   3.777   4.152  17.208  0.9334 -0.0854 -0.1520
 1446TIP3    H225830   3.699   4.028  17.248 -1.0035  1.0484 -0.2909
 1447TIP3   OH225831   2.334   1.674   5.276  0.3418  0.0731 -0.0640
 1447TIP3    H125832   2.368   1.604   5.220  1.0323  0.0209  0.4069
 1447TIP3    H225833   2.410   1.706   5.324 -0.4289 -0.8260  1.8824
 1448TIP3   OH225834   4.445   3.215  17.012  0.3001 -0.0417  0.2361
 1448TIP3    H125835   4.449   3.177  17.100 -0.2049 -0.2547  0.1705
 1448TIP3    H225836   4.504   3.291  17.016  0.8782 -0.5039  0.5232
 1449TIP3   OH225837   5.230   0.655  11.452 -0.3424 -0.3304 -0.5004
 1449TIP3    H125838   5.162   0.717  11.423  1.6376  1.1420 -2.3052
 1449TIP3    H225839   5.306   0.675  11.397  1.6931 -1.7078  1.6360
 1450TIP3   OH225840   4.880   2.706   1.721 -0.8887 -0.3189 -0.4477
 1450TIP3    H125841   4.953   2.765   1.707 -1.3894 -0.0139 -1.8967
 1450TIP3    H225842   4.911   2.646   1.790  0.6464 -0.0975 -0.9125
 1451TIP3   OH225843   0.511   5.859  14.794 -0.1175  0.3533 -0.1605
 1451TIP3    H125844   0.574   5.919  14.834 -3.1513  0.8549  4.8364
 1451TIP3    H225845   0.444   5.916  14.757 -0.7517  0.0366  0.4704
 1452TIP3   OH225846   3.059   2.895   2.388  0.8943 -0.3515 -0.3706
 1452TIP3    H125847   2.976   2.926   2.423  1.1362 -0.3027  0.1616
 1452TIP3    H225848   3.060   2.801   2.408  1.4082 -0.1617  0.5096
 1453TIP3   OH225849   0.198   5.823   4.219  0.3245  0.4146 -0.1084
 1453TIP3    H125850   0.120   5.785   4.178  1.6005 -1.8513 -0.6267
 1453TIP3    H225851   0.164   5.877   4.290 -1.7346 -0.0702 -0.6635
 1454TIP3   OH225852   3.509   2.170  12.793  0.2099  0.4739  0.2077
 1454TIP3    H125853   3.502   2.078  12.767 -1.1054  0.5735  0.1277
 1454TIP3    H225854   3.419   2.202  12.793  0.3675  1.1438  2.4791
 1455TIP3   OH225855   6.186   2.096   3.322  0.2644 -0.5948 -0.3801
 1455TIP3    H125856   6.189   2.191   3.310  0.6341 -0.4991  0.4414
 1455TIP3    H225857   6.144   2.064   3.242 -0.6268  0.3280 -0.3140
 1456TIP3   OH225858   5.176   4.547  13.012 -0.0338 -0.2642  0.4477
 1456TIP3    H125859   5.191   4.567  12.920  0.6318  1.4808  0.8985
 1456TIP3    H225860   5.260   4.512  13.043  0.1259  0.3079  0.6709
 1457TIP3   OH225861   1.452   1.616  13.439 -0.2371  0.7321 -0.0455
 1457TIP3    H125862   1.467   1.698  13.486  1.3181  0.7939 -0.5851
 1457TIP3    H225863   1.435   1.643  13.349  0.0609  0.4792 -0.1798
 1458TIP3   OH225864   6.544   1.199  11.542  0.0686  0.4442 -0.7305
 1458TIP3    H125865   6.602   1.227  11.613  0.7268 -0.2020 -0.9974
 1458TIP3    H225866   6.474   1.151  11.586 -0.1482  1.0271 -0.4263
 1459TIP3   OH225867   4.379   2.164  12.934 -0.0778  0.3874 -0.1307
 1459TIP3    H125868   4.332   2.227  12.879  2.2830  1.7462 -0.7540
 1459TIP3    H225869   4.398   2.090  12.875 -0.5219  0.3023 -0.1671
 1460TIP3   OH225870   4.369   5.247   1.697  0.5597  0.7035  0.1258
 1460TIP3    H125871   4.393   5.300   1.773  0.9045  1.4934 -0.5273
 1460TIP3    H225872   4.452   5.226   1.655  0.2836  1.7879 -1.0362
 1461TIP3   OH225873   2.019   1.787   2.080  0.4147  0.0470  0.2497
 1461TIP3    H125874   1.978   1.716   2.129 -0.7237 -0.3593 -1.2438
 1461TIP3    H225875   1.954   1.857   2.078 -0.3075 -0.5936 -2.1231
 1462TIP3   OH225876   4.239   2.028   6.064 -0.0658 -0.1406  0.0651
 1462TIP3    H125877   4.222   2.088   5.992 -0.1418  0.0385  0.2316
 1462TIP3    H225878   4.162   2.036   6.121 -0.0386 -0.3330  0.1305
 1463TIP3   OH225879   2.882   2.273  14.791 -0.0201  0.6768 -0.2267
 1463TIP3    H125880   2.858   2.348  14.737  0.1573 -0.9462 -2.7895
 1463TIP3    H225881   2.800   2.227  14.806  0.1211  0.3700 -0.3723
 1464TIP3   OH225882   2.619   0.215   3.199  0.3002 -0.0810  0.6005
 1464TIP3    H125883   2.659   0.229   3.285  0.3969 -0.2830  0.5870
 1464TIP3    H225884   2.529   0.190   3.219  0.0402  0.8223  0.6222
 1465TIP3   OH225885   0.111   6.539   2.369  0.1266  0.2826  0.2376
 1465TIP3    H125886   0.092   6.577   2.283  0.2186 -3.2362 -1.5123
 1465TIP3    H225887   0.029   6.498   2.396  1.2195 -2.6538 -0.5224
 1466TIP3   OH225888   2.748   0.381  14.568  0.5635 -0.2927 -0.3625
 1466TIP3    H125889   2.755   0.419  14.655  1.4157 -0.9171 -0.1519
 1466TIP3    H225890   2.695   0.302  14.580  1.2326 -0.7411 -0.2780
 1467TIP3   OH225891   1.079   1.123   3.349  0.5636 -0.0861  0.0495
 1467TIP3    H125892   1.079   1.204   3.401  1.1577 -1.0998  1.7338
 1467TIP3    H225893   1.172   1.105   3.334  0.3986  0.0956 -1.2487
 1468TIP3   OH225894   4.158   1.645   0.768  0.6016 -0.1945 -0.1312
 1468TIP3    H125895   4.183   1.691   0.688 -1.6885  1.9842  0.2837
 1468TIP3    H225896   4.179   1.706   0.838  0.8952 -1.3457  0.8222
 1469TIP3   OH225897   1.585   4.068   1.522  0.4438 -0.0279  0.2912
 1469TIP3    H125898   1.601   4.110   1.438 -0.7257  1.5346  0.8013
 1469TIP3    H225899   1.666   4.082   1.572  1.2955 -1.3241 -0.6777
 1470TIP3   OH225900   0.210   1.875  12.956 -0.0945 -0.4295 -0.4547
 1470TIP3    H125901   0.162   1.796  12.979 -0.1264 -0.8073 -1.7876
 1470TIP3    H225902   0.242   1.860  12.868  1.3810  0.3490 -0.0837
 1471TIP3   OH225903   0.714   1.677  14.029 -0.4179  0.1907 -0.1932
 1471TIP3    H125904   0.655   1.608  13.998 -0.8894  0.7566 -0.5785
 1471TIP3    H225905   0.796   1.662  13.982 -0.3200 -0.4603  0.1682
 1472TIP3   OH225906   2.834   4.095   1.873  0.1814  0.0310 -0.0299
 1472TIP3    H125907   2.762   4.156   1.860  1.7735  1.9843 -0.2568
 1472TIP3    H225908   2.904   4.148   1.911  1.4595 -1.8093  0.3484
 1473TIP3   OH225909   5.398   4.845  13.351 -0.2126 -0.3532 -0.1746
 1473TIP3    H125910   5.436   4.817  13.268  0.0083  0.1408 -0.2476
 1473TIP3    H225911   5.472   4.853  13.411 -0.4235 -1.1094  0.1907
 1474TIP3   OH225912   6.239   6.465   1.900  0.1202  0.0411  0.7432
 1474TIP3    H125913   6.316   6.452   1.955  0.9620  1.1923 -0.1171
 1474TIP3    H225914   6.171   6.494   1.960 -0.0659 -2.1959  1.7262
 1475TIP3   OH225915   2.418   1.222   4.495  0.6898  0.7340 -0.0953
 1475TIP3    H125916   2.494   1.279   4.509  0.7779  0.2066  1.8847
 1475TIP3    H225917   2.406   1.221   4.400  1.0545  3.5562 -0.2731
 1476TIP3   OH225918   0.888   4.387  15.623  0.3194 -0.0321  0.0338
 1476TIP3    H125919   0.874   4.478  15.597 -0.8988 -0.6550 -1.7136
 1476TIP3    H225920   0.833   4.337  15.562  3.1932 -2.1308 -1.0108
 1477TIP3   OH225921   6.653   0.903  12.831 -0.4318  0.1909 -0.0998
 1477TIP3    H125922   6.679   0.890  12.740 -1.0397 -0.0011 -0.2500
 1477TIP3    H225923   6.672   0.995  12.848  0.8461 -0.0607 -0.0269
 1478TIP3   OH225924   6.274   0.775   2.644 -0.1522  0.7828  0.0208
 1478TIP3    H125925   6.351   0.826   2.670 -1.4743  2.2488  1.1916
 1478TIP3    H225926   6.217   0.776   2.720 -0.3317 -2.4084  0.0579
 1479TIP3   OH225927   5.679   6.373  12.630  0.3891 -0.1429  0.4850
 1479TIP3    H125928   5.737   6.300  12.652 -0.5324 -1.1137 -0.2313
 1479TIP3    H225929   5.692   6.387  12.536  0.3282  0.4236  0.5524
 1480TIP3   OH225930   4.128   0.884   5.863  0.7389  0.2314  0.2485
 1480TIP3    H125931   4.184   0.873   5.940 -0.1434  2.0000  1.2011
 1480TIP3    H225932   4.134   0.977   5.842  0.5423 -0.1115 -1.5335
 1481TIP3   OH225933   0.813   1.521  16.370 -0.1444 -0.4403 -0.7135
 1481TIP3    H125934   0.722   1.539  16.396 -0.3287 -0.0578 -1.6059
 1481TIP3    H225935   0.814   1.533  16.275  0.6825 -1.1532 -0.8048
 1482TIP3   OH225936   0.245   5.422   3.834 -0.3832 -0.4071  0.2421
 1482TIP3    H125937   0.190   5.452   3.906 -2.5019  0.0478 -1.4492
 1482TIP3    H225938   0.190   5.360   3.786  0.6221 -0.0692 -1.4441
 1483TIP3   OH225939   1.437   0.817  12.947 -0.1196  0.1175  0.1221
 1483TIP3    H125940   1.512   0.825  13.006  2.0939  0.1895 -2.4787
 1483TIP3    H225941   1.438   0.726  12.919  0.9702  0.7380 -2.1672
 1484TIP3   OH225942   4.577   0.840   2.068 -0.0123 -0.2248  0.0810
 1484TIP3    H125943   4.627   0.801   1.996 -1.2845 -1.5623 -0.1205
 1484TIP3    H225944   4.631   0.914   2.097  0.8328 -0.0283 -1.8204
 1485TIP3   OH225945   4.670   5.354   2.862  0.2933  0.2885  0.3835
 1485TIP3    H125946   4.602   5.375   2.798  1.3309  2.0903 -0.2108
 1485TIP3    H225947   4.717   5.280   2.825 -1.4190 -1.0977  0.8937
 1486TIP3   OH225948   3.891   0.377  17.290 -0.2452  0.2645  0.4270
 1486TIP3    H125949   3.829   0.440  17.252  2.6058  3.1209  0.1508
 1486TIP3    H225950   3.865   0.370  17.382 -2.3093 -0.4605 -0.1502
 1487TIP3   OH225951   5.736   6.137   3.938 -0.6197  0.6378 -0.3601
 1487TIP3    H125952   5.798   6.165   4.006  1.2587 -3.3748 -0.1023
 1487TIP3    H225953   5.790   6.124   3.860 -1.3900 -1.1820 -0.6614
 1488TIP3   OH225954   6.665   3.971  15.239  0.4562  0.5375  0.3737
 1488TIP3    H125955   6.638   4.024  15.314 -1.1745  1.0438 -0.5352
 1488TIP3    H225956   6.583   3.950  15.193  1.2939 -0.8015 -0.5932
 1489TIP3   OH225957   0.171   2.387  16.142  0.3977  0.2343  0.3177
 1489TIP3    H125958   0.144   2.341  16.222  0.0934 -0.5385 -0.2143
 1489TIP3    H225959   0.158   2.479  16.162 -0.7717 -0.0069  0.7834
 1490TIP3   OH225960   5.220   4.492   4.334 -0.0657  0.8924 -0.4484
 1490TIP3    H125961   5.133   4.453   4.324  1.0381 -2.0146  0.3130
 1490TIP3    H225962   5.220   4.527   4.423  0.2243 -1.2168  0.4441
 1491TIP3   OH225963   6.197   5.300   5.383 -0.0092 -0.3638 -0.1875
 1491TIP3    H125964   6.240   5.381   5.413  1.9948 -1.7235  0.8655
 1491TIP3    H225965   6.143   5.273   5.456 -0.4515 -0.1435 -0.4294
 1492TIP3   OH225966   1.117   4.841  12.101 -0.3906 -0.3747  0.3319
 1492TIP3    H125967   1.059   4.903  12.145 -2.3401 -1.6164 -0.3758
 1492TIP3    H225968   1.100   4.757  12.143  1.6638 -0.6307  0.7646
 1493TIP3   OH225969   1.334   5.933  13.751  0.1913  0.3077 -0.0397
 1493TIP3    H125970   1.326   6.010  13.695 -0.0620  1.4494  1.4944
 1493TIP3    H225971   1.260   5.939  13.811 -0.3839 -1.6758 -0.4882
 1494TIP3   OH225972   5.148   6.168  10.727  0.2640  0.1796 -0.0767
 1494TIP3    H125973   5.125   6.097  10.788  1.5121 -0.3785 -0.2232
 1494TIP3    H225974   5.236   6.146  10.697 -0.4701  0.2231 -2.4237
 1495TIP3   OH225975   3.713   4.482   3.730  0.1170  0.1848  0.4411
 1495TIP3    H125976   3.623   4.510   3.713 -0.3405 -0.6849  1.3280
 1495TIP3    H225977   3.767   4.555   3.699 -0.8696  0.6253 -0.3168
 1496TIP3   OH225978   1.926   0.011  16.480  0.2533 -0.1191 -0.4010
 1496TIP3    H125979   2.006   0.037  16.435  0.0910  2.2279  0.5298
 1496TIP3    H225980   1.868  -0.021  16.411  1.2978 -0.0390 -1.3356
 1497TIP3   OH225981   1.047   5.767  12.098 -0.1943 -0.1207 -0.3138
 1497TIP3    H125982   0.990   5.747  12.172  1.6153 -0.5659  1.0379
 1497TIP3    H225983   1.084   5.682  12.073  1.8337  0.4315  0.5811
 1498TIP3   OH225984   3.631   4.361  15.914  0.5016  0.4281 -0.2071
 1498TIP3    H125985   3.691   4.319  15.976  0.6388  1.6903  0.5445
 1498TIP3    H225986   3.615   4.294  15.847  0.7406 -0.7928  0.9249
 1499TIP3   OH225987   6.292   6.360   2.394 -1.0750  0.2250 -0.9572
 1499TIP3    H125988   6.308   6.360   2.299 -0.1675 -0.6755 -0.8168
 1499TIP3    H225989   6.359   6.301   2.430 -1.5128  0.4272  0.2295
 1500TIP3   OH225990   4.514   6.692  13.785  0.6406  0.4428  0.2337
 1500TIP3    H125991   4.564   6.661  13.860  0.4456  0.1067  0.2243
 1500TIP3    H225992   4.423   6.672  13.806  0.4630  1.3998  0.4200
 1501TIP3   OH225993   2.615   2.847   0.517 -0.6609 -0.2504 -0.3935
 1501TIP3    H125994   2.591   2.807   0.601 -0.3128 -0.6481 -0.4807
 1501TIP3    H225995   2.651   2.933   0.540  1.9681 -1.4020  0.1128
 1502TIP3   OH225996   3.305   6.150   2.491 -0.0597  0.0219 -0.3451
 1502TIP3    H125997   3.375   6.087   2.504 -0.3931 -0.3834 -0.4741
 1502TIP3    H225998   3.263   6.124   2.409 -0.1365  0.4730 -0.4544
 1503TIP3   OH225999   1.272   3.739  11.477  0.1979  0.0117 -0.1365
 1503TIP3    H126000   1.178   3.723  11.488  0.2435 -0.2641 -0.1372
 1503TIP3    H226001   1.301   3.769  11.563  0.2430 -0.5843  0.0597
 1504TIP3   OH226002   2.413   6.471   3.134  0.4453  0.4482 -0.1549
 1504TIP3    H126003   2.349   6.539   3.113  0.0914 -0.2550 -1.4860
 1504TIP3    H226004   2.497   6.516   3.132  0.3356  0.6410 -2.2685
 1505TIP3   OH226005   5.978   0.296   2.316 -0.5544 -0.1166  0.6983
 1505TIP3    H126006   6.014   0.276   2.229 -1.0051  0.7031  0.3152
 1505TIP3    H226007   5.924   0.220   2.338 -2.2306  0.5941 -0.7328
 1506TIP3   OH226008   4.444   3.791  15.443  0.1299 -0.3333 -0.1915
 1506TIP3    H126009   4.521   3.817  15.493 -0.0617  3.8451 -1.6881
 1506TIP3    H226010   4.372   3.793  15.506  0.5461  0.5183  0.2705
 1507TIP3   OH226011   2.535   0.682  16.776 -0.2751  0.1773  0.1899
 1507TIP3    H126012   2.457   0.645  16.735 -1.4811  0.7495  1.8516
 1507TIP3    H226013   2.533   0.775  16.751 -0.1287  0.1981  0.2550
 1508TIP3   OH226014   2.775   3.190   3.481  0.2187 -0.3401 -0.1800
 1508TIP3    H126015   2.685   3.223   3.484 -0.5239 -2.1232 -1.0618
 1508TIP3    H226016   2.785   3.156   3.392  1.4486 -1.0139  0.1946
 1509TIP3   OH226017   5.791   2.308   6.063  0.5928 -0.1919  0.7236
 1509TIP3    H126018   5.834   2.313   6.149 -1.9290  0.5725  2.0351
 1509TIP3    H226019   5.719   2.371   6.069 -3.0639 -3.9349  0.0847
 1510TIP3   OH226020   1.732   2.885   3.273  0.4712 -0.3679 -0.3438
 1510TIP3    H126021   1.817   2.877   3.230  0.4380 -1.3390 -0.2474
 1510TIP3    H226022   1.683   2.807   3.245  0.4047 -0.9663  1.3368
 1511TIP3   OH226023   0.429   6.420  12.188 -0.5791 -0.6688  0.1523
 1511TIP3    H126024   0.368   6.493  12.176  0.8013  0.3847 -0.9008
 1511TIP3    H226025   0.404   6.356  12.121  0.1859  0.3042 -1.1166
 1512TIP3   OH226026   2.885   2.225   2.491  0.1769  0.0298 -0.1984
 1512TIP3    H126027   2.920   2.232   2.403  1.8760  1.1482  0.5218
 1512TIP3    H226028   2.791   2.239   2.480  0.4485  0.8411 -1.7387
 1513TIP3   OH226029   6.213   2.387   6.329 -0.0865  0.0070 -0.6161
 1513TIP3    H126030   6.293   2.423   6.367 -1.6481 -0.0279  3.1977
 1513TIP3    H226031   6.166   2.463   6.295  0.2882  0.4375 -0.1912
 1514TIP3   OH226032   0.749   3.673   2.430  0.4740  0.3971 -0.6558
 1514TIP3    H126033   0.662   3.711   2.441  0.5286  0.6934 -1.1920
 1514TIP3    H226034   0.777   3.649   2.518 -0.5179 -0.5227 -0.5589
 1515TIP3   OH226035   2.797   2.802   5.496  0.7397 -0.1685  0.2453
 1515TIP3    H126036   2.776   2.733   5.433  1.4769 -1.4834  1.3909
 1515TIP3    H226037   2.788   2.760   5.581  0.5369  1.3621  1.0109
 1516TIP3   OH226038   2.015   3.690   3.111  0.2710  0.1681  0.3491
 1516TIP3    H126039   2.109   3.674   3.111  0.0668 -1.4389 -1.9724
 1516TIP3    H226040   2.002   3.760   3.047 -0.0766  1.0973  1.3886
 1517TIP3   OH226041   4.360   6.551  16.475 -0.1702  0.0697  0.0878
 1517TIP3    H126042   4.367   6.524  16.567 -0.5383  0.8010  0.3352
 1517TIP3    H226043   4.302   6.627  16.477 -0.9422 -0.4786 -0.8587
 1518TIP3   OH226044   4.041   2.243   2.043  0.3590 -0.4690 -0.7140
 1518TIP3    H126045   4.072   2.235   2.134 -1.5446  0.4834  0.0590
 1518TIP3    H226046   4.051   2.155   2.007  1.8569 -0.7006  0.1470
 1519TIP3   OH226047   5.486   3.023   3.123 -0.2020 -0.3921  0.3206
 1519TIP3    H126048   5.469   3.070   3.205 -1.1154 -1.9452  1.0686
 1519TIP3    H226049   5.418   3.054   3.063  0.0269  0.2225  0.3721
 1520TIP3   OH226050   0.567   2.338  14.405 -0.1076 -0.7137  0.2812
 1520TIP3    H126051   0.477   2.355  14.434  0.3565  1.1475  0.8224
 1520TIP3    H226052   0.559   2.316  14.313 -1.1414 -0.7977  0.3768
 1521TIP3   OH226053   3.014   2.896  10.508  0.7002 -0.5033  0.1208
 1521TIP3    H126054   3.075   2.961  10.544  0.1307 -0.8454  1.8049
 1521TIP3    H226055   2.948   2.884  10.577 -1.2991 -0.1610 -1.6232
 1522TIP3   OH226056   1.887   5.635  14.236  0.4492  0.3067 -0.1450
 1522TIP3    H126057   1.850   5.664  14.152  0.4802  1.6510  0.2773
 1522TIP3    H226058   1.824   5.572  14.269 -0.5479  1.1947 -0.3025
 1523TIP3   OH226059   0.173   5.876   0.216 -0.3704 -0.3055 -0.0623
 1523TIP3    H126060   0.149   5.846   0.304  0.8111  0.2007  0.4434
 1523TIP3    H226061   0.192   5.969   0.226 -1.4326  0.0608 -1.1144
 1524TIP3   OH226062   0.101   4.453   1.824 -0.0543  0.0251 -0.0822
 1524TIP3    H126063   0.119   4.400   1.902 -0.5058 -0.4960 -0.3328
 1524TIP3    H226064   0.085   4.541   1.859 -0.6780 -0.2977  0.4502
 1525TIP3   OH226065   6.040   3.660   4.680  0.7291 -0.4778  0.5853
 1525TIP3    H126066   6.031   3.570   4.650  1.1017  0.1170 -1.5062
 1525TIP3    H226067   6.015   3.658   4.773 -1.4268 -2.3232  0.0485
 1526TIP3   OH226068   1.899   5.633   5.531 -0.4247  0.2905  0.7318
 1526TIP3    H126069   1.848   5.597   5.603 -1.0625 -0.0840  0.1138
 1526TIP3    H226070   1.959   5.694   5.572 -1.2150  0.5701  1.5099
 1527TIP3   OH226071   4.054   0.644  12.172 -0.1274 -0.6432 -0.1210
 1527TIP3    H126072   4.113   0.718  12.157  1.3609 -1.7053  0.2397
 1527TIP3    H226073   4.100   0.569  12.134 -1.3657 -1.4792 -0.0142
 1528TIP3   OH226074   3.099   3.236   0.531 -0.4772 -0.7371  0.3243
 1528TIP3    H126075   3.192   3.246   0.552 -0.7013  0.3274  0.9063
 1528TIP3    H226076   3.077   3.147   0.558 -0.1841 -0.2175  2.4376
 1529TIP3   OH226077   2.700   4.536   4.124 -0.0952 -0.2099 -0.2857
 1529TIP3    H126078   2.748   4.529   4.042  0.3248  1.0613 -0.1773
 1529TIP3    H226079   2.635   4.466   4.121 -2.0555  1.5531 -3.0101
 1530TIP3   OH226080   1.700   1.843  11.978 -0.0655  0.1212  0.2185
 1530TIP3    H126081   1.767   1.890  12.028  0.2693 -0.2065  0.0782
 1530TIP3    H226082   1.717   1.867  11.887  1.3046 -1.7298 -0.0727
 1531TIP3   OH226083   2.015   2.366  13.907  0.1566 -0.2418 -0.2711
 1531TIP3    H126084   1.997   2.277  13.937 -0.3468 -0.1832 -0.3935
 1531TIP3    H226085   1.939   2.390  13.855  0.1460  0.3764  0.0142
 1532TIP3   OH226086   0.852   6.331  17.042 -0.0573  0.1867  0.2248
 1532TIP3    H126087   0.897   6.390  16.982 -0.9927 -0.0499 -0.7192
 1532TIP3    H226088   0.800   6.389  17.098  0.3634  0.3684  0.4272
 1533TIP3   OH226089   3.260   0.095  14.727 -0.4080 -0.7828  0.3880
 1533TIP3    H126090   3.337   0.144  14.756 -1.3177 -0.0176  1.6600
 1533TIP3    H226091   3.188   0.156  14.738 -0.9900 -0.7110 -2.8883
 1534TIP3   OH226092   3.371   3.923  13.658 -0.2939  0.4839  0.2951
 1534TIP3    H126093   3.320   3.891  13.584 -0.9085  2.0509  0.0069
 1534TIP3    H226094   3.397   3.844  13.705 -2.3265 -0.4076  0.0106
 1535TIP3   OH226095   2.761   0.671  16.117 -0.1783  0.0623  0.5429
 1535TIP3    H126096   2.699   0.619  16.168 -1.7257  2.1922  0.9331
 1535TIP3    H226097   2.758   0.632  16.030 -3.2667  0.9374  0.1226
 1536TIP3   OH226098   4.911   4.370   1.767  0.1321  0.3169 -0.8758
 1536TIP3    H126099   4.985   4.322   1.729 -0.1890  0.2562 -1.4419
 1536TIP3    H226100   4.915   4.456   1.726 -1.0267 -0.1882 -2.1385
 1537TIP3   OH226101   5.785   1.122  16.526 -0.1241  0.3464  0.3200
 1537TIP3    H126102   5.864   1.108  16.578 -0.3996 -1.3012  0.3338
 1537TIP3    H226103   5.714   1.116  16.589 -0.2917  2.2531  0.3835
 1538TIP3   OH226104   4.042   6.335   4.690  0.0423  0.4189  0.1475
 1538TIP3    H126105   4.051   6.246   4.655  3.0391  0.9082 -0.5564
 1538TIP3    H226106   4.050   6.325   4.784  1.8835  0.0426 -0.0180
 1539TIP3   OH226107   5.146   3.655   0.116 -0.5066 -0.1449 -0.3602
 1539TIP3    H126108   5.238   3.633   0.131 -0.0532  0.6334 -1.7797
 1539TIP3    H226109   5.098   3.610   0.186  1.0082 -0.0485  0.7813
 1540TIP3   OH226110   1.037   1.941   5.277  0.2181  0.2372 -0.1870
 1540TIP3    H126111   0.972   1.876   5.252  0.8657 -1.1743  1.5782
 1540TIP3    H226112   1.008   1.973   5.363  1.4923  0.0449  0.3469
 1541TIP3   OH226113   4.424   4.632  12.784  0.5579 -0.2498  0.2998
 1541TIP3    H126114   4.337   4.605  12.754  0.8198 -0.4466 -0.2977
 1541TIP3    H226115   4.456   4.557  12.835 -0.0247  0.2152  1.3939
 1542TIP3   OH226116   4.275   5.135   0.422 -0.2609  0.3990  0.5925
 1542TIP3    H126117   4.273   5.074   0.349  0.3563 -0.2944  1.1424
 1542TIP3    H226118   4.247   5.219   0.384 -0.2706 -0.0223 -0.3557
 1543TIP3   OH226119   0.245   0.739  10.968  0.0183  0.2508  0.2372
 1543TIP3    H126120   0.281   0.653  10.947  0.6367  0.4522  0.4552
 1543TIP3    H226121   0.151   0.723  10.981  0.0870 -0.3439  0.0412
 1544TIP3   OH226122   6.213   6.041  15.622 -0.5038  0.4371  0.5335
 1544TIP3    H126123   6.225   6.084  15.537  0.9421  0.3955  0.6779
 1544TIP3    H226124   6.182   6.111  15.680 -1.6996  0.4180 -0.0615
 1545TIP3   OH226125   1.788   1.459   1.425 -0.2543 -0.2324 -0.3948
 1545TIP3    H126126   1.723   1.399   1.388 -1.5749  1.0593 -0.2105
 1545TIP3    H226127   1.778   1.540   1.375  1.5210 -0.1204 -0.6506
 1546TIP3   OH226128   0.545   1.135  12.746  0.2282  0.0025 -0.6674
 1546TIP3    H126129   0.633   1.128  12.783 -0.5231 -0.3527  1.1284
 1546TIP3    H226130   0.539   1.061  12.685  0.8054 -0.6042 -0.0107
 1547TIP3   OH226131   1.883   0.712  11.607 -0.0614  0.2702  0.5779
 1547TIP3    H126132   1.931   0.643  11.652 -0.7594 -0.5659  0.0667
 1547TIP3    H226133   1.804   0.669  11.573  0.5810  0.7631 -1.7320
 1548TIP3   OH226134   1.517   4.743  12.611  0.1366 -0.1772 -0.4935
 1548TIP3    H126135   1.469   4.661  12.598 -0.6872  0.2685 -0.3080
 1548TIP3    H226136   1.493   4.798  12.537 -0.1986  0.3096 -0.0323
 1549TIP3   OH226137   6.226   0.145   2.214  0.3224 -0.3142  0.0790
 1549TIP3    H126138   6.284   0.165   2.141  0.5536  2.0127  0.8077
 1549TIP3    H226139   6.251   0.207   2.283 -0.5510 -1.7491  1.7859
 1550TIP3   OH226140   6.217   2.739  15.403  0.5326 -0.3507 -0.4847
 1550TIP3    H126141   6.275   2.797  15.452 -0.1814  0.6837 -0.8264
 1550TIP3    H226142   6.208   2.781  15.317 -0.2990 -0.7702 -0.6156
 1551TIP3   OH226143   1.040   2.039  13.501  0.9595 -0.3223  0.5052
 1551TIP3    H126144   1.019   2.119  13.550 -0.2517  0.5217 -1.2810
 1551TIP3    H226145   0.973   2.035  13.432  1.9200 -2.0565 -0.3956
 1552TIP3   OH226146   3.217   6.735  15.146 -0.1896 -0.2748 -0.0890
 1552TIP3    H126147   3.297   6.711  15.099  1.0371  2.3498  0.4654
 1552TIP3    H226148   3.204   6.665  15.210  1.9947 -0.4969  0.1697
 1553TIP3   OH226149   4.946   3.068  14.866 -0.5576 -0.2035  0.4818
 1553TIP3    H126150   4.987   3.036  14.785 -0.0901  1.8181 -0.1476
 1553TIP3    H226151   5.016   3.065  14.931  0.8650  3.4587 -0.6451
 1554TIP3   OH226152   3.427   5.216  17.249 -0.3100  0.1981  0.2554
 1554TIP3    H126153   3.505   5.214  17.194 -0.0984  1.1842  0.5024
 1554TIP3    H226154   3.359   5.256  17.195 -0.4762 -0.0878  0.2498
 1555TIP3   OH226155   6.046   6.243   2.369  0.1720  0.0092  0.3079
 1555TIP3    H126156   5.992   6.229   2.447 -0.8354  0.7377 -0.2396
 1555TIP3    H226157   6.114   6.304   2.398 -0.4447  0.6118  0.5183
 1556TIP3   OH226158   3.077   0.697  15.590 -0.3174 -0.5791 -0.6351
 1556TIP3    H126159   3.156   0.647  15.611 -1.0809 -1.7774 -0.5068
 1556TIP3    H226160   3.012   0.631  15.565 -2.0940  0.1036  1.7576
 1557TIP3   OH226161   3.208   5.163   6.170 -0.1395  0.2579 -0.3088
 1557TIP3    H126162   3.112   5.161   6.175 -0.1104  0.6301  3.2376
 1557TIP3    H226163   3.229   5.257   6.169  0.1912  0.1929  0.3638
 1558TIP3   OH226164   1.511   1.216  11.649 -0.5165  0.2791 -0.7088
 1558TIP3    H126165   1.518   1.122  11.667  1.7925  0.2130 -1.6106
 1558TIP3    H226166   1.488   1.255  11.733  0.5968 -0.9243  0.1951
 1559TIP3   OH226167   3.447   2.477   1.736 -0.7176 -0.0286 -0.0422
 1559TIP3    H126168   3.434   2.383   1.722  2.0853 -0.4626 -0.2564
 1559TIP3    H226169   3.479   2.484   1.826  2.6633  0.1763 -1.1090
 1560TIP3   OH226170   1.746   1.324   3.432 -0.0064  0.0013  0.0528
 1560TIP3    H126171   1.665   1.375   3.434 -0.3486 -0.4363 -1.3492
 1560TIP3    H226172   1.795   1.353   3.509 -0.6091  1.7405 -0.1607
 1561TIP3   OH226173   6.598   4.270  15.961 -0.1134 -0.0087 -0.3766
 1561TIP3    H126174   6.539   4.203  15.996  0.6242 -0.0356  0.8734
 1561TIP3    H226175   6.685   4.231  15.968  0.1950  0.5795 -0.8886
 1562TIP3   OH226176   0.372   2.313   3.538  0.2483  0.3000  0.0354
 1562TIP3    H126177   0.372   2.409   3.546  1.8670  0.2562  0.9307
 1562TIP3    H226178   0.433   2.283   3.605  2.8896 -1.0887 -2.7344
 1563TIP3   OH226179   3.383   0.379  16.836 -0.3548 -0.1808  0.4352
 1563TIP3    H126180   3.410   0.465  16.869 -0.3445 -0.2069  0.4972
 1563TIP3    H226181   3.356   0.331  16.914  1.3929 -0.8791  0.6803
 1564TIP3   OH226182   0.783   1.426  11.493  0.1143 -0.0924 -0.8084
 1564TIP3    H126183   0.689   1.434  11.477 -0.0429 -1.5040 -0.7045
 1564TIP3    H226184   0.790   1.396  11.583  0.5289 -2.1465 -1.4715
 1565TIP3   OH226185   5.506   2.137  12.034 -0.1850 -0.0473  0.2222
 1565TIP3    H126186   5.412   2.123  12.042 -0.0986 -0.5028  0.4690
 1565TIP3    H226187   5.530   2.088  11.955 -0.0323 -0.5665  0.5838
 1566TIP3   OH226188   2.077   6.226   2.392 -0.0173 -0.2407  0.3592
 1566TIP3    H126189   2.115   6.305   2.430 -2.6444  2.0151 -1.3093
 1566TIP3    H226190   2.008   6.200   2.454 -0.3958 -0.0935  0.0020
 1567TIP3   OH226191   6.085   3.232   3.125  0.0902 -0.1926  0.4023
 1567TIP3    H126192   6.020   3.292   3.163  0.8727 -0.2982  1.9894
 1567TIP3    H226193   6.100   3.167   3.193  2.4680  0.2986  0.4345
 1568TIP3   OH226194   0.898   3.999   4.000 -0.1125  0.0414  0.2723
 1568TIP3    H126195   0.837   4.036   3.935 -0.0502 -1.0527 -0.4389
 1568TIP3    H226196   0.849   4.000   4.082 -0.6388  0.3284 -0.0388
 1569TIP3   OH226197   0.374   4.609   1.522 -0.0938  0.0818  0.3619
 1569TIP3    H126198   0.448   4.668   1.507 -0.0006  0.6019  2.4923
 1569TIP3    H226199   0.395   4.531   1.471  1.6168  0.4554  0.4241
 1570TIP3   OH226200   5.536   2.203  15.289  0.2678 -0.2079  0.0213
 1570TIP3    H126201   5.549   2.264  15.217  1.7120  1.2317  1.4491
 1570TIP3    H226202   5.465   2.242  15.341  0.1318 -0.5664  0.1091
 1571TIP3   OH226203   0.226   6.008  16.587 -0.2664  0.3391 -0.1480
 1571TIP3    H126204   0.264   5.942  16.529 -1.4685 -0.5819  0.0647
 1571TIP3    H226205   0.196   5.959  16.663  0.1183  1.3541  0.6906
 1572TIP3   OH226206   5.206   3.650  12.064 -0.0777  0.1722  0.6845
 1572TIP3    H126207   5.206   3.724  12.003  0.5904  0.2976  0.8329
 1572TIP3    H226208   5.258   3.680  12.138  3.2090 -1.5806 -0.6821
 1573TIP3   OH226209   2.350   3.712  13.035 -0.6038 -0.6310  0.2164
 1573TIP3    H126210   2.340   3.684  13.125  0.4998 -2.1070 -0.0710
 1573TIP3    H226211   2.263   3.742  13.008 -0.7314  0.7370  2.0265
 1574TIP3   OH226212   3.862   6.535   0.353  0.0350 -0.4062  0.4273
 1574TIP3    H126213   3.833   6.553   0.442 -0.1199  0.2176  0.2610
 1574TIP3    H226214   3.784   6.545   0.300  0.3139  0.1863  0.1105
 1575TIP3   OH226215   4.893   4.743  13.900  0.0207  0.1662  0.0132
 1575TIP3    H126216   4.937   4.739  13.815  0.7261 -0.6364  0.4073
 1575TIP3    H226217   4.927   4.824  13.940 -1.3553  1.2954 -1.0068
 1576TIP3   OH226218   0.992   4.118  15.267 -0.1568  0.0007  0.0541
 1576TIP3    H126219   1.069   4.172  15.281  0.2063 -0.8520  1.6090
 1576TIP3    H226220   0.932   4.174  15.218  0.0610  1.9493  1.8666
 1577TIP3   OH226221   1.813   3.796  13.452  0.2762  0.8105 -0.5592
 1577TIP3    H126222   1.772   3.720  13.494 -0.8676  1.5811 -0.2116
 1577TIP3    H226223   1.889   3.761  13.407  0.9069 -0.2404  1.2224
 1578TIP3   OH226224   4.077   6.208  13.309  0.0891 -0.2856 -0.0313
 1578TIP3    H126225   3.986   6.177  13.313  0.3416 -0.9971  0.2183
 1578TIP3    H226226   4.128   6.131  13.288  0.6849  0.0372  0.2183
 1579TIP3   OH226227   2.146   1.428   1.011 -0.4434  0.2139  0.4038
 1579TIP3    H126228   2.230   1.448   0.969  0.7283 -1.3418  1.8719
 1579TIP3    H226229   2.136   1.496   1.078  0.7059 -0.6907  1.5677
 1580TIP3   OH226230   2.599   5.600   5.971  0.1187  0.4668  0.5131
 1580TIP3    H126231   2.608   5.608   6.066 -0.9568 -1.1125  0.7953
 1580TIP3    H226232   2.568   5.686   5.943 -1.4917  0.3947  1.8975
 1581TIP3   OH226233   2.229   1.696  11.253  0.5688  0.2160 -0.8884
 1581TIP3    H126234   2.210   1.613  11.211 -3.0889 -0.3342  1.3874
 1581TIP3    H226235   2.306   1.678  11.307  0.1946 -1.5390 -0.8804
 1582TIP3   OH226236   0.339   3.471  11.125  0.1422  0.1080 -0.0324
 1582TIP3    H126237   0.295   3.544  11.081  0.4411  0.8150  0.8173
 1582TIP3    H226238   0.424   3.464  11.082  0.4782  0.8714  0.4801
 1583TIP3   OH226239   1.559   1.685   3.750  0.0453 -0.2840 -0.3018
 1583TIP3    H126240   1.605   1.616   3.702  1.2087  0.5871 -0.4833
 1583TIP3    H226241   1.501   1.724   3.686 -1.0848 -1.4595 -0.0468
 1584TIP3   OH226242   1.239   3.470  15.562  0.0663  0.5446  0.2662
 1584TIP3    H126243   1.272   3.554  15.593  2.2753 -0.5365  1.1017
 1584TIP3    H226244   1.297   3.405  15.603 -1.2470 -1.3642 -0.7320
 1585TIP3   OH226245   2.144   3.623   2.711 -0.0344 -0.9050  0.2691
 1585TIP3    H126246   2.231   3.636   2.673 -0.5582 -1.7722 -1.3010
 1585TIP3    H226247   2.120   3.534   2.686 -1.5410 -0.5343  0.3092
 1586TIP3   OH226248   5.520   6.482   2.561  0.1144  0.3856  0.1305
 1586TIP3    H126249   5.516   6.389   2.582 -1.5327  0.8953  2.4148
 1586TIP3    H226250   5.583   6.517   2.623 -1.0076  1.1326  0.8793
 1587TIP3   OH226251   3.036   5.997   5.777  0.2537 -0.0098  0.1041
 1587TIP3    H126252   3.084   6.071   5.814  0.0649 -0.2626  0.8600
 1587TIP3    H226253   2.949   6.032   5.757  0.4627  0.2149 -0.4356
 1588TIP3   OH226254   3.219   2.922   6.138 -0.5828 -0.9857 -0.9421
 1588TIP3    H126255   3.314   2.924   6.127 -0.5965 -1.6529 -1.2146
 1588TIP3    H226256   3.206   2.917   6.233 -0.3635 -0.2841 -0.8701
 1589TIP3   OH226257   6.440   4.460  16.839 -0.1185  0.1192 -0.1682
 1589TIP3    H126258   6.386   4.523  16.887 -0.7409 -1.1120  0.8071
 1589TIP3    H226259   6.392   4.443  16.759  0.5479  1.6063 -0.9314
 1590TIP3   OH226260   2.555   6.342  11.832 -0.1464 -0.1211 -0.2109
 1590TIP3    H126261   2.609   6.419  11.815 -1.8515  1.6523  1.7486
 1590TIP3    H226262   2.509   6.326  11.750 -0.6072  1.7106 -0.3602
 1591TIP3   OH226263   2.012   2.870   2.866  0.3458 -0.1812  0.8906
 1591TIP3    H126264   2.042   2.877   2.776  1.0079 -2.1537  0.9105
 1591TIP3    H226265   1.938   2.930   2.872  0.1633 -0.1748 -1.0126
 1592TIP3   OH226266   1.533   6.792   6.206  0.2223  0.0322  0.0814
 1592TIP3    H126267   1.542   6.821   6.297  0.4495 -0.3972  0.1972
 1592TIP3    H226268   1.573   6.705   6.204  0.7819  0.2970 -0.5673
 1593TIP3   OH226269   6.206   1.156   2.508 -0.5793  0.1403 -0.5403
 1593TIP3    H126270   6.152   1.166   2.430 -0.6722 -1.4707 -0.7175
 1593TIP3    H226271   6.290   1.123   2.476  0.6537  2.7401 -0.2852
 1594TIP3   OH226272   2.804   5.889   3.660  0.3409 -0.6879  0.1664
 1594TIP3    H126273   2.899   5.897   3.667  0.3453 -0.8045  0.2573
 1594TIP3    H226274   2.770   5.968   3.701  0.3699 -1.3359  1.5119
 1595TIP3   OH226275   0.986   6.795   3.196  0.1636  0.1305 -0.1615
 1595TIP3    H126276   0.924   6.848   3.146 -1.8342 -1.2377  0.7581
 1595TIP3    H226277   1.005   6.847   3.274  0.1305  0.5298 -0.4178
 1596TIP3   OH226278   4.857   4.952   2.446  0.3742 -0.0445  0.1524
 1596TIP3    H126279   4.898   5.035   2.422 -1.0090  0.8277  0.7010
 1596TIP3    H226280   4.848   4.905   2.363  2.2165 -0.1753 -0.0117
 1597TIP3   OH226281   5.989   1.902   4.400 -0.0980  0.1922 -0.0264
 1597TIP3    H126282   5.922   1.965   4.424 -1.0606 -0.4200 -1.0285
 1597TIP3    H226283   5.975   1.885   4.307  1.4923  0.0969 -0.2719
 1598TIP3   OH226284   0.826   1.889   1.001  0.0621  0.2922 -0.5502
 1598TIP3    H126285   0.780   1.877   0.918  0.9058  0.1611 -1.0221
 1598TIP3    H226286   0.877   1.809   1.012 -0.4694  0.0744  0.3827
 1599TIP3   OH226287   0.039   6.769   5.198  0.0090  0.7628 -0.3540
 1599TIP3    H126288  -0.028   6.836   5.190  0.8243  1.5310 -0.8328
 1599TIP3    H226289   0.027   6.734   5.287 -1.0903  0.7952 -0.4745
 1600TIP3   OH226290   4.481   3.903  17.283 -0.1990 -0.0510  0.2275
 1600TIP3    H126291   4.521   3.969  17.228 -0.6360 -0.2167 -0.2966
 1600TIP3    H226292   4.492   3.936  17.372  1.8945 -0.5123  0.2060
 1601TIP3   OH226293   1.312   3.526  14.470 -0.1097  0.1673  0.0080
 1601TIP3    H126294   1.272   3.587  14.533  0.2868 -0.4280  0.8619
 1601TIP3    H226295   1.400   3.560  14.457 -0.2415  0.3743 -0.3438
 1602TIP3   OH226296   3.874   3.384  16.743  0.3155 -0.4641  0.1962
 1602TIP3    H126297   3.908   3.401  16.655 -0.5068 -1.4716 -0.3443
 1602TIP3    H226298   3.844   3.293  16.739 -0.0929 -0.3948  1.4086
 1603TIP3   OH226299   6.755   1.409   0.141  0.5390  0.3895  0.1873
 1603TIP3    H126300   6.670   1.429   0.181  1.0330  0.2626  1.3403
 1603TIP3    H226301   6.734   1.358   0.063 -0.4793  1.0950 -0.0204
 1604TIP3   OH226302   0.046   4.436   0.922  0.2447 -0.2080  0.0657
 1604TIP3    H126303   0.132   4.429   0.880  0.5599  1.1959  0.4194
 1604TIP3    H226304  -0.015   4.454   0.850  0.0822 -2.0519 -0.2963
 1605TIP3   OH226305   1.084   3.669  15.087 -0.3639  0.3774  0.8022
 1605TIP3    H126306   1.091   3.632  15.175 -0.5309  1.6049  1.3580
 1605TIP3    H226307   1.150   3.738  15.085 -0.3454  0.3430 -0.0439
 1606TIP3   OH226308   0.205   4.945   6.194 -0.7149  0.3349  0.4743
 1606TIP3    H126309   0.162   5.025   6.163  0.1171  0.1581 -1.2421
 1606TIP3    H226310   0.166   4.929   6.280 -1.8126  1.8793  0.3092
 1607TIP3   OH226311   4.222   5.798   2.274 -0.3598  0.0854 -0.2679
 1607TIP3    H126312   4.282   5.829   2.342 -0.5086 -1.8126  0.8064
 1607TIP3    H226313   4.271   5.808   2.193  1.5313 -1.5426  0.5981
 1608TIP3   OH226314   3.530   2.648  13.911  0.9991  0.1766 -0.5186
 1608TIP3    H126315   3.615   2.653  13.955  2.1267  0.4013 -2.6258
 1608TIP3    H226316   3.544   2.689  13.826 -1.4801  1.0812 -0.5806
 1609TIP3   OH226317   0.340   5.063  13.481  0.2805  0.1030 -0.3846
 1609TIP3    H126318   0.256   5.099  13.455 -0.0327  0.5267  1.0928
 1609TIP3    H226319   0.402   5.135  13.470  0.8189 -0.6424 -2.9643
 1610TIP3   OH226320   0.297   1.102   3.801 -0.1250 -0.3220 -0.1890
 1610TIP3    H126321   0.249   1.116   3.882  0.3800 -0.2266  0.1033
 1610TIP3    H226322   0.259   1.023   3.763 -0.4644 -0.2824  0.0680
 1611TIP3   OH226323   2.347   3.667  14.485  0.0401  0.4480 -0.1755
 1611TIP3    H126324   2.409   3.706  14.422  1.2265 -1.0308  0.0049
 1611TIP3    H226325   2.282   3.624  14.430 -1.2740  2.5750 -0.3754
 1612TIP3   OH226326   4.970   1.568  11.855 -0.5911  0.0427 -0.0056
 1612TIP3    H126327   4.989   1.657  11.825  0.6093 -0.3127 -0.3353
 1612TIP3    H226328   4.883   1.550  11.821  0.0181  0.3039 -1.7839
 1613TIP3   OH226329   2.231   1.912   3.227 -0.2343 -0.6954  0.1678
 1613TIP3    H126330   2.157   1.952   3.272  0.0647  0.0323  0.0248
 1613TIP3    H226331   2.264   1.846   3.288 -1.7276 -1.8922 -0.2365
 1614TIP3   OH226332   1.784   4.580  11.426 -0.2960  0.0158  0.2517
 1614TIP3    H126333   1.821   4.557  11.512 -1.3408 -0.1776  0.6580
 1614TIP3    H226334   1.751   4.498  11.391 -1.3662  0.3596  0.4067
 1615TIP3   OH226335   0.279   2.845  11.437  0.3511  0.4016 -0.8558
 1615TIP3    H126336   0.184   2.832  11.435  0.5795 -1.7154 -0.2751
 1615TIP3    H226337   0.307   2.837  11.346  0.0036  0.9952 -1.0239
 1616TIP3   OH226338   0.743   5.835  16.717  0.0794  0.2383 -0.3716
 1616TIP3    H126339   0.706   5.918  16.744 -1.2386 -0.7516  1.0731
 1616TIP3    H226340   0.679   5.798  16.656 -0.0916 -0.3570  0.1526
 1617TIP3   OH226341   0.903   1.381  12.794 -0.3743  0.1750  0.0666
 1617TIP3    H126342   0.980   1.334  12.826  0.0908  1.3473  0.7346
 1617TIP3    H226343   0.890   1.347  12.706  2.1488  1.3425 -0.8689
 1618TIP3   OH226344   6.402   1.664   2.080 -0.0786  0.1731  0.0471
 1618TIP3    H126345   6.395   1.751   2.040 -0.1452  0.1127 -0.0754
 1618TIP3    H226346   6.340   1.666   2.153  0.4887  0.4910  0.5327
 1619TIP3   OH226347   3.786   2.482   2.552  0.3336  0.0646  0.0329
 1619TIP3    H126348   3.844   2.544   2.597  0.4377 -0.0458  0.0524
 1619TIP3    H226349   3.835   2.400   2.552  0.9258  0.3931 -1.5083
 1620TIP3   OH226350   2.984   3.477  14.779 -0.6380 -0.0550  0.4274
 1620TIP3    H126351   3.029   3.461  14.696 -1.2103  1.0676 -0.1272
 1620TIP3    H226352   2.892   3.456  14.761 -0.7691  0.2225  0.7683
 1621TIP3   OH226353   0.026   6.489   4.366  0.2985 -0.4038 -0.1014
 1621TIP3    H126354   0.020   6.428   4.293  0.0870 -0.4498 -0.0467
 1621TIP3    H226355   0.104   6.461   4.414  0.7152 -0.0706 -0.5781
 1622TIP3   OH226356   3.431   0.835  16.880 -0.2136 -0.1609  0.2258
 1622TIP3    H126357   3.396   0.861  16.965 -0.7303 -1.0885  0.3134
 1622TIP3    H226358   3.483   0.756  16.900 -0.1064 -0.2191 -0.2769
 1623TIP3   OH226359   6.292   6.293   0.042 -0.3820  0.7905  0.4477
 1623TIP3    H126360   6.229   6.250   0.100  0.4130 -0.4990  0.3787
 1623TIP3    H226361   6.310   6.377   0.084 -0.4183  0.2029  1.6655
 1624TIP3   OH226362   2.967   2.583  14.831 -0.5912  0.0588  0.2558
 1624TIP3    H126363   3.028   2.641  14.876 -1.1856 -0.6717  2.1151
 1624TIP3    H226364   2.933   2.635  14.759  0.1692  1.4132  0.8294
 1625TIP3   OH226365   3.832   1.309   5.596  0.1020  0.6135  0.3658
 1625TIP3    H126366   3.803   1.325   5.507  0.8927 -0.7031 -0.1609
 1625TIP3    H226367   3.927   1.323   5.593  0.3591 -0.9637  0.6083
 1626TIP3   OH226368   2.485   1.543  13.473  0.0556 -0.6084  0.4899
 1626TIP3    H126369   2.570   1.579  13.499  0.0104 -1.6915  2.3600
 1626TIP3    H226370   2.454   1.602  13.404  1.3448  1.0707  1.2572
 1627TIP3   OH226371   4.035   0.030  12.976 -0.5558  0.4755 -0.1480
 1627TIP3    H126372   3.962   0.081  13.012 -2.0325  0.1342 -2.4897
 1627TIP3    H226373   3.995  -0.028  12.911  1.6244 -0.7896 -0.4606
 1628TIP3   OH226374   6.244   2.548  15.159 -0.6338  0.1642 -0.2638
 1628TIP3    H126375   6.243   2.454  15.145 -0.3237  0.2837 -1.1461
 1628TIP3    H226376   6.196   2.584  15.085 -0.3925  0.7281 -0.1527
 1629TIP3   OH226377   3.435   0.859   4.291  0.3208 -0.0147 -0.0033
 1629TIP3    H126378   3.418   0.866   4.197 -3.0205  0.1553  0.5002
 1629TIP3    H226379   3.429   0.949   4.323  2.8840  0.1383  0.2765
 1630TIP3   OH226380   1.580   1.234   4.718 -0.5106 -0.2919  0.1642
 1630TIP3    H126381   1.657   1.285   4.742 -0.6921 -0.4681  1.1664
 1630TIP3    H226382   1.584   1.156   4.773 -1.6805 -0.0546  0.6365
 1631TIP3   OH226383   1.955   1.279  13.729 -0.0429 -0.0193  0.1576
 1631TIP3    H126384   1.971   1.212  13.664  0.6973  0.2352  0.0663
 1631TIP3    H226385   1.860   1.282  13.739 -0.0424 -2.1736  1.3312
 1632TIP3   OH226386   5.877   6.445  12.354  0.2824 -0.3802 -0.3922
 1632TIP3    H126387   5.879   6.382  12.282 -0.0204  0.2465 -0.9576
 1632TIP3    H226388   5.949   6.418  12.411  1.0307 -0.4170 -1.3303
 1633TIP3   OH226389   1.978   6.468   6.066 -0.0090  0.8944 -0.0326
 1633TIP3    H126390   1.980   6.398   6.002 -0.3690  1.2173 -0.4015
 1633TIP3    H226391   1.937   6.542   6.021 -1.6974  0.6617  1.0217
 1634TIP3   OH226392   0.789   5.049  13.446 -0.2130  0.4118  0.3030
 1634TIP3    H126393   0.743   5.077  13.525 -0.8094  0.8748 -0.1986
 1634TIP3    H226394   0.722   5.007  13.393  0.3976 -0.8324  0.4703
 1635TIP3   OH226395   0.801   1.785   5.228 -0.4568 -0.4317 -0.2044
 1635TIP3    H126396   0.824   1.704   5.183 -1.4783 -0.7248 -0.2216
 1635TIP3    H226397   0.784   1.759   5.319 -0.5927 -0.2113 -0.1628
 1636TIP3   OH226398   5.022   4.271   4.962  0.3144 -0.2146 -0.3204
 1636TIP3    H126399   5.107   4.314   4.948  0.3626 -0.1739  0.0905
 1636TIP3    H226400   4.962   4.317   4.904  1.0195 -1.7002 -2.3525
 1637TIP3   OH226401   3.244   5.434   4.468  0.3085  0.6365 -0.1241
 1637TIP3    H126402   3.227   5.354   4.418  0.5895  0.4790  0.0299
 1637TIP3    H226403   3.178   5.496   4.437  0.0763  0.3399 -0.2346
 1638TIP3   OH226404   2.343   2.534  16.499 -0.0668  0.1885  0.3846
 1638TIP3    H126405   2.264   2.482  16.485  0.2217 -0.3281  0.6382
 1638TIP3    H226406   2.414   2.470  16.498  0.0363  0.0516  4.0802
 1639TIP3   OH226407   5.845   5.399  15.441 -0.0661  0.3660 -0.5691
 1639TIP3    H126408   5.817   5.469  15.501  0.8502 -1.2253  1.8902
 1639TIP3    H226409   5.941   5.402  15.444  0.0103 -1.4376  0.2446
 1640TIP3   OH226410   3.878   6.111   2.377 -0.6218 -0.2515  0.4867
 1640TIP3    H126411   3.908   6.066   2.298 -0.3539 -0.4635  0.7072
 1640TIP3    H226412   3.905   6.054   2.449 -0.6957  0.0319  0.7431
 1641TIP3   OH226413   2.355   5.220  17.107 -0.5205 -0.1941  0.1561
 1641TIP3    H126414   2.276   5.261  17.143 -0.8075  0.4017 -1.0915
 1641TIP3    H226415   2.413   5.211  17.182 -1.3071  0.4894  0.8752
 1642TIP3   OH226416   0.708   5.086   0.077  0.3905  0.1128 -0.1055
 1642TIP3    H126417   0.760   5.017   0.037 -0.5819  0.2707 -1.7342
 1642TIP3    H226418   0.656   5.122   0.005 -0.9645  0.8612  1.1846
 1643TIP3   OH226419   3.203   6.439  16.953 -0.4812 -0.2188 -0.0641
 1643TIP3    H126420   3.215   6.516  17.007 -0.1731 -0.6646  0.5187
 1643TIP3    H226421   3.132   6.391  16.995 -0.2361 -0.5708 -0.0420
 1644TIP3   OH226422   2.849   1.475  11.495 -0.2734 -0.2231 -0.2697
 1644TIP3    H126423   2.836   1.570  11.505  0.8502  0.0016 -0.8326
 1644TIP3    H226424   2.767   1.444  11.456 -0.6132  0.5315 -0.1776
 1645TIP3   OH226425   3.411   3.293  16.683  0.2156  0.3064 -0.3034
 1645TIP3    H126426   3.370   3.211  16.712 -2.4575  1.4273 -0.5933
 1645TIP3    H226427   3.410   3.348  16.761  1.2574  0.3693 -0.3201
 1646TIP3   OH226428   1.515   6.121  11.698  0.5913 -0.2213 -0.4301
 1646TIP3    H126429   1.531   6.163  11.613  0.8420  1.4648  0.4110
 1646TIP3    H226430   1.426   6.087  11.691 -0.3561  2.1155 -0.5333
 1647TIP3   OH226431   2.845   1.329   1.283 -0.3417 -0.0067 -0.0861
 1647TIP3    H126432   2.898   1.357   1.208 -1.5114 -0.5784 -1.1581
 1647TIP3    H226433   2.837   1.407   1.337  2.2563 -0.0834  0.5633
 1648TIP3   OH226434   2.074   3.617   4.388  0.6185 -0.1886  0.2328
 1648TIP3    H126435   2.066   3.712   4.378  1.1462 -0.1055  0.5265
 1648TIP3    H226436   2.084   3.585   4.298  0.7542  0.0696  0.1515
 1649TIP3   OH226437   5.076   0.094  11.802  0.5035 -0.0197 -0.0145
 1649TIP3    H126438   5.022   0.171  11.785 -1.4475 -1.4988 -0.9238
 1649TIP3    H226439   5.040   0.056  11.882  0.9941 -0.3699  0.0494
 1650TIP3   OH226440   4.064   5.940  11.045 -0.1101  0.2543  0.3943
 1650TIP3    H126441   4.108   5.914  10.964 -0.1459 -1.4089  0.8636
 1650TIP3    H226442   4.121   5.908  11.115 -0.8741  0.1990  1.0130
 1651TIP3   OH226443   3.184   1.041  13.971  0.6686 -0.1660  0.1222
 1651TIP3    H126444   3.163   1.022  14.063 -2.4378  1.7423 -0.0256
 1651TIP3    H226445   3.169   1.135  13.962 -0.8117 -0.5586 -2.6805
 1652TIP3   OH226446   3.272   5.498   0.085 -0.3622  0.2976 -0.6797
 1652TIP3    H126447   3.279   5.532   0.175 -0.8324 -0.8416 -0.1987
 1652TIP3    H226448   3.251   5.406   0.096  0.7501 -0.1311 -1.9757
 1653TIP3   OH226449   6.207   5.630   3.607  0.5101  0.2769 -0.5433
 1653TIP3    H126450   6.242   5.542   3.588  1.6892  0.3638  1.0067
 1653TIP3    H226451   6.120   5.630   3.567  0.9725 -1.1488 -1.6692
 1654TIP3   OH226452   2.534   3.418  14.501 -0.1419 -0.1853  0.2727
 1654TIP3    H126453   2.480   3.494  14.525  1.3053  1.0769 -0.3071
 1654TIP3    H226454   2.613   3.427  14.554  0.5480 -0.6315 -0.6539
 1655TIP3   OH226455   2.589   0.886   4.092  0.3884  0.0641 -0.0727
 1655TIP3    H126456   2.609   0.827   4.020  1.2354  1.2872 -0.8769
 1655TIP3    H226457   2.598   0.832   4.171 -1.3146 -1.5076 -0.8579
 1656TIP3   OH226458   4.016   5.259  13.001  0.0593  0.0397  0.0723
 1656TIP3    H126459   3.948   5.240  13.065  0.6680 -0.5711  0.5461
 1656TIP3    H226460   4.082   5.190  13.013  0.8517  0.7141 -0.2505
 1657TIP3   OH226461   6.798   1.375  16.671  0.1702  0.4816  0.2024
 1657TIP3    H126462   6.784   1.287  16.636 -0.7478 -0.0462  1.8025
 1657TIP3    H226463   6.711   1.406  16.695  0.6496  1.2020  1.0771
 1658TIP3   OH226464   1.595   6.363  12.642 -0.3832 -0.1227 -0.4849
 1658TIP3    H126465   1.595   6.406  12.728 -0.2196 -0.2541 -0.4174
 1658TIP3    H226466   1.524   6.299  12.648 -0.7372  0.2511 -0.6438
 1659TIP3   OH226467   2.949   0.639   3.227  0.5378 -0.0937  0.2124
 1659TIP3    H126468   2.951   0.727   3.264 -1.9498  0.5583 -1.0234
 1659TIP3    H226469   3.041   0.621   3.204  0.9451  2.7271 -0.7234
 1660TIP3   OH226470   6.239   2.151  16.855  0.5222  0.3123  0.2773
 1660TIP3    H126471   6.297   2.079  16.880 -0.3954  0.1234  2.0235
 1660TIP3    H226472   6.248   2.216  16.925 -0.0248  1.0897 -0.3390
 1661TIP3   OH226473   3.443   1.101  11.622 -0.0164 -0.2378 -0.2627
 1661TIP3    H126474   3.352   1.128  11.628 -1.2703 -3.4266 -2.4469
 1661TIP3    H226475   3.476   1.144  11.543  1.0837  2.3810  1.4908
 1662TIP3   OH226476   5.859   0.385   5.940 -0.0834 -0.1607 -0.0349
 1662TIP3    H126477   5.932   0.411   5.997  0.6253 -1.3821 -0.3662
 1662TIP3    H226478   5.796   0.344   5.999 -0.4507  0.7462  0.2254
 1663TIP3   OH226479   5.916   1.425   2.461 -0.4162 -0.1255 -0.1888
 1663TIP3    H126480   5.874   1.393   2.381 -1.5460  0.5611  0.1125
 1663TIP3    H226481   5.866   1.503   2.485 -0.5236 -0.6937  1.5521
 1664TIP3   OH226482   4.707   1.993  16.206  0.6892 -0.0294 -0.0283
 1664TIP3    H126483   4.738   2.079  16.235  0.5091  0.3899 -1.0209
 1664TIP3    H226484   4.637   1.971  16.267  0.9801  0.3625  0.4524
 1665TIP3   OH226485   2.912   6.725   3.665 -0.7009 -0.2863  0.0005
 1665TIP3    H126486   2.883   6.759   3.581  0.9653 -0.6765 -0.7592
 1665TIP3    H226487   2.951   6.640   3.645  1.5277  0.4687  0.8270
 1666TIP3   OH226488   5.519   3.377   3.198 -0.1086 -0.8047  0.0434
 1666TIP3    H126489   5.515   3.427   3.279 -1.4763 -1.9457  0.7217
 1666TIP3    H226490   5.517   3.285   3.226  0.9862 -1.2460 -1.2213
 1667TIP3   OH226491   6.578   4.866  11.172 -0.2746  0.4799  0.6568
 1667TIP3    H126492   6.549   4.785  11.215  1.4081 -0.3128  0.4061
 1667TIP3    H226493   6.553   4.856  11.081  0.2540  0.0602  0.5529
 1668TIP3   OH226494   4.786   5.421   4.115 -0.2901 -0.1631 -0.0650
 1668TIP3    H126495   4.802   5.357   4.046  0.3626  0.2592 -0.3166
 1668TIP3    H226496   4.853   5.403   4.180 -0.0502  0.3060 -0.1750
 1669TIP3   OH226497   4.146   4.706  13.237 -0.4302  0.4065 -0.2812
 1669TIP3    H126498   4.135   4.635  13.174  0.7299 -0.2068  0.1778
 1669TIP3    H226499   4.241   4.718  13.243 -0.4497 -0.1800  2.0600
 1670TIP3   OH226500   0.888   4.741   6.024  0.7942  0.1744 -0.0226
 1670TIP3    H126501   0.976   4.769   5.999  1.3402  0.2666  1.8547
 1670TIP3    H226502   0.892   4.730   6.119 -1.6420  1.7178  0.3701
 1671TIP3   OH226503   2.484   5.957   1.349  0.1930 -0.0070  0.8378
 1671TIP3    H126504   2.460   6.030   1.292  0.7431 -0.1720  0.3847
 1671TIP3    H226505   2.466   5.879   1.297  2.4584 -0.1337  0.1281
 1672TIP3   OH226506   5.175   5.332  10.900  0.2733  0.2058  0.4490
 1672TIP3    H126507   5.127   5.317  10.819 -0.1889 -0.2581  0.8061
 1672TIP3    H226508   5.159   5.254  10.953  1.6576 -0.0924  0.4659
 1673TIP3   OH226509   0.433   4.195  12.505 -0.2236 -0.4129  0.0761
 1673TIP3    H126510   0.417   4.286  12.529 -0.1139 -0.8668  2.0007
 1673TIP3    H226511   0.427   4.147  12.587  1.2642 -1.9387 -0.6522
 1674TIP3   OH226512   5.875   0.594  16.468  0.3355  0.1210  0.5033
 1674TIP3    H126513   5.893   0.517  16.522  0.3975  1.7644  2.9478
 1674TIP3    H226514   5.955   0.646  16.473 -0.8260  1.8737  1.6473
 1675TIP3   OH226515   1.223   6.086   1.546 -0.2159 -0.9142 -0.0359
 1675TIP3    H126516   1.254   6.098   1.456 -1.4251 -1.0083 -0.4882
 1675TIP3    H226517   1.136   6.047   1.536 -1.8926  2.1839  1.0455
 1676TIP3   OH226518   5.004   4.745  14.454  0.3566 -0.1395  0.2448
 1676TIP3    H126519   4.997   4.838  14.475  0.6837 -0.1174  0.2602
 1676TIP3    H226520   5.090   4.719  14.488 -0.0076 -0.6039  0.8295
 1677TIP3   OH226521   0.203   5.395   4.579  0.0999  0.1229  0.1902
 1677TIP3    H126522   0.154   5.314   4.596 -0.0407 -0.4513 -2.5539
 1677TIP3    H226523   0.280   5.368   4.530 -0.2129  1.6619 -1.2685
 1678TIP3   OH226524   4.974   1.146  17.271 -0.1509 -0.7598  0.4429
 1678TIP3    H126525   5.035   1.207  17.313 -0.5194 -0.8632  1.1456
 1678TIP3    H226526   4.978   1.167  17.178  0.1356 -0.0359  0.6172
 1679TIP3   OH226527   1.966   4.854  16.381 -0.0028 -0.1106  0.0044
 1679TIP3    H126528   2.055   4.885  16.364  0.3915 -0.2622  1.5953
 1679TIP3    H226529   1.928   4.922  16.438 -0.7800 -0.2432 -0.3420
 1680TIP3   OH226530   2.834   1.604   4.483  0.1087 -0.2504 -0.3398
 1680TIP3    H126531   2.766   1.668   4.459  1.0298  0.6925 -0.5184
 1680TIP3    H226532   2.890   1.651   4.545 -0.3543 -1.5817  1.1699
 1681TIP3   OH226533   4.854   2.818   4.656  0.1420 -0.6654 -0.1677
 1681TIP3    H126534   4.911   2.848   4.726 -1.1344  0.6278  0.3781
 1681TIP3    H226535   4.848   2.892   4.596  0.4391 -1.4138 -1.1510
 1682TIP3   OH226536   0.162   2.678  16.682 -0.0473  0.5964  0.3703
 1682TIP3    H126537   0.132   2.608  16.741 -2.1538  0.2088 -1.0146
 1682TIP3    H226538   0.195   2.631  16.605 -1.3725  1.0785 -0.5251
 1683TIP3   OH226539   1.473   2.684  11.980 -0.3896  0.0952 -0.3006
 1683TIP3    H126540   1.428   2.619  11.926 -0.9292 -0.4259  0.7505
 1683TIP3    H226541   1.486   2.640  12.064  0.7727  0.7612 -0.1122
 1684TIP3   OH226542   0.512   5.271  13.430 -0.3142 -0.4165 -0.2355
 1684TIP3    H126543   0.544   5.246  13.343 -0.2042 -0.6303 -0.1366
 1684TIP3    H226544   0.577   5.235  13.490  0.2412  0.7573 -0.1136
 1685TIP3   OH226545   5.616   3.831  14.477  0.0440 -0.1883 -0.1869
 1685TIP3    H126546   5.580   3.793  14.557  1.4812 -0.5590  0.3212
 1685TIP3    H226547   5.691   3.775  14.456  0.3757  0.5903 -1.1515
 1686TIP3   OH226548   0.721   0.530  16.648  0.4333 -0.0100  0.0659
 1686TIP3    H126549   0.632   0.511  16.678 -0.3554  2.1077 -0.7500
 1686TIP3    H226550   0.757   0.444  16.626 -1.8452 -0.8346 -0.8058
 1687TIP3   OH226551   0.738   6.201  15.809 -0.5480 -0.5593  0.1159
 1687TIP3    H126552   0.699   6.260  15.874 -0.5299 -0.1192 -0.2691
 1687TIP3    H226553   0.663   6.163  15.763 -0.5925 -1.3983  0.8311
 1688TIP3   OH226554   1.901   0.843  12.102 -0.1174  0.1450  0.0612
 1688TIP3    H126555   1.922   0.910  12.167 -1.7473  0.6391  0.1128
 1688TIP3    H226556   1.933   0.761  12.141  0.4266  0.6605  0.7204
 1689TIP3   OH226557   4.440   4.491  15.080 -0.4990 -0.2151 -0.3518
 1689TIP3    H126558   4.404   4.574  15.050  2.1136  0.9162 -0.6840
 1689TIP3    H226559   4.393   4.425  15.030 -2.1811  1.0814 -0.5774
 1690TIP3   OH226560   5.662   1.349  14.969  0.3871  0.3786 -0.0613
 1690TIP3    H126561   5.575   1.383  14.951 -0.3788 -0.2934  2.0569
 1690TIP3    H226562   5.677   1.370  15.061  3.6066  2.8698 -0.9517
 1691TIP3   OH226563   4.313   3.610   1.832  0.2628 -0.6620 -0.6380
 1691TIP3    H126564   4.218   3.612   1.822 -0.0379 -2.7040  1.0372
 1691TIP3    H226565   4.336   3.697   1.865 -1.1353 -0.4018 -0.3099
 1692TIP3   OH226566   4.209   6.705   2.018 -0.2437 -0.0999  0.1081
 1692TIP3    H126567   4.280   6.715   2.082  0.5722 -0.0099 -0.7888
 1692TIP3    H226568   4.168   6.622   2.041 -0.9217  0.6148  1.6544
 1693TIP3   OH226569   5.627   3.181   4.396  0.1575  0.1346 -0.5596
 1693TIP3    H126570   5.592   3.147   4.478  1.3699  0.9029  0.3003
 1693TIP3    H226571   5.707   3.132   4.380  0.2838  0.4487 -0.9295
 1694TIP3   OH226572   3.059   0.378  14.482  0.2257  0.1604 -0.3483
 1694TIP3    H126573   2.972   0.417  14.480  1.3483  2.8889  0.3832
 1694TIP3    H226574   3.114   0.439  14.433  1.9635 -0.9142  0.1822
 1695TIP3   OH226575   5.985   4.939   2.574 -0.8392 -0.1471 -0.4467
 1695TIP3    H126576   6.057   4.923   2.513 -0.5011  2.2215 -0.7585
 1695TIP3    H226577   6.021   4.919   2.660  0.6741  2.1567 -0.4648
 1696TIP3   OH226578   6.671   6.280   5.241 -0.4780  0.8053  0.1328
 1696TIP3    H126579   6.601   6.293   5.305  0.0454 -0.2846  0.9551
 1696TIP3    H226580   6.737   6.345   5.265 -0.1465  0.1899  0.9080
 1697TIP3   OH226581   2.065   0.278  12.534 -0.2074 -0.3113  0.0350
 1697TIP3    H126582   2.065   0.314  12.623  0.6035  0.1987 -0.1538
 1697TIP3    H226583   1.993   0.215  12.533  0.9663 -1.7912  1.6655
 1698TIP3   OH226584   2.570   0.762   6.370 -0.4041  0.0427  0.6922
 1698TIP3    H126585   2.574   0.687   6.310 -0.8759  0.1606  0.5037
 1698TIP3    H226586   2.650   0.811   6.353 -0.9458  0.5640 -0.5138
 1699TIP3   OH226587   3.502   4.240   0.536 -0.1437  0.2536 -0.7825
 1699TIP3    H126588   3.540   4.163   0.580  0.8084 -0.2396 -2.3819
 1699TIP3    H226589   3.578   4.290   0.507 -0.7578  1.8288  0.2144
 1700TIP3   OH226590   5.122   0.872  10.994  0.1331 -0.3095  0.5722
 1700TIP3    H126591   5.150   0.810  10.926 -0.4214 -1.9083  1.7422
 1700TIP3    H226592   5.028   0.857  11.003 -0.6892  2.8994 -1.2209
 1701TIP3   OH226593   1.274   0.452  13.826 -0.2710  0.1267 -0.6921
 1701TIP3    H126594   1.210   0.395  13.785  0.3402 -0.0313 -1.4487
 1701TIP3    H226595   1.306   0.402  13.901 -0.5764 -0.0450 -0.6736
 1702TIP3   OH226596   5.435   4.503  16.223 -0.3850  0.1777 -0.1700
 1702TIP3    H126597   5.346   4.538  16.220  0.4232  2.4087  0.1126
 1702TIP3    H226598   5.434   4.441  16.296 -0.9055  2.7092  2.0956
 1703TIP3   OH226599   6.674   2.400   1.793  0.5369  0.2178 -0.6564
 1703TIP3    H126600   6.674   2.347   1.872 -0.3422  0.6396 -0.3542
 1703TIP3    H226601   6.651   2.339   1.723 -0.6217  0.2033 -0.2883
 1704TIP3   OH226602   0.726   0.414  15.860 -0.4209 -0.1755 -0.0889
 1704TIP3    H126603   0.814   0.393  15.890 -0.0014  1.0280 -0.4135
 1704TIP3    H226604   0.682   0.329  15.851  1.4484 -1.0206 -2.1821
 1705TIP3   OH226605   0.531   4.006  17.039  0.1215  0.1487  0.4644
 1705TIP3    H126606   0.605   3.968  16.992  0.8053  1.2743  0.5898
 1705TIP3    H226607   0.567   4.032  17.124 -0.6264 -0.0606  0.8580
 1706TIP3   OH226608   1.373   0.464  11.637 -0.0083  0.5562  0.4482
 1706TIP3    H126609   1.416   0.546  11.660 -0.1293  1.3557 -1.8678
 1706TIP3    H226610   1.365   0.467  11.541 -1.0891 -1.6300  0.3955
 1707TIP3   OH226611   5.700   0.484  14.728  0.0837  0.4157 -0.4407
 1707TIP3    H126612   5.772   0.425  14.706 -0.5578 -0.2010 -0.9511
 1707TIP3    H226613   5.733   0.537  14.801  0.5057 -0.9392  0.3947
 1708TIP3   OH226614   1.790   1.790   2.653 -0.0414  0.0835 -0.0767
 1708TIP3    H126615   1.701   1.793   2.619 -0.0660 -0.7814 -0.1041
 1708TIP3    H226616   1.792   1.857   2.722 -0.4279  0.7733 -0.7138
 1709TIP3   OH226617   1.429   6.686  12.719 -0.4824 -0.0624 -0.3573
 1709TIP3    H126618   1.335   6.690  12.738 -0.6711  0.4209 -1.3284
 1709TIP3    H226619   1.464   6.624  12.783 -1.1007  1.2960  1.3623
 1710TIP3   OH226620   2.475   0.466   2.567 -0.3661  0.4811 -0.5391
 1710TIP3    H126621   2.518   0.381   2.573 -1.1865  0.1469  1.2707
 1710TIP3    H226622   2.545   0.527   2.541  0.1752 -0.7353 -2.1067
 1711TIP3   OH226623   0.519   1.917  12.980  0.1190 -0.4017  0.9276
 1711TIP3    H126624   0.562   1.987  13.029  0.5935 -0.3658  0.4735
 1711TIP3    H226625   0.448   1.887  13.037 -1.0010  1.4058  0.5543
 1712TIP3   OH226626   2.130   3.789   0.063  0.2861  0.0416 -0.2271
 1712TIP3    H126627   2.054   3.757   0.014  1.3785 -0.7943 -1.4373
 1712TIP3    H226628   2.125   3.884   0.055  1.0755 -0.0788 -3.0477
 1713TIP3   OH226629   5.249   6.295  16.475  0.4926  0.0969 -0.0717
 1713TIP3    H126630   5.241   6.210  16.518  2.2855  0.0418  0.2198
 1713TIP3    H226631   5.179   6.295  16.409 -1.1777 -0.5314  1.5926
 1714TIP3   OH226632   3.343   4.682  14.493 -0.1585  0.6191 -0.1367
 1714TIP3    H126633   3.423   4.695  14.545  0.1253  0.6679 -0.5742
 1714TIP3    H226634   3.292   4.762  14.506  0.6140  1.3082 -1.1374
 1715TIP3   OH226635   6.449   0.775  12.422  0.3084  0.0495  0.2605
 1715TIP3    H126636   6.387   0.770  12.494  0.6079  1.3001  0.6294
 1715TIP3    H226637   6.439   0.692  12.376  0.2536 -0.8478  1.8479
 1716TIP3   OH226638   0.194   4.721   6.015  0.2996  1.1534 -0.0072
 1716TIP3    H126639   0.206   4.784   6.086 -0.1595  0.7200  0.4602
 1716TIP3    H226640   0.105   4.688   6.026  0.5983  0.2669 -0.1051
 1717TIP3   OH226641   4.729   3.248   2.575  0.3754  0.0504  0.5772
 1717TIP3    H126642   4.700   3.158   2.594 -0.6513 -0.2804 -2.0987
 1717TIP3    H226643   4.654   3.288   2.533  0.4989  2.5481  2.5293
 1718TIP3   OH226644   3.457   2.159  10.224 -0.2601 -0.1752 -0.1515
 1718TIP3    H126645   3.528   2.220  10.201  0.3111 -1.3948 -1.8765
 1718TIP3    H226646   3.502   2.085  10.265 -0.6745 -0.4564 -0.2056
 1719TIP3   OH226647   1.062   5.976  15.338 -0.4187 -0.0762  0.2842
 1719TIP3    H126648   0.982   5.954  15.387  0.4348 -0.2643  1.6638
 1719TIP3    H226649   1.063   6.072  15.335 -0.8243 -0.0775  0.0230
 1720TIP3   OH226650   4.753   1.374   3.722  0.0919  0.9350  0.0314
 1720TIP3    H126651   4.810   1.298   3.735  0.5913  1.6303  2.1433
 1720TIP3    H226652   4.812   1.449   3.724 -0.6553  1.5290  0.2103
 1721TIP3   OH226653   5.354   3.026  15.029 -0.0685  0.2073 -0.2575
 1721TIP3    H126654   5.262   3.030  15.053  0.3103 -0.2501  1.4381
 1721TIP3    H226655   5.356   3.041  14.934 -1.9988 -1.3343 -0.5820
 1722TIP3   OH226656   3.695   3.234   5.980 -0.0475  0.3252 -0.2313
 1722TIP3    H126657   3.690   3.247   5.885  0.8674 -0.6112 -0.4199
 1722TIP3    H226658   3.762   3.167   5.992 -0.1784  0.4016  1.0829
 1723TIP3   OH226659   6.025   1.420  13.235 -0.3954  0.0690 -0.1556
 1723TIP3    H126660   5.976   1.487  13.188 -1.5258 -1.6807 -1.6016
 1723TIP3    H226661   5.958   1.374  13.286  0.3423 -0.1011  0.6828
 1724TIP3   OH226662   6.655   4.686   4.624 -0.5078 -0.0597  0.1988
 1724TIP3    H126663   6.645   4.668   4.717 -1.3852  2.1127  0.5843
 1724TIP3    H226664   6.681   4.778   4.620  2.2059 -0.7931 -1.6286
 1725TIP3   OH226665   4.722   3.671   4.002 -0.3642 -0.1848 -0.1026
 1725TIP3    H126666   4.710   3.580   3.976 -0.5542 -0.2590  0.2386
 1725TIP3    H226667   4.698   3.673   4.095  0.4752  0.0390  0.1213
 1726TIP3   OH226668   5.885   2.352  15.178 -0.3954  0.2223  0.4328
 1726TIP3    H126669   5.820   2.317  15.117 -0.9132  0.5278  0.7960
 1726TIP3    H226670   5.863   2.313  15.262 -1.1175  1.5377  0.8943
 1727TIP3   OH226671   0.334   5.182  11.765  0.1922 -0.0858 -0.2797
 1727TIP3    H126672   0.325   5.175  11.670 -2.4574  0.6930 -0.1529
 1727TIP3    H226673   0.383   5.264  11.778  1.0534 -0.4758 -0.9462
 1728TIP3   OH226674   4.568   5.614  16.207 -0.5799  0.1474 -0.1744
 1728TIP3    H126675   4.551   5.566  16.127  0.6303  0.3151 -0.5641
 1728TIP3    H226676   4.660   5.596  16.227 -0.6276  0.7808  0.7105
 1729TIP3   OH226677   4.840   5.452  11.253 -0.1424 -0.2805 -0.2083
 1729TIP3    H126678   4.866   5.503  11.177  0.7289  1.9202  1.4588
 1729TIP3    H226679   4.765   5.400  11.223 -1.0368  1.9192 -2.0605
 1730TIP3   OH226680   1.525   3.556   4.933  0.4420  0.5129 -1.0167
 1730TIP3    H126681   1.523   3.498   5.010  1.8403 -1.3743 -2.3280
 1730TIP3    H226682   1.617   3.560   4.908  0.1850  2.2060 -1.8361
 1731TIP3   OH226683   2.064   6.098   5.484  0.4448 -0.1113  0.1546
 1731TIP3    H126684   2.049   6.136   5.398  1.0102  1.3994  0.6893
 1731TIP3    H226685   1.977   6.082   5.519  0.1267 -3.4371 -1.7574
 1732TIP3   OH226686   6.626   1.542   2.061 -0.4998 -0.2179 -0.3416
 1732TIP3    H126687   6.624   1.466   2.002 -0.0335 -0.4281 -0.0900
 1732TIP3    H226688   6.537   1.575   2.060 -0.7975 -0.9830 -0.1851
 1733TIP3   OH226689   4.853   2.225  15.427  0.0928 -0.7976  0.1706
 1733TIP3    H126690   4.924   2.174  15.467  1.5619  1.5484  0.7410
 1733TIP3    H226691   4.872   2.222  15.333  1.6358  0.6557  0.3870
 1734TIP3   OH226692   5.669   4.328   0.487 -0.1702  0.2155 -0.1017
 1734TIP3    H126693   5.722   4.344   0.565 -0.4413 -1.7648  0.5330
 1734TIP3    H226694   5.720   4.368   0.416  0.5481  1.2065  0.9266
 1735TIP3   OH226695   2.247   4.894   3.420 -0.0177 -0.6001 -0.0124
 1735TIP3    H126696   2.171   4.889   3.477 -0.7967 -1.2546 -1.0900
 1735TIP3    H226697   2.277   4.985   3.428 -1.9981  0.1858 -0.9437
 1736TIP3   OH226698   2.694   0.262  17.137 -0.8048 -0.0424 -0.5007
 1736TIP3    H126699   2.751   0.236  17.064 -1.7820 -1.1534 -0.9139
 1736TIP3    H226700   2.687   0.357  17.130  0.2955  0.0190 -0.9530
 1737TIP3   OH226701   1.457   5.087  16.209  0.3421 -0.2165 -0.1867
 1737TIP3    H126702   1.461   5.177  16.178 -0.9908 -0.4122 -1.0187
 1737TIP3    H226703   1.487   5.034  16.135 -0.7815 -0.5574 -0.4173
 1738TIP3   OH226704   1.725   1.788   5.485  0.1323 -0.0153 -0.3053
 1738TIP3    H126705   1.800   1.791   5.544 -0.8201  0.0969  0.9323
 1738TIP3    H226706   1.743   1.857   5.421  1.2226 -0.1948 -0.2202
 1739TIP3   OH226707   6.375   3.290   1.716  0.0211  0.0082  0.8077
 1739TIP3    H126708   6.407   3.201   1.731  1.1434  0.5857  2.1224
 1739TIP3    H226709   6.381   3.302   1.622  1.8744 -0.6280  0.7996
 1740TIP3   OH226710   2.267   0.341   0.475  0.2157 -0.3831  0.0821
 1740TIP3    H126711   2.267   0.390   0.392  0.1022  0.9397  0.8387
 1740TIP3    H226712   2.338   0.381   0.525  1.3548 -2.2568  0.0264
 1741TIP3   OH226713   1.054   6.137   5.385  0.7961 -0.1607 -0.6156
 1741TIP3    H126714   1.112   6.182   5.446 -2.0031  1.0732  1.3552
 1741TIP3    H226715   0.989   6.203   5.360 -0.7646 -1.8774 -1.3326
 1742TIP3   OH226716   1.715   1.834  13.332  0.0531  0.1253  0.3579
 1742TIP3    H126717   1.765   1.857  13.254  1.3505 -2.3580  0.3639
 1742TIP3    H226718   1.682   1.746  13.315 -1.6606  0.4637  1.6651
 1743TIP3   OH226719   4.485   6.138   5.179 -0.5242  0.0895  0.5536
 1743TIP3    H126720   4.493   6.076   5.251  0.9959  0.1969  0.5124
 1743TIP3    H226721   4.571   6.138   5.138 -1.6575 -0.8804 -2.0442
 1744TIP3   OH226722   0.061   1.378  12.707 -0.5178  0.6212 -0.6333
 1744TIP3    H126723   0.155   1.393  12.716 -0.8252  3.2105 -1.1170
 1744TIP3    H226724   0.047   1.366  12.613 -0.7826  1.3603 -0.6963
 1745TIP3   OH226725   4.910   2.423  13.354 -0.0239  0.6243  0.0385
 1745TIP3    H126726   4.904   2.368  13.276 -1.8949  0.6805  0.1148
 1745TIP3    H226727   4.977   2.488  13.332  0.1155  0.0954 -1.1723
 1746TIP3   OH226728   6.418   0.180  14.527  0.3042  0.2405 -0.1378
 1746TIP3    H126729   6.375   0.188  14.442  1.1619  1.5737 -0.4781
 1746TIP3    H226730   6.353   0.139  14.583 -0.4787 -0.1335 -1.2928
 1747TIP3   OH226731   1.135   2.160   0.467  0.1511 -0.1582 -0.2676
 1747TIP3    H126732   1.078   2.192   0.538  0.3668 -1.8394  0.7243
 1747TIP3    H226733   1.223   2.162   0.505  0.5995  1.1318 -1.3247
 1748TIP3   OH226734   0.353   0.779  13.130 -0.0969  0.2729  0.1206
 1748TIP3    H126735   0.298   0.852  13.099  0.3689  0.9876  0.9339
 1748TIP3    H226736   0.291   0.710  13.152 -0.5322  0.3083 -0.9361
 1749TIP3   OH226737   2.511   0.619  14.525  0.1058  0.4168 -0.3377
 1749TIP3    H126738   2.535   0.538  14.571 -0.4503  1.8340  2.6551
 1749TIP3    H226739   2.420   0.604  14.497 -0.0444  0.0584  0.3274
 1750TIP3   OH226740   3.451   4.075  16.671  0.3782 -0.1963 -0.3816
 1750TIP3    H126741   3.490   4.126  16.742 -1.2172 -0.7235  0.9368
 1750TIP3    H226742   3.489   3.987  16.681  0.6330 -0.1154 -0.6049
 1751TIP3   OH226743   1.649   1.019   3.136  0.4773 -0.9438 -0.0601
 1751TIP3    H126744   1.660   1.054   3.225  1.0221  0.3823 -0.6288
 1751TIP3    H226745   1.654   0.924   3.147  0.0196 -0.8214  1.3960
 1752TIP3   OH226746   3.504   6.529   1.293  0.7042  0.2139  0.4817
 1752TIP3    H126747   3.446   6.576   1.353  0.9899  0.4626  0.5633
 1752TIP3    H226748   3.587   6.522   1.340  1.8555  2.8913 -0.8971
 1753TIP3   OH226749   2.819   3.911  13.298  0.3448  0.1182 -0.0706
 1753TIP3    H126750   2.865   3.950  13.372  1.2022 -2.2421  0.7296
 1753TIP3    H226751   2.883   3.852  13.258 -0.1407  1.2166 -2.6568
 1754TIP3   OH226752   4.848   1.070  15.913 -0.3870 -0.6929  0.0765
 1754TIP3    H126753   4.865   1.064  16.007  1.8498 -1.6514 -0.3314
 1754TIP3    H226754   4.823   1.161  15.899  1.1158 -0.0423  1.3561
 1755TIP3   OH226755   0.541   1.788   0.464  0.0297  0.4503 -0.1912
 1755TIP3    H126756   0.567   1.704   0.503 -0.9749 -0.1405 -0.7608
 1755TIP3    H226757   0.470   1.819   0.520  0.7543  1.2092  0.3371
 1756TIP3   OH226758   2.555   5.884  12.737 -0.1663  0.3966  0.3077
 1756TIP3    H126759   2.482   5.862  12.679  0.2615 -0.9248  0.2408
 1756TIP3    H226760   2.532   5.970  12.773 -0.2597  1.4430 -2.0905
 1757TIP3   OH226761   1.963   6.434   1.312 -0.0929  0.2185  0.1909
 1757TIP3    H126762   1.897   6.390   1.257  0.2689 -0.9285  0.6381
 1757TIP3    H226763   1.914   6.464   1.388 -0.5064  1.3860 -0.5132
 1758TIP3   OH226764   4.938   1.200   0.715  0.0469 -0.3536 -0.1167
 1758TIP3    H126765   4.876   1.190   0.643  0.1147 -1.8512 -0.0002
 1758TIP3    H226766   4.886   1.180   0.794 -0.4712  2.8472  0.5169
 1759TIP3   OH226767   2.836   3.840   0.660 -0.4134 -0.9584  0.3416
 1759TIP3    H126768   2.869   3.838   0.570 -1.1313 -1.2907  0.0739
 1759TIP3    H226769   2.820   3.748   0.682  1.3287 -1.0388  1.4270
 1760TIP3   OH226770   0.055   6.598   2.720  0.1226 -0.0039  0.2682
 1760TIP3    H126771   0.148   6.619   2.720 -0.0299  0.7031  0.4099
 1760TIP3    H226772   0.050   6.508   2.689  0.9084 -0.2912  0.9470
 1761TIP3   OH226773   2.442   3.629  16.964 -0.2171 -0.5705 -0.1773
 1761TIP3    H126774   2.422   3.539  16.936 -2.1318 -0.1597 -0.2462
 1761TIP3    H226775   2.373   3.651  17.026  1.6219  0.0324  1.7512
 1762TIP3   OH226776   5.698   2.006  13.668 -0.4197  0.1210 -0.1245
 1762TIP3    H126777   5.727   2.073  13.730  0.9344 -0.2997 -0.2748
 1762TIP3    H226778   5.609   2.033  13.643 -1.5444 -0.3326  2.9219
 1763TIP3   OH226779   2.638   3.723  16.807 -0.5427 -0.2743 -0.3031
 1763TIP3    H126780   2.603   3.812  16.800  0.2621  0.2035  1.1881
 1763TIP3    H226781   2.577   3.677  16.864 -1.1219 -0.7930 -1.3156
 1764TIP3   OH226782   3.582   0.869  12.134 -0.1562  0.3194 -0.1456
 1764TIP3    H126783   3.560   0.956  12.101  3.1006  1.9445  1.4926
 1764TIP3    H226784   3.621   0.824  12.059 -0.8179  0.6563 -0.7080
 1765TIP3   OH226785   4.461   6.104  12.171  0.0788  0.2962  0.6777
 1765TIP3    H126786   4.528   6.130  12.234 -0.2993  0.8993  0.8411
 1765TIP3    H226787   4.382   6.152  12.198 -1.0845 -2.0991  1.8671
 1766TIP3   OH226788   3.593   0.033  16.283 -0.5432 -0.8913 -0.2160
 1766TIP3    H126789   3.498   0.039  16.276 -0.5160  0.9383  0.3360
 1766TIP3    H226790   3.626   0.101  16.224  0.4051 -1.0621  0.0947
 1767TIP3   OH226791   6.459   6.360  14.441  0.3193 -0.2182 -0.3566
 1767TIP3    H126792   6.400   6.320  14.505 -0.5671  3.1937  1.1767
 1767TIP3    H226793   6.407   6.365  14.360 -0.2598 -0.3170  0.0060
 1768TIP3   OH226794   2.724   4.553  13.953  0.2534 -0.1494 -0.0252
 1768TIP3    H126795   2.731   4.633  13.900 -1.6174  0.1773  0.1588
 1768TIP3    H226796   2.788   4.494  13.915  0.9344  1.0657 -0.8509
 1769TIP3   OH226797   3.824   5.252   4.263  0.1070  0.0873 -0.2448
 1769TIP3    H126798   3.763   5.323   4.286  1.1959  1.3998 -1.2321
 1769TIP3    H226799   3.909   5.284   4.291  0.8510 -0.0881 -2.1418
 1770TIP3   OH226800   3.116   0.032   0.235 -0.1137 -0.0439 -0.0640
 1770TIP3    H126801   3.142  -0.060   0.231 -0.4788 -0.1869  0.6828
 1770TIP3    H226802   3.068   0.047   0.154  2.1828  0.2104 -1.4580
 1771TIP3   OH226803   0.231   2.279  17.137  0.1211  0.3251  0.3391
 1771TIP3    H126804   0.174   2.270  17.214 -1.1752  0.0057 -0.6289
 1771TIP3    H226805   0.315   2.246  17.167 -0.9414 -2.0475  0.9771
 1772TIP3   OH226806   3.306   1.291  12.414 -0.6880  0.0098 -0.0336
 1772TIP3    H126807   3.296   1.196  12.405  0.6255 -0.1316 -0.1945
 1772TIP3    H226808   3.239   1.328  12.355 -0.0667 -0.8328 -1.3214
 1773TIP3   OH226809   3.497   3.029   1.109  0.5585 -1.1360 -0.3003
 1773TIP3    H126810   3.463   2.940   1.110  1.2689 -1.4391 -1.3700
 1773TIP3    H226811   3.458   3.068   1.030 -0.4233 -0.2089  0.6021
 1774TIP3   OH226812   1.136   5.009   3.419  0.2992  0.0792 -0.4717
 1774TIP3    H126813   1.163   5.099   3.405  0.6479  0.3011  1.3325
 1774TIP3    H226814   1.064   5.014   3.482 -0.0309 -0.8779 -0.7422
 1775TIP3   OH226815   1.482   4.281   1.674  0.8122 -0.1811 -0.0848
 1775TIP3    H126816   1.539   4.353   1.647 -0.1388  0.7867  0.4331
 1775TIP3    H226817   1.495   4.214   1.607  1.4236  0.6173 -0.7898
 1776TIP3   OH226818   3.462   6.744  11.130  0.6086 -0.3524 -0.4402
 1776TIP3    H126819   3.517   6.801  11.184  1.8476 -0.6935 -1.2900
 1776TIP3    H226820   3.450   6.793  11.048 -1.0712  0.0673  0.0066
 1777TIP3   OH226821   5.992   4.661  15.334 -0.2026  0.3030 -0.6340
 1777TIP3    H126822   6.060   4.595  15.331 -0.9966 -0.6932  1.2816
 1777TIP3    H226823   6.031   4.735  15.381 -0.7904 -0.8428  1.8267
 1778TIP3   OH226824   0.365   1.100   6.071 -0.0002 -0.1564 -0.2461
 1778TIP3    H126825   0.293   1.147   6.030  0.0601 -0.1933 -0.3949
 1778TIP3    H226826   0.431   1.167   6.089 -0.9278  0.2912  1.8853
 1779TIP3   OH226827   4.304   4.381   3.908  0.3841  0.0238  0.3810
 1779TIP3    H126828   4.328   4.473   3.904  1.0982 -0.1493  0.5447
 1779TIP3    H226829   4.383   4.334   3.880 -0.2302 -0.5107 -0.5261
 1780TIP3   OH226830   2.582   5.416  13.261  0.0853  0.1862 -0.0731
 1780TIP3    H126831   2.566   5.368  13.180 -0.7476 -0.0608  0.2290
 1780TIP3    H226832   2.594   5.507  13.233 -1.4646  0.3252 -0.3770
 1781TIP3   OH226833   4.126   1.850   2.983 -0.2719  0.1389  0.7893
 1781TIP3    H126834   4.171   1.934   2.992 -0.7813  0.4018  0.8862
 1781TIP3    H226835   4.126   1.833   2.889 -0.9274  0.6679  0.6887
 1782TIP3   OH226836   6.089   4.982  17.255 -0.0047  0.3791 -0.2216
 1782TIP3    H126837   6.164   4.924  17.237  1.2315  1.6278  0.7056
 1782TIP3    H226838   6.037   4.933  17.319  1.0429  0.2766  0.5840
 1783TIP3   OH226839   3.431   2.011  13.265 -0.4067 -0.5947 -0.3158
 1783TIP3    H126840   3.400   2.021  13.175  1.0552 -1.4768 -0.9645
 1783TIP3    H226841   3.352   1.999  13.317 -1.2952  0.2043 -1.4298
 1784TIP3   OH226842   5.534   2.012  11.061  0.5565 -0.4523  0.0930
 1784TIP3    H126843   5.504   1.940  11.117 -3.7889 -0.2581 -1.6003
 1784TIP3    H226844   5.485   2.088  11.093  0.7294  0.4460 -1.6799
 1785TIP3   OH226845   5.314   1.778  12.922 -0.6491 -0.3089  0.5253
 1785TIP3    H126846   5.323   1.874  12.920 -0.7538 -0.2457  1.8493
 1785TIP3    H226847   5.229   1.762  12.881 -1.4769  0.3374  1.9024
 1786TIP3   OH226848   1.271   4.942  17.091  0.0609 -0.1066 -0.0239
 1786TIP3    H126849   1.332   4.939  17.165  0.1056 -0.5465 -0.0740
 1786TIP3    H226850   1.320   4.984  17.021  0.3049 -0.4334 -0.0548
 1787TIP3   OH226851   5.049   4.145   2.723 -0.0037 -0.4137  0.1509
 1787TIP3    H126852   4.982   4.189   2.775 -0.1445 -1.3284  0.7684
 1787TIP3    H226853   5.035   4.178   2.634 -2.1139 -1.4844  0.0115
 1788TIP3   OH226854   1.359   6.240  12.679 -0.0473 -0.0818  0.2561
 1788TIP3    H126855   1.288   6.297  12.651 -1.1767 -0.3360  2.3660
 1788TIP3    H226856   1.326   6.152  12.665 -1.6341 -0.3053  4.1201
 1789TIP3   OH226857   3.748   2.277  16.436  0.0834  0.2346  0.0199
 1789TIP3    H126858   3.792   2.193  16.420  1.1134  0.8850 -0.7284
 1789TIP3    H226859   3.733   2.313  16.349  1.6611  1.7989  0.3290
 1790TIP3   OH226860   4.829   2.427   1.742  0.0044  0.2260  0.5932
 1790TIP3    H126861   4.839   2.399   1.833  0.0832  1.0406  0.8406
 1790TIP3    H226862   4.803   2.519   1.748 -4.4293 -0.7709 -0.0538
 1791TIP3   OH226863   2.099   3.584   0.555 -0.0794 -0.3718  0.3233
 1791TIP3    H126864   2.036   3.539   0.499 -0.3543 -0.7290  0.9160
 1791TIP3    H226865   2.172   3.523   0.563 -0.1314 -0.4048  0.5312
 1792TIP3   OH226866   3.568   3.862   2.439  0.4309 -0.4240 -0.1167
 1792TIP3    H126867   3.644   3.834   2.388  1.0324 -0.6243  0.8594
 1792TIP3    H226868   3.574   3.812   2.520 -0.0674  0.4393  0.4730
 1793TIP3   OH226869   3.226   2.249   1.756 -0.1447 -0.4127 -0.3901
 1793TIP3    H126870   3.162   2.319   1.751 -2.6547 -2.4177  0.9595
 1793TIP3    H226871   3.243   2.225   1.665 -1.2728  0.2392 -0.7947
 1794TIP3   OH226872   3.156   0.585   5.335 -0.3535 -0.1757 -0.3492
 1794TIP3    H126873   3.091   0.613   5.271 -1.6509 -0.5716  0.7508
 1794TIP3    H226874   3.239   0.618   5.300 -1.4141  2.6026 -0.5228
 1795TIP3   OH226875   0.672   4.517   4.782 -0.7714 -0.0701  0.5675
 1795TIP3    H126876   0.756   4.506   4.826 -0.2873  1.2607  0.0244
 1795TIP3    H226877   0.653   4.430   4.746  0.0088 -0.5690  1.3115
 1796TIP3   OH226878   2.954   1.844  13.812  0.3246  0.2036  0.2699
 1796TIP3    H126879   2.913   1.825  13.896 -0.1625 -0.5062 -0.1200
 1796TIP3    H226880   2.944   1.939  13.801 -5.1517 -0.2561 -1.7596
 1797TIP3   OH226881   3.130   1.517   0.302 -0.1231  1.0785 -0.0188
 1797TIP3    H126882   3.160   1.427   0.288 -1.5227  0.7962 -1.5294
 1797TIP3    H226883   3.177   1.546   0.380 -0.3991 -1.3227  1.1253
 1798TIP3   OH226884   0.344   1.166   1.025 -0.0234 -0.2916 -0.5258
 1798TIP3    H126885   0.383   1.080   1.007 -1.0625 -0.7734 -0.5884
 1798TIP3    H226886   0.310   1.158   1.114  0.2069  0.1857 -0.3968
 1799TIP3   OH226887   3.065   5.816  13.236 -0.7203 -0.4423 -0.3657
 1799TIP3    H126888   3.136   5.847  13.292 -1.0215  0.1957 -0.3296
 1799TIP3    H226889   3.109   5.785  13.157 -0.1770 -2.5422  0.6990
 1800TIP3   OH226890   4.154   1.987  16.422 -0.2778  0.2705 -0.1673
 1800TIP3    H126891   4.182   2.062  16.474  1.3878  0.6328 -1.5084
 1800TIP3    H226892   4.172   1.911  16.478 -1.2181  0.7887  0.8819
 1801TIP3   OH226893   6.525   6.153   0.019 -0.0076 -0.2061  0.0304
 1801TIP3    H126894   6.509   6.060   0.034 -1.9622 -0.4568 -2.7950
 1801TIP3    H226895   6.438   6.192   0.017  0.4008  0.8421 -2.9173
 1802TIP3   OH226896   6.119   5.878   4.690 -0.0551 -0.1061 -0.0459
 1802TIP3    H126897   6.068   5.797   4.682 -0.1435  0.0410 -0.9977
 1802TIP3    H226898   6.196   5.863   4.636  0.5904 -0.0528  0.8316
 1803TIP3   OH226899   3.710   4.906  13.857  0.1896  0.1394  0.3472
 1803TIP3    H126900   3.704   4.951  13.772  1.4499  1.1390  0.7408
 1803TIP3    H226901   3.620   4.885  13.880 -0.6974  3.7682  0.7762
 1804TIP3   OH226902   1.328   1.443  14.080 -0.2492 -0.0320  0.4335
 1804TIP3    H126903   1.414   1.470  14.046 -0.0312 -0.5219  0.5822
 1804TIP3    H226904   1.346   1.413  14.170 -0.2742 -1.7493 -0.0965
 1805TIP3   OH226905   5.424   1.647  16.812 -0.2103  0.1589  0.1132
 1805TIP3    H126906   5.407   1.613  16.900  0.5553  2.7468  1.3392
 1805TIP3    H226907   5.347   1.700  16.791  0.5371  1.2869  0.1544
 1806TIP3   OH226908   2.063   5.426  13.316 -0.4567 -0.2093 -0.2770
 1806TIP3    H126909   2.086   5.397  13.404 -0.4003 -0.5489 -0.4008
 1806TIP3    H226910   1.971   5.452  13.322  0.1826  2.1449  0.4700
 1807TIP3   OH226911   5.691   5.493  11.837  0.0954 -0.4255  0.1074
 1807TIP3    H126912   5.670   5.409  11.797  0.9357 -0.5052 -0.1856
 1807TIP3    H226913   5.781   5.511  11.809 -0.4503  1.1221 -0.7867
 1808TIP3   OH226914   1.845   0.046   1.413  0.6850 -0.3345  0.2261
 1808TIP3    H126915   1.870  -0.011   1.486  1.4213  0.3577  0.5356
 1808TIP3    H226916   1.752   0.028   1.399  0.7492 -1.1363  0.7335
 1809TIP3   OH226917   1.833   0.253  14.904 -0.0529 -0.6570  0.2590
 1809TIP3    H126918   1.873   0.329  14.863  1.1393 -0.9945  0.7466
 1809TIP3    H226919   1.864   0.178  14.851 -1.5217 -0.7902 -0.4535
 1810TIP3   OH226920   1.029   1.579   1.076  0.0456 -0.5402 -0.5087
 1810TIP3    H126921   0.982   1.539   1.148 -0.0558 -0.0743 -0.3086
 1810TIP3    H226922   1.035   1.511   1.009  0.7367 -1.1924  0.2047
 1811TIP3   OH226923   2.238   4.849  15.486  0.2199  0.0563 -0.2700
 1811TIP3    H126924   2.254   4.828  15.394  0.7718 -1.4746  0.1332
 1811TIP3    H226925   2.216   4.942  15.487  0.2524  0.1064 -1.9347
 1812TIP3   OH226926   2.683   2.818   2.908 -0.2042  0.1011 -0.7928
 1812TIP3    H126927   2.592   2.841   2.926 -0.4819 -1.0562 -0.6288
 1812TIP3    H226928   2.698   2.738   2.958  1.5674  1.3990  0.8972
 1813TIP3   OH226929   4.643   2.223   2.829  0.2938  0.1645  0.2414
 1813TIP3    H126930   4.616   2.141   2.871  0.3714  0.3809  0.7118
 1813TIP3    H226931   4.738   2.214   2.819  0.2602  0.0664  0.0112
 1814TIP3   OH226932   4.241   0.008  16.503 -0.0826 -0.1151 -0.1058
 1814TIP3    H126933   4.172   0.065  16.538  0.1157 -0.8442  1.5948
 1814TIP3    H226934   4.298   0.067  16.454 -2.1155  0.4381 -1.9752
 1815TIP3   OH226935   5.326   2.198  14.727  0.3332  0.3064  0.1679
 1815TIP3    H126936   5.419   2.219  14.734  0.2422  0.9089 -0.2725
 1815TIP3    H226937   5.323   2.110  14.689  0.7311 -0.4477  1.8078
 1816TIP3   OH226938   4.518   1.898  16.404 -0.0332  0.1727  0.1058
 1816TIP3    H126939   4.530   1.848  16.485 -0.8769 -0.8515 -0.3741
 1816TIP3    H226940   4.471   1.977  16.432 -1.1978 -0.6267  0.5139
 1817TIP3   OH226941   2.218   1.337  12.733 -0.2825 -0.0042  0.4868
 1817TIP3    H126942   2.156   1.371  12.668 -0.0392 -0.0084  0.2497
 1817TIP3    H226943   2.194   1.245  12.743  0.1626 -0.2015 -0.1725
 1818TIP3   OH226944   1.672   1.964  13.581 -0.4169  0.3768 -0.1053
 1818TIP3    H126945   1.677   1.955  13.486  1.8357 -0.7650  0.0635
 1818TIP3    H226946   1.578   1.964  13.600 -0.9726 -2.8885 -2.0541
 1819TIP3   OH226947   1.271   4.035   2.395 -0.2417  0.1791 -0.3003
 1819TIP3    H126948   1.333   3.994   2.455 -0.4876  0.0674 -0.1186
 1819TIP3    H226949   1.299   4.126   2.390 -0.2397  0.1996  0.0160
 1820TIP3   OH226950   2.041   2.169  13.498 -0.1120 -0.0140  0.0241
 1820TIP3    H126951   1.988   2.140  13.572  0.3006 -0.9567 -0.0460
 1820TIP3    H226952   1.990   2.239  13.458 -0.7892 -0.1643  0.6171
 1821TIP3   OH226953   1.920   3.279   6.407  0.2764  0.7050 -0.1092
 1821TIP3    H126954   1.921   3.198   6.356 -0.7550  1.4408 -1.3645
 1821TIP3    H226955   1.843   3.271   6.464  0.8579  0.3045  0.6260
 1822TIP3   OH226956   4.019   4.556  12.137 -0.4011  0.1553  0.1912
 1822TIP3    H126957   4.113   4.538  12.128 -0.3687  0.6641 -0.6659
 1822TIP3    H226958   4.008   4.578  12.229  0.0078 -1.5945  0.6814
 1823TIP3   OH226959   6.553   0.563   1.713  0.2246  0.0269 -0.2319
 1823TIP3    H126960   6.549   0.505   1.637 -0.2416 -0.4080  0.1189
 1823TIP3    H226961   6.629   0.619   1.697 -0.1287  0.2360 -1.2268
 1824TIP3   OH226962   0.996   2.361  12.283 -0.0472 -0.1430  0.6745
 1824TIP3    H126963   1.032   2.293  12.226 -0.8850 -0.6891  0.7828
 1824TIP3    H226964   1.016   2.331  12.372  0.0709  0.0278  0.7057
 1825TIP3   OH226965   2.109   1.063  12.774  0.4595  0.1768 -0.0055
 1825TIP3    H126966   2.047   1.113  12.827  0.7801  1.8665 -1.1722
 1825TIP3    H226967   2.110   0.976  12.815  0.1115  1.1722  2.2700
 1826TIP3   OH226968   1.977   5.663   5.014 -0.0388  0.2317  0.0053
 1826TIP3    H126969   1.980   5.568   5.012 -0.6713  0.2244 -0.8372
 1826TIP3    H226970   2.045   5.687   5.077  1.2579 -0.7248 -0.9551
 1827TIP3   OH226971   2.120   4.407   1.001  0.2021  0.3121  0.3514
 1827TIP3    H126972   2.105   4.336   0.938  0.1326  1.1751 -0.6508
 1827TIP3    H226973   2.032   4.435   1.026  0.2355 -0.4077  1.2811
 1828TIP3   OH226974   4.832   0.049  11.497  0.1941 -0.1468  0.4249
 1828TIP3    H126975   4.806  -0.036  11.460 -1.0711  0.5706 -0.3889
 1828TIP3    H226976   4.796   0.047  11.586 -1.0977  0.0870 -0.0732
 1829TIP3   OH226977   3.484   5.074   1.188 -0.2835  0.4425  0.5807
 1829TIP3    H126978   3.479   5.112   1.275 -0.0214  0.9017  0.4008
 1829TIP3    H226979   3.496   5.149   1.129  2.0299  0.0088  0.3759
 1830TIP3   OH226980   1.802   4.678   2.229  0.3000  0.2814 -0.1712
 1830TIP3    H126981   1.776   4.767   2.206  0.5632  1.0629  2.2612
 1830TIP3    H226982   1.769   4.624   2.157 -1.8432  2.0494 -0.6300
 1831TIP3   OH226983   0.651   0.322  13.371 -0.0819  0.4434  0.6878
 1831TIP3    H126984   0.631   0.252  13.433  2.3629  1.0741  2.2914
 1831TIP3    H226985   0.716   0.376  13.415  0.5563  1.8685 -1.8152
 1832TIP3   OH226986   1.729   1.115  14.242 -0.3189 -0.5417  0.2682
 1832TIP3    H126987   1.647   1.164  14.234  1.5289  2.4004 -3.8042
 1832TIP3    H226988   1.721   1.045  14.176 -0.0161 -1.1182  0.8279
 1833TIP3   OH226989   6.073   4.023   2.484  0.3723 -0.1726 -0.0057
 1833TIP3    H126990   6.120   4.097   2.446 -0.3139 -0.0274 -0.5914
 1833TIP3    H226991   6.046   3.971   2.408  0.8287 -1.0162  0.3999
 1834TIP3   OH226992   6.038   4.081  12.906  0.7497  0.2233 -0.3421
 1834TIP3    H126993   6.081   4.145  12.963  0.0901  0.4651 -0.1143
 1834TIP3    H226994   5.991   4.023  12.965  1.2848 -0.4440 -0.5554
 1835TIP3   OH226995   6.767   5.054  11.966 -0.1068  0.2251 -0.7388
 1835TIP3    H126996   6.683   5.086  11.931 -0.1268  2.0606  0.7980
 1835TIP3    H226997   6.758   4.959  11.965 -1.8476  0.3457 -1.4797
 1836TIP3   OH226998   2.647   3.019  13.571  0.0142 -0.1627  0.1060
 1836TIP3    H126999   2.685   3.007  13.484 -0.7470 -0.8080 -0.1496
 1836TIP3    H227000   2.637   3.114  13.580  1.2788 -0.0009  0.0228
 1837TIP3   OH227001   5.870   6.613   6.193  0.5673 -0.6119  0.6334
 1837TIP3    H127002   5.793   6.572   6.154  1.5028  0.4167 -2.5577
 1837TIP3    H227003   5.914   6.541   6.240 -0.8226 -1.8628  0.1057
 1838TIP3   OH227004   0.247   1.317   0.587  0.6238 -0.3253  0.5090
 1838TIP3    H127005   0.284   1.255   0.523  1.6481 -1.2328  1.8952
 1838TIP3    H227006   0.310   1.389   0.590  0.6509 -0.3517  0.5856
 1839TIP3   OH227007   5.047   4.711   3.640 -0.1820 -0.2672  0.0700
 1839TIP3    H127008   4.971   4.654   3.627 -0.7972  0.5220  0.0768
 1839TIP3    H227009   5.013   4.783   3.693  0.5747  0.1106  0.0510
 1840TIP3   OH227010   6.401   1.962  15.272  0.1590  0.4088 -0.1888
 1840TIP3    H127011   6.327   1.936  15.327 -0.9219  1.0217 -1.3111
 1840TIP3    H227012   6.445   2.030  15.323  0.2491 -0.2893  0.6945
 1841TIP3   OH227013   1.562   0.199   4.882 -0.8107  0.4595 -0.4264
 1841TIP3    H127014   1.572   0.230   4.972  1.1452  0.9203 -0.7704
 1841TIP3    H227015   1.536   0.108   4.890  2.8086 -0.6217  0.7096
 1842TIP3   OH227016   5.099   2.179   3.369 -0.3636 -0.0619 -0.1033
 1842TIP3    H127017   5.103   2.096   3.417 -2.5938  1.4591  3.0589
 1842TIP3    H227018   5.012   2.214   3.389 -0.2176  2.2440 -2.8606
 1843TIP3   OH227019   2.071   1.071   2.021 -0.2390  0.0011 -0.4855
 1843TIP3    H127020   2.072   1.001   2.086 -1.0786  2.1027  1.9305
 1843TIP3    H227021   1.979   1.080   1.998 -0.5343  1.9515  1.2093
 1844TIP3   OH227022   3.309   0.231  16.293 -0.4696 -0.0362 -0.2889
 1844TIP3    H127023   3.272   0.299  16.348  0.2382 -0.7562  1.1385
 1844TIP3    H227024   3.381   0.275  16.246 -1.2556  0.6489 -0.8799
 1845TIP3   OH227025   2.224   4.206  13.841  0.0190 -0.2180  0.4044
 1845TIP3    H127026   2.182   4.120  13.845 -1.1319  0.3308  0.4785
 1845TIP3    H227027   2.311   4.188  13.803  0.0191 -1.4746  0.9428
 1846TIP3   OH227028   5.509   5.096   2.302  0.1087  0.6497 -0.4525
 1846TIP3    H127029   5.594   5.139   2.293  0.4498  0.0358 -0.1815
 1846TIP3    H227030   5.522   5.030   2.370 -1.2390  2.1974  1.4225
 1847TIP3   OH227031   3.271   2.878   0.588 -0.1802  0.2986 -0.1519
 1847TIP3    H127032   3.222   2.807   0.546  0.8459  0.1056 -1.0390
 1847TIP3    H227033   3.220   2.897   0.667 -1.1939 -0.5120 -0.5765
 1848TIP3   OH227034   5.153   2.003  15.918 -0.3355 -0.4845  0.2264
 1848TIP3    H127035   5.152   1.999  16.013  1.7229  0.7016  0.3577
 1848TIP3    H227036   5.224   1.944  15.892 -2.8584 -3.2966 -0.8570
 1849TIP3   OH227037   5.752   3.805   1.800  0.5042 -0.3362  0.1316
 1849TIP3    H127038   5.753   3.710   1.798 -0.5409 -0.4066  1.7255
 1849TIP3    H227039   5.736   3.831   1.709  0.1610 -1.6816 -0.2085
 1850TIP3   OH227040   3.778   2.999  14.938 -0.5549 -0.1422  0.3705
 1850TIP3    H127041   3.730   2.927  14.978 -1.1788 -0.0980 -0.2778
 1850TIP3    H227042   3.712   3.050  14.892  0.2146 -0.6816 -1.4641
 1851TIP3   OH227043   0.387   1.098   1.812 -0.2320  0.2438 -0.2778
 1851TIP3    H127044   0.297   1.112   1.843 -0.9757 -2.2160 -1.0575
 1851TIP3    H227045   0.436   1.075   1.891 -0.3862  1.0794  0.0732
 1852TIP3   OH227046   0.626   4.019  11.380  0.0670  0.0127  0.1963
 1852TIP3    H127047   0.546   4.068  11.399 -1.0884 -1.2285 -1.2051
 1852TIP3    H227048   0.598   3.949  11.320  2.0453 -1.0021  0.3652
 1853TIP3   OH227049   5.624   2.012   0.749 -0.0220 -0.2930 -0.0252
 1853TIP3    H127050   5.560   2.059   0.695 -0.8607 -0.2617  0.9493
 1853TIP3    H227051   5.584   2.009   0.836  1.0312 -0.8428  0.4651
 1854TIP3   OH227052   5.871   0.045   2.513 -0.1202 -0.2629 -0.3815
 1854TIP3    H127053   5.849   0.056   2.420 -0.3099  0.5389 -0.2481
 1854TIP3    H227054   5.960   0.079   2.521 -0.6000  0.9493 -0.0207
 1855TIP3   OH227055   2.995   2.371   2.690  0.3999 -0.3577  0.0505
 1855TIP3    H127056   3.053   2.305   2.726  1.6689  0.9334  0.4742
 1855TIP3    H227057   2.953   2.328   2.615  0.4123 -1.9379  0.9044
 1856TIP3   OH227058   2.627   3.266  13.165  0.1314 -0.6009 -0.0859
 1856TIP3    H127059   2.622   3.337  13.100  1.3223 -0.4066  0.0148
 1856TIP3    H227060   2.675   3.304  13.238  0.5077 -1.4182  0.1008
 1857TIP3   OH227061   6.341   2.294   0.784 -0.6459 -0.0357 -0.0119
 1857TIP3    H127062   6.262   2.347   0.796 -0.8738 -0.3192 -0.2276
 1857TIP3    H227063   6.335   2.263   0.694  0.2026  0.7223 -0.3370
 1858TIP3   OH227064   0.839   6.761  14.582 -0.5684 -0.0546 -0.0691
 1858TIP3    H127065   0.816   6.709  14.506 -1.4030 -0.6282  0.5599
 1858TIP3    H227066   0.777   6.734  14.650 -0.2263  0.8705  0.6387
 1859TIP3   OH227067   1.198   4.874  12.782 -0.1724  0.6624  0.1416
 1859TIP3    H127068   1.213   4.799  12.724 -0.8621 -0.5385  1.4616
 1859TIP3    H227069   1.281   4.885  12.828 -0.1193  0.6201  0.0569
 1860TIP3   OH227070   5.136   6.714   0.327  0.1563 -0.0211 -0.1342
 1860TIP3    H127071   5.103   6.797   0.293  2.9250  0.4392 -2.1315
 1860TIP3    H227072   5.075   6.649   0.294  0.0069  0.9226 -1.8591
 1861TIP3   OH227073   4.317   1.368  13.676  0.3046  0.4776 -0.5821
 1861TIP3    H127074   4.392   1.423  13.698  1.5681 -1.2626 -0.3681
 1861TIP3    H227075   4.352   1.301  13.618 -0.8380 -1.0216  0.3882
 1862TIP3   OH227076   1.973   1.763  11.828  0.0917  0.4990 -0.7231
 1862TIP3    H127077   1.959   1.676  11.867 -0.0608  1.0353  0.4700
 1862TIP3    H227078   1.997   1.818  11.903 -0.8820  1.7258 -1.2964
 1863TIP3   OH227079   4.874   0.049   3.419 -0.4675  0.1888  0.1717
 1863TIP3    H127080   4.886   0.101   3.498  1.2660  0.9445 -0.5398
 1863TIP3    H227081   4.956   0.001   3.409 -0.6004  0.2175 -1.2325
 1864TIP3   OH227082   6.777   2.402   2.393  0.4521  0.0727 -0.0135
 1864TIP3    H127083   6.857   2.397   2.341 -0.3776 -1.9284 -1.2135
 1864TIP3    H227084   6.808   2.415   2.483  2.1212 -0.4287 -0.4753
 1865TIP3   OH227085   0.053   4.809  10.810  0.1547 -0.1451  0.0201
 1865TIP3    H127086   0.078   4.846  10.726  0.2889  2.3983  1.0873
 1865TIP3    H227087  -0.040   4.830  10.819  0.6996  2.1013  1.5641
 1866TIP3   OH227088   3.524   0.354  17.159  0.0565 -0.0593  0.2797
 1866TIP3    H127089   3.465   0.287  17.125 -1.2499  1.6274 -0.9500
 1866TIP3    H227090   3.467   0.409  17.213  0.7042  1.0548 -0.1551
 1867TIP3   OH227091   1.004   5.075  16.357 -0.1174  0.4454 -0.3535
 1867TIP3    H127092   1.085   5.026  16.342 -0.3800 -0.5243  1.2113
 1867TIP3    H227093   0.946   5.047  16.286 -0.3200 -1.6771  0.5776
 1868TIP3   OH227094   2.731   2.569   5.334 -0.6066  0.2630 -0.7683
 1868TIP3    H127095   2.724   2.532   5.246  0.9851 -2.1000  0.0169
 1868TIP3    H227096   2.707   2.498   5.393  2.4336  0.3737  0.8249
 1869TIP3   OH227097   2.400   3.669   4.877 -0.3876  0.1089  0.4297
 1869TIP3    H127098   2.344   3.597   4.906 -0.1688 -0.2702 -0.0813
 1869TIP3    H227099   2.401   3.662   4.782  1.4049 -0.5515  0.4696
 1870TIP3   OH227100   5.459   2.893   1.657  0.5446  0.3357 -0.3467
 1870TIP3    H127101   5.465   2.985   1.680 -0.0978  0.8234 -2.0001
 1870TIP3    H227102   5.437   2.849   1.740 -1.8260  2.0023  0.0268
 1871TIP3   OH227103   6.319   2.194  12.643  0.2246 -0.3982 -0.3861
 1871TIP3    H127104   6.275   2.119  12.603  0.0270 -1.3116  1.4023
 1871TIP3    H227105   6.270   2.209  12.724  0.3473  1.6105 -0.6413
 1872TIP3   OH227106   6.044   5.247   2.280 -0.0386  0.0594  0.5684
 1872TIP3    H127107   6.133   5.279   2.264 -0.3230  0.7381  0.3234
 1872TIP3    H227108   6.040   5.233   2.374  0.6419 -0.9397  0.4687
 1873TIP3   OH227109   2.308   5.602   2.022 -0.3447 -0.2861 -0.3454
 1873TIP3    H127110   2.320   5.696   2.036  1.7972 -0.3224 -1.5514
 1873TIP3    H227111   2.230   5.580   2.073 -0.0539  1.8506  1.1461
 1874TIP3   OH227112   0.529   1.063  12.115  0.1137  0.2680  0.5040
 1874TIP3    H127113   0.478   1.054  12.034  0.4954  0.6431  0.2211
 1874TIP3    H227114   0.477   1.123  12.169  0.7164  1.4256 -0.1713
 1875TIP3   OH227115   2.268   6.294  14.725  0.0435 -0.5294 -1.0362
 1875TIP3    H127116   2.222   6.345  14.658  0.1129  0.7805 -0.1105
 1875TIP3    H227117   2.216   6.307  14.805  0.5553 -1.1981 -0.5830
 1876TIP3   OH227118   1.933   6.463  16.258 -0.4167  0.6559  0.8378
 1876TIP3    H127119   1.877   6.537  16.284  1.4479  2.1826  0.7116
 1876TIP3    H227120   1.979   6.495  16.180 -0.2028 -0.9890  0.2691
 1877TIP3   OH227121   0.298   6.761  13.786 -0.6148  0.5489 -0.2502
 1877TIP3    H127122   0.300   6.838  13.844 -0.7159  0.2060  0.2152
 1877TIP3    H227123   0.383   6.719  13.798 -0.7626  0.2924 -0.0975
 1878TIP3   OH227124   0.821   0.103   3.634  0.0137  0.0885  0.0961
 1878TIP3    H127125   0.729   0.082   3.613 -0.0689  0.7535 -0.2261
 1878TIP3    H227126   0.851   0.155   3.560 -0.0463  1.8558  1.2694
 1879TIP3   OH227127   3.826   2.616   6.806  0.2465 -0.1087 -0.0473
 1879TIP3    H127128   3.853   2.708   6.807  0.3815 -0.0788  2.7376
 1879TIP3    H227129   3.903   2.568   6.777  0.4926  0.5745 -0.5524
 1880TIP3   OH227130   2.744   2.088   4.665 -0.5334 -0.1059  0.0522
 1880TIP3    H127131   2.737   2.022   4.734 -1.1802  0.6108  0.6836
 1880TIP3    H227132   2.802   2.155   4.701 -2.7074  1.4367  0.9038
 1881TIP3   OH227133   0.891   1.013  11.380 -0.5089  0.2788  0.5943
 1881TIP3    H127134   0.826   1.007  11.450 -0.3571  0.5574  0.7595
 1881TIP3    H227135   0.929   1.100  11.390 -1.7864  1.0703 -0.9598
 1882TIP3   OH227136   3.166   4.702   3.010  0.8829 -0.0074 -0.4950
 1882TIP3    H127137   3.142   4.745   2.927  0.4180 -1.2122 -1.0214
 1882TIP3    H227138   3.094   4.640   3.025  1.9423 -1.2202 -0.2491
 1883TIP3   OH227139   1.950   0.442   1.216 -0.0230 -0.1231  0.3513
 1883TIP3    H127140   1.940   0.347   1.217 -0.7286 -0.0540  0.3941
 1883TIP3    H227141   1.932   0.469   1.306  0.4883  0.0214  0.4110
 1884TIP3   OH227142   4.239   3.831   3.478 -0.2654 -0.1003 -0.1570
 1884TIP3    H127143   4.263   3.793   3.563 -1.9461  0.0526  0.4413
 1884TIP3    H227144   4.160   3.783   3.452 -0.1137  0.2717 -1.3440
 1885TIP3   OH227145   1.718   0.484   6.031  0.5754  0.3739 -0.1811
 1885TIP3    H127146   1.809   0.462   6.051  0.1622 -0.3297  1.0622
 1885TIP3    H227147   1.677   0.401   6.008 -0.2464  0.3118  1.3890
 1886TIP3   OH227148   1.875   2.471  15.013  0.1811 -0.0430 -0.2141
 1886TIP3    H127149   1.851   2.503  14.926  1.0261  0.2913 -0.3331
 1886TIP3    H227150   1.859   2.376  15.009  0.9361 -0.1514 -0.9900
 1887TIP3   OH227151   0.107   2.721   1.415  0.0217 -0.5778 -0.2390
 1887TIP3    H127152   0.115   2.686   1.504  1.5715 -1.3320 -0.6422
 1887TIP3    H227153   0.140   2.811   1.422 -0.0715 -0.5590 -0.0218
 1888TIP3   OH227154   1.871   6.737   3.836 -0.0643 -0.2270 -0.8152
 1888TIP3    H127155   1.875   6.832   3.842 -3.1500  0.0229 -0.9448
 1888TIP3    H227156   1.807   6.720   3.767  0.4053 -2.3918 -0.7881
 1889TIP3   OH227157   6.456   3.651  14.529  0.6626 -0.3707  0.5556
 1889TIP3    H127158   6.506   3.713  14.475 -1.5186  0.2557 -0.8642
 1889TIP3    H227159   6.391   3.705  14.573  0.2292 -1.3534  1.1371
 1890TIP3   OH227160   4.584   0.273   1.951 -0.4884 -0.4239  0.1577
 1890TIP3    H127161   4.639   0.260   2.028 -0.3308 -1.8980 -0.1760
 1890TIP3    H227162   4.629   0.340   1.900 -2.0993  2.9403  2.7012
 1891TIP3   OH227163   5.268   0.645  14.264 -0.2309 -0.5302  0.4322
 1891TIP3    H127164   5.173   0.657  14.257 -0.1976 -0.2908  0.3858
 1891TIP3    H227165   5.281   0.617  14.355 -0.4169 -1.2831  0.2308
 1892TIP3   OH227166   4.282   6.512   4.887 -0.0672 -0.3055  0.0416
 1892TIP3    H127167   4.273   6.568   4.810 -0.4624 -1.0505 -0.4633
 1892TIP3    H227168   4.345   6.445   4.861  0.9845  0.3212  0.8979
 1893TIP3   OH227169   4.143   3.146   4.013  0.1249 -0.0412 -0.1962
 1893TIP3    H127170   4.051   3.133   4.038  0.2121  0.0808  0.1850
 1893TIP3    H227171   4.193   3.100   4.080  0.2927 -1.9555 -1.5620
 1894TIP3   OH227172   5.655   4.387  11.359 -0.6708 -0.0026  0.1639
 1894TIP3    H127173   5.563   4.365  11.343 -1.3987  1.0537  2.5327
 1894TIP3    H227174   5.697   4.379  11.273 -2.9628 -0.4694 -0.9738
 1895TIP3   OH227175   6.079   3.364   3.975 -0.2169 -0.3141 -0.7838
 1895TIP3    H127176   6.011   3.424   3.946  0.3474  0.2555 -0.9432
 1895TIP3    H227177   6.113   3.326   3.893  0.2290  0.0386 -0.7674
 1896TIP3   OH227178   4.506   6.415   0.354  0.2155 -0.1347  0.2312
 1896TIP3    H127179   4.509   6.319   0.349  1.8828 -0.1480  0.7476
 1896TIP3    H227180   4.488   6.443   0.265  3.3990 -0.8867 -0.7903
 1897TIP3   OH227181   5.503   5.701  13.432  0.0367 -0.3432  0.9224
 1897TIP3    H127182   5.472   5.623  13.387  1.4589  0.0526 -0.8213
 1897TIP3    H227183   5.594   5.711  13.405  0.3665  1.0483  2.3534
 1898TIP3   OH227184   0.327   3.371  13.708 -0.8035  0.1389 -0.6047
 1898TIP3    H127185   0.284   3.314  13.772 -1.4061 -0.1413 -1.2430
 1898TIP3    H227186   0.409   3.327  13.688 -0.6790  0.1555 -0.1285
 1899TIP3   OH227187   1.235   5.724   0.234  0.1815  0.0004  0.2329
 1899TIP3    H127188   1.153   5.772   0.219 -0.5922 -1.7248 -1.7978
 1899TIP3    H227189   1.206   5.640   0.271  0.4393 -2.1309 -3.7989
 1900TIP3   OH227190   2.522   3.800  14.286  0.4740  0.6688 -0.3779
 1900TIP3    H127191   2.584   3.758  14.346 -0.1899 -0.9002 -0.7343
 1900TIP3    H227192   2.543   3.893  14.291  0.7780  0.5508  1.9258
 1901TIP3   OH227193   1.534   5.922  17.076 -0.3109  0.1958  0.1321
 1901TIP3    H127194   1.534   5.986  17.005 -0.3908  0.5132  0.4143
 1901TIP3    H227195   1.518   5.838  17.033 -1.1683  0.4880 -0.1339
 1902TIP3   OH227196   2.784   0.481   1.042  0.4684 -0.4514 -0.0045
 1902TIP3    H127197   2.849   0.411   1.041  0.3697 -0.5504 -1.4685
 1902TIP3    H227198   2.712   0.445   1.094  0.8301 -1.0409  0.0981
 1903TIP3   OH227199   0.102   2.593  11.334 -0.4397  0.2820  0.6206
 1903TIP3    H127200   0.031   2.636  11.382  0.5087  0.3755  1.9943
 1903TIP3    H227201   0.123   2.654  11.263 -1.1894  0.6146  0.6687
 1904TIP3   OH227202   6.269   0.607   2.426 -0.6481  0.7047  0.4036
 1904TIP3    H127203   6.364   0.601   2.435 -0.6968  0.6991  0.9846
 1904TIP3    H227204   6.243   0.672   2.491 -1.0327  0.7775  0.1811
 1905TIP3   OH227205   6.742   5.455  16.705 -0.1277 -0.3517  0.0152
 1905TIP3    H127206   6.782   5.419  16.625  0.7527 -1.6420  1.0055
 1905TIP3    H227207   6.670   5.510  16.672  1.1087  0.3449 -1.7295
 1906TIP3   OH227208   3.550   3.113  13.401 -0.3416  0.1384 -0.2894
 1906TIP3    H127209   3.609   3.128  13.475 -1.9960  2.1440  0.7077
 1906TIP3    H227210   3.595   3.046  13.349  2.9990  1.7448  0.2102
 1907TIP3   OH227211   1.460   0.209   5.643 -0.3301  0.0366 -0.0229
 1907TIP3    H127212   1.519   0.154   5.593 -0.1513 -0.6268  0.8891
 1907TIP3    H227213   1.448   0.287   5.589  1.0811  0.0206 -0.3985
 1908TIP3   OH227214   0.829   1.973  11.587 -0.0442  0.1013  0.3919
 1908TIP3    H127215   0.804   2.065  11.593  0.5432  0.1930  1.9655
 1908TIP3    H227216   0.924   1.974  11.572 -0.3938 -0.2744 -2.5224
 1909TIP3   OH227217   5.423   3.457  14.167 -0.0099 -0.2505 -0.1904
 1909TIP3    H127218   5.354   3.391  14.161 -0.3204 -0.0497  0.9693
 1909TIP3    H227219   5.504   3.406  14.173  0.5572 -0.5773 -5.7868
 1910TIP3   OH227220   0.150   3.387   1.341 -0.0298  0.4732 -0.2748
 1910TIP3    H127221   0.222   3.364   1.401 -0.1661 -1.5000 -0.7789
 1910TIP3    H227222   0.154   3.320   1.272 -1.1931  1.4399 -1.3357
 1911TIP3   OH227223   0.930   0.817   2.010  0.4275 -0.1693  0.4199
 1911TIP3    H127224   1.019   0.785   1.995  0.5863  0.3825  0.1452
 1911TIP3    H227225   0.876   0.738   2.014  0.7305 -0.4588 -0.7203
 1912TIP3   OH227226   3.863   4.674  13.321 -0.2109 -0.0131  0.7912
 1912TIP3    H127227   3.887   4.597  13.373 -0.0778 -0.3972  0.1867
 1912TIP3    H227228   3.945   4.721  13.308  0.1148 -0.9097 -0.6179
 1913TIP3   OH227229   2.555   4.003   6.893 -0.1199 -0.1069  0.2566
 1913TIP3    H127230   2.486   3.949   6.853 -1.0246  0.5204  0.9412
 1913TIP3    H227231   2.622   3.940   6.920 -1.1898 -0.9023  1.1187
 1914TIP3   OH227232   4.260   2.675  10.165  0.0238  0.2162 -0.1276
 1914TIP3    H127233   4.307   2.637  10.238 -1.2945  0.8405  1.0996
 1914TIP3    H227234   4.271   2.612  10.093  0.4965 -0.9163  0.9078
 1915TIP3   OH227235   1.970   0.301   0.073 -0.5574 -0.2391  0.2154
 1915TIP3    H127236   1.953   0.395   0.071  1.3226  0.1385 -1.3395
 1915TIP3    H227237   1.987   0.282   0.165 -0.3185  1.0787  0.4640
 1916TIP3   OH227238   3.565   0.592  16.837 -0.3474  0.5379  0.3981
 1916TIP3    H127239   3.579   0.640  16.755 -0.6128 -0.4558 -0.2487
 1916TIP3    H227240   3.634   0.526  16.839 -0.1534  0.7592  1.1329
 1917TIP3   OH227241   2.698   3.777   3.574  0.6386  0.1814  0.0397
 1917TIP3    H127242   2.773   3.818   3.618 -0.2502 -0.4603  2.2792
 1917TIP3    H227243   2.692   3.690   3.612 -0.6541 -0.1429 -0.8276
 1918TIP3   OH227244   2.254   0.927   0.855 -0.6389  0.1406  0.4824
 1918TIP3    H127245   2.260   1.013   0.813 -1.2772 -0.4931 -0.9859
 1918TIP3    H227246   2.345   0.899   0.865 -0.4727  0.1011 -0.9652
 1919TIP3   OH227247   0.833   4.391  12.458  0.2483 -0.6956 -0.5315
 1919TIP3    H127248   0.868   4.307  12.427 -1.2035 -1.7125  0.4557
 1919TIP3    H227249   0.783   4.425  12.384  2.0487  0.0676 -1.4523
 1920TIP3   OH227250   1.836   3.747  15.458  0.5308 -0.3895  0.0957
 1920TIP3    H127251   1.752   3.701  15.463 -0.0255  0.5333 -0.5198
 1920TIP3    H227252   1.897   3.692  15.508 -0.3072 -1.3547  0.0772
 1921TIP3   OH227253   6.279   0.422   0.750 -0.0209 -0.2454  0.1427
 1921TIP3    H127254   6.233   0.355   0.701 -1.2963  0.4797  0.2784
 1921TIP3    H227255   6.351   0.376   0.794  0.4863 -1.0863 -1.5110
 1922TIP3   OH227256   3.259   2.535   3.573  0.1855 -0.3229  0.0974
 1922TIP3    H127257   3.224   2.596   3.507 -1.2734  1.6882  2.5415
 1922TIP3    H227258   3.354   2.539   3.561 -0.0374 -0.0996 -1.8994
 1923TIP3   OH227259   1.984   0.116  12.963 -0.3984  0.2576  0.4115
 1923TIP3    H127260   2.061   0.080  12.920 -0.9694 -1.1116  0.4718
 1923TIP3    H227261   2.010   0.127  13.055  0.2267  1.3888  0.1142
 1924TIP3   OH227262   2.907   4.845  13.258 -0.2734  0.5627 -0.7669
 1924TIP3    H127263   2.994   4.830  13.294  0.2527 -2.7223 -3.0171
 1924TIP3    H227264   2.849   4.844  13.335  1.4328  0.8578  0.5934
 1925TIP3   OH227265   0.510   0.006   2.517  0.1453 -0.0004  0.3838
 1925TIP3    H127266   0.551   0.045   2.594  0.3857 -0.7083  0.6204
 1925TIP3    H227267   0.478  -0.079   2.547  1.7625 -1.0637 -0.6754
 1926TIP3   OH227268   3.639   4.717   4.991  0.2722 -0.3572  0.1503
 1926TIP3    H127269   3.727   4.680   4.995  1.0417  1.2497 -0.7841
 1926TIP3    H227270   3.608   4.697   4.903 -0.2412 -0.7754  0.4212
 1927TIP3   OH227271   0.365   0.507   4.540  0.3752  0.3341  0.4988
 1927TIP3    H127272   0.280   0.473   4.514  0.4385 -0.1060  0.8589
 1927TIP3    H227273   0.355   0.530   4.632  0.3346  1.2978  0.2661
 1928TIP3   OH227274   4.129   4.500  13.042 -0.2372 -0.5022  0.1126
 1928TIP3    H127275   4.100   4.408  13.038  0.5310 -0.9081  2.3905
 1928TIP3    H227276   4.134   4.527  12.951 -0.6056 -2.6885 -0.6280
 1929TIP3   OH227277   0.543   1.621   0.869  0.0391  0.4048 -0.2367
 1929TIP3    H127278   0.535   1.650   0.960  2.0025  1.0052 -0.2065
 1929TIP3    H227279   0.479   1.551   0.860 -1.0664  1.1812  1.2443
 1930TIP3   OH227280   3.532   2.893   5.179  0.3692 -0.2913  0.0016
 1930TIP3    H127281   3.470   2.882   5.106  0.1167  0.6521  0.0480
 1930TIP3    H227282   3.543   2.806   5.215  1.3323 -0.9920 -1.8322
 1931TIP3   OH227283   4.101   4.124  12.385  0.2120  0.0602 -0.0678
 1931TIP3    H127284   4.185   4.163  12.360  1.5464 -2.4542  0.2463
 1931TIP3    H227285   4.056   4.110  12.302  0.3768  0.7904 -0.2877
 1932TIP3   OH227286   4.927   3.309   1.433 -0.4361 -0.6675  0.0043
 1932TIP3    H127287   4.850   3.341   1.480  1.6073  1.9166  1.8743
 1932TIP3    H227288   4.903   3.316   1.341 -2.7130 -0.7453  0.5232
 1933TIP3   OH227289   2.577   0.515  15.355 -0.5152 -0.1697  0.2819
 1933TIP3    H127290   2.625   0.579  15.409 -1.5773 -0.3558  1.4910
 1933TIP3    H227291   2.613   0.526  15.267 -1.3567  2.8609  0.1992
 1934TIP3   OH227292   3.536   4.055   5.060 -0.0901 -0.0727 -0.0560
 1934TIP3    H127293   3.548   4.072   4.967  0.9040 -1.9320 -0.3040
 1934TIP3    H227294   3.566   4.136   5.103  0.8750  0.2475 -1.2841
 1935TIP3   OH227295   6.647   0.613   0.343  0.7299  0.0966  0.4875
 1935TIP3    H127296   6.669   0.576   0.428 -2.6930  2.0582  2.4334
 1935TIP3    H227297   6.641   0.708   0.359 -2.1458  0.3277 -1.3251
 1936TIP3   OH227298   5.476   0.753  13.897  0.2072  0.7115  0.4798
 1936TIP3    H127299   5.564   0.765  13.862  0.0551  1.4438  0.3230
 1936TIP3    H227300   5.423   0.728  13.822  0.8079 -2.8029  1.0337
 1937TIP3   OH227301   2.594   3.814   3.981  0.0408  0.3335 -0.2207
 1937TIP3    H127302   2.628   3.751   4.045  1.4124 -0.2214 -1.4337
 1937TIP3    H227303   2.560   3.886   4.034  1.9607  0.3144  1.1423
 1938TIP3   OH227304   1.105   5.229  13.687  0.0107  0.6801 -0.0554
 1938TIP3    H127305   1.017   5.230  13.651  0.4102  0.0885 -1.0932
 1938TIP3    H227306   1.093   5.224  13.782 -1.1178 -2.6828 -0.2431
 1939TIP3   OH227307   6.523   2.014  14.444 -0.0930  0.0024  0.9733
 1939TIP3    H127308   6.549   1.985  14.357 -0.7020 -1.5232  1.2562
 1939TIP3    H227309   6.593   2.072  14.473  0.9938 -0.8851  0.1783
 1940TIP3   OH227310   2.493   3.667   2.772 -1.0364 -0.5554 -0.4132
 1940TIP3    H127311   2.576   3.709   2.797 -1.1970  1.0144 -2.3039
 1940TIP3    H227312   2.506   3.642   2.680 -2.7541  0.0311 -0.8414
 1941TIP3   OH227313   3.647   2.085   2.927  0.1850 -0.4732 -0.6389
 1941TIP3    H127314   3.703   2.038   2.989  1.4974  1.8153  0.0466
 1941TIP3    H227315   3.695   2.165   2.908 -2.4958  1.2649 -0.6421
 1942TIP3   OH227316   6.500   3.692   2.691  0.1644 -0.4555 -0.1398
 1942TIP3    H127317   6.555   3.673   2.615  0.9074  1.3535 -0.0942
 1942TIP3    H227318   6.443   3.763   2.662 -2.0800 -2.1197 -0.1109
 1943TIP3   OH227319   6.411   4.312  11.775 -0.1275  0.6678 -0.4132
 1943TIP3    H127320   6.395   4.302  11.682 -0.7891 -0.2144 -0.2239
 1943TIP3    H227321   6.497   4.353  11.781  1.0854 -1.5877 -1.3961
 1944TIP3   OH227322   6.227   0.627   0.992 -0.1260  0.1853 -0.2646
 1944TIP3    H127323   6.304   0.622   1.050 -0.7958  0.1446  0.6462
 1944TIP3    H227324   6.152   0.624   1.052 -0.8805 -1.5010 -1.2315
 1945TIP3   OH227325   6.387   0.437   5.441 -0.0385  0.3981  0.2143
 1945TIP3    H127326   6.437   0.506   5.397  0.0430 -0.8807 -1.8813
 1945TIP3    H227327   6.316   0.483   5.486  0.6832  1.9198 -0.1398
 1946TIP3   OH227328   2.232   0.071   4.383 -0.8080 -0.4369  0.0730
 1946TIP3    H127329   2.274   0.000   4.432 -1.4645 -0.5186  0.5295
 1946TIP3    H227330   2.145   0.080   4.423 -1.3924 -0.5585 -1.1354
 1947TIP3   OH227331   3.256   2.304  11.117  0.8063 -0.6826  0.4658
 1947TIP3    H127332   3.298   2.220  11.102  0.7941 -0.4824 -0.7655
 1947TIP3    H227333   3.213   2.326  11.034  1.9356  1.1648  0.3038
 1948TIP3   OH227334   2.356   2.255   4.532 -0.6202  0.4251 -0.4171
 1948TIP3    H127335   2.273   2.298   4.553  0.0266  1.1029  0.8741
 1948TIP3    H227336   2.357   2.252   4.436 -1.4546  1.7955 -0.5052
 1949TIP3   OH227337   2.952   0.058   4.063 -0.0428  0.2201 -0.0388
 1949TIP3    H127338   3.043   0.089   4.056 -0.6316  1.8032 -1.5176
 1949TIP3    H227339   2.959  -0.028   4.104  2.1474  0.1686 -0.3934
 1950TIP3   OH227340   5.503   4.345  14.915 -0.0640 -0.2623 -0.2232
 1950TIP3    H127341   5.435   4.405  14.944 -0.2520 -0.3655 -0.4474
 1950TIP3    H227342   5.575   4.359  14.976 -0.3400 -0.2547  0.1029
 1951TIP3   OH227343   5.640   2.464   3.894  0.2210  0.0568 -0.2521
 1951TIP3    H127344   5.720   2.419   3.922  0.1803 -0.0138 -0.2491
 1951TIP3    H227345   5.637   2.450   3.800 -0.0389 -0.3468 -0.1848
 1952TIP3   OH227346   1.420   3.864  16.540 -0.2552  0.2692  0.1825
 1952TIP3    H127347   1.344   3.912  16.508 -0.5570 -0.4189 -0.1648
 1952TIP3    H227348   1.385   3.805  16.607  0.0818  0.4226  0.4986
 1953TIP3   OH227349   6.404   6.358   5.122  0.9433  0.1921  0.4778
 1953TIP3    H127350   6.355   6.438   5.101  1.7710  0.5923  0.0251
 1953TIP3    H227351   6.495   6.382   5.109  1.3185 -0.3823  1.8225
 1954TIP3   OH227352   5.641   1.296  11.282 -0.2240  0.0799  0.2875
 1954TIP3    H127353   5.584   1.230  11.242 -0.3722 -0.3042  1.1087
 1954TIP3    H227354   5.588   1.333  11.353  0.3182  0.1821  0.6424
 1955TIP3   OH227355   4.463   4.682  13.462  0.3537  0.3979 -0.4015
 1955TIP3    H127356   4.393   4.640  13.511  1.4628  0.2524  1.1343
 1955TIP3    H227357   4.418   4.736  13.397 -1.2108  0.9273  1.0458
 1956TIP3   OH227358   2.339   6.548   1.054  0.0550  0.1434 -0.3962
 1956TIP3    H127359   2.262   6.599   1.028 -1.5097 -1.5727  0.5997
 1956TIP3    H227360   2.366   6.504   0.973  2.1484  3.2283 -1.5688
 1957TIP3   OH227361   1.988   6.491   1.935  0.0509 -0.3507  0.0752
 1957TIP3    H127362   2.002   6.461   1.845 -0.0368  0.9570 -0.3967
 1957TIP3    H227363   1.986   6.587   1.928  2.2341 -0.0991  1.7705
 1958TIP3   OH227364   2.926   3.869  14.178  0.3354  0.5030  0.3821
 1958TIP3    H127365   2.980   3.898  14.105 -0.3051 -1.4174 -0.9388
 1958TIP3    H227366   2.853   3.822  14.137  0.7115 -1.9040  2.2378
 1959TIP3   OH227367   2.330   4.404   2.459 -0.1983  0.0365  0.4423
 1959TIP3    H127368   2.281   4.354   2.393  0.8379 -1.4807  0.7735
 1959TIP3    H227369   2.314   4.495   2.436  0.3443 -0.4320 -2.1093
 1960TIP3   OH227370   5.795   0.183   4.728  0.3913  0.1969  0.3736
 1960TIP3    H127371   5.842   0.120   4.673  0.4156  0.8886 -0.4179
 1960TIP3    H227372   5.819   0.269   4.693  0.1493  0.6485  1.2662
 1961TIP3   OH227373   4.687   3.147  14.962 -0.5081  0.0650  0.2942
 1961TIP3    H127374   4.651   3.101  15.038 -0.2427 -2.5502 -1.0727
 1961TIP3    H227375   4.775   3.111  14.952 -1.0963 -0.8300 -2.1640
 1962TIP3   OH227376   0.521   6.238   2.431 -0.0377 -0.0476  0.3081
 1962TIP3    H127377   0.468   6.271   2.504  1.5848  4.6811 -0.3014
 1962TIP3    H227378   0.476   6.269   2.353  1.2474  0.0641 -0.4123
 1963TIP3   OH227379   3.869   2.083   4.277  0.4716 -0.3195  0.9331
 1963TIP3    H127380   3.954   2.049   4.248  0.3400 -0.1319  0.3217
 1963TIP3    H227381   3.850   2.155   4.216  0.3244  0.2703  1.6543
 1964TIP3   OH227382   1.876   5.423  14.649  0.3771 -1.1752 -0.1907
 1964TIP3    H127383   1.826   5.355  14.605  2.7408 -2.7182 -0.6520
 1964TIP3    H227384   1.944   5.376  14.697  1.4845  0.8078  0.2899
 1965TIP3   OH227385   3.885   0.230  15.703 -0.4885 -0.2442  0.0359
 1965TIP3    H127386   3.961   0.174  15.719  0.8025  0.7286 -2.1361
 1965TIP3    H227387   3.899   0.307  15.759 -1.4616 -1.3274  1.8479
 1966TIP3   OH227388   6.431   3.639   2.380  0.1307 -0.3835 -0.2816
 1966TIP3    H127389   6.410   3.547   2.364  0.0027 -0.4335  0.1574
 1966TIP3    H227390   6.516   3.652   2.337 -0.7223 -0.2004 -2.0145
 1967TIP3   OH227391   3.165   0.735   0.100  0.7081  0.0539  0.8365
 1967TIP3    H127392   3.253   0.719   0.066  0.4853  0.0633  0.2438
 1967TIP3    H227393   3.169   0.709   0.192  1.1289 -0.6387  0.6223
 1968TIP3   OH227394   0.222   6.335  12.655 -0.2416 -0.0095  0.3000
 1968TIP3    H127395   0.307   6.314  12.617 -0.8408 -0.5001 -0.8170
 1968TIP3    H227396   0.242   6.396  12.726  1.0266 -0.0278 -0.0129
 1969TIP3   OH227397   3.212   0.784   0.410  0.6823 -0.4159  0.0467
 1969TIP3    H127398   3.139   0.838   0.440  0.4609  0.1638 -1.4256
 1969TIP3    H227399   3.290   0.831   0.438  0.5235 -0.9976  1.5601
 1970TIP3   OH227400   4.157   4.576  12.754  0.1924  0.4947 -0.1890
 1970TIP3    H127401   4.125   4.657  12.793 -0.2951  0.6098 -0.8183
 1970TIP3    H227402   4.080   4.538  12.711  0.5554  0.0065 -0.4196
 1971TIP3   OH227403   6.090   1.044   4.469  0.2974  0.0805  0.1497
 1971TIP3    H127404   6.075   1.136   4.488 -0.1048 -0.1069  0.7747
 1971TIP3    H227405   6.130   1.009   4.549  0.7441 -0.2162 -0.1998
 1972TIP3   OH227406   6.622   3.902   5.185  0.1577 -0.0100 -0.0692
 1972TIP3    H127407   6.576   3.986   5.176 -0.5405 -0.2675  0.9768
 1972TIP3    H227408   6.695   3.921   5.243 -1.2143 -0.5409  1.9383
 1973TIP3   OH227409   0.984   5.324  15.145 -0.3031 -0.1342  0.4292
 1973TIP3    H127410   0.937   5.370  15.214 -0.6095  0.1679  0.0224
 1973TIP3    H227411   0.928   5.250  15.122 -2.2359  2.0246 -2.3378
 1974TIP3   OH227412   1.712   3.515   4.132 -0.5966  0.4396 -0.2194
 1974TIP3    H127413   1.642   3.510   4.068 -0.1980 -1.1051 -0.5892
 1974TIP3    H227414   1.790   3.484   4.085  0.2201  1.5488  0.3434
 1975TIP3   OH227415   4.713   3.689  12.074  0.2422  0.4154  0.5066
 1975TIP3    H127416   4.683   3.774  12.040 -0.0155 -0.1694 -0.7661
 1975TIP3    H227417   4.809   3.696  12.074  0.2472  0.4011 -0.4203
 1976TIP3   OH227418   6.186   6.701   2.097 -0.5169 -0.0803  0.5529
 1976TIP3    H127419   6.181   6.793   2.123  1.0844  0.9622 -2.4623
 1976TIP3    H227420   6.258   6.666   2.150  0.2465  0.9765  0.2543
 1977TIP3   OH227421   4.753   2.253  12.850 -0.0515  0.0207  0.3616
 1977TIP3    H127422   4.723   2.339  12.878  1.4088  0.4672  0.6221
 1977TIP3    H227423   4.735   2.252  12.755 -1.4436 -0.0022  0.5967
 1978TIP3   OH227424   4.594   5.387   5.686 -0.0306  0.3613 -0.6818
 1978TIP3    H127425   4.503   5.357   5.687  0.4690 -1.2438  0.1010
 1978TIP3    H227426   4.641   5.325   5.742  1.3970  1.6759 -0.3344
 1979TIP3   OH227427   4.102   4.475  16.671 -0.0344  0.4036 -0.0036
 1979TIP3    H127428   4.038   4.429  16.725  0.7967  1.7899  2.3092
 1979TIP3    H227429   4.186   4.435  16.694  0.2676  0.4956 -0.8833
 1980TIP3   OH227430   4.454   3.946   1.124 -0.5992 -0.0206 -0.0967
 1980TIP3    H127431   4.387   3.997   1.170 -0.7643  0.6719 -1.0748
 1980TIP3    H227432   4.439   3.856   1.151 -0.6282  0.3711  1.2708
 1981TIP3   OH227433   3.186   4.014  16.604 -0.0398 -0.2843 -0.1691
 1981TIP3    H127434   3.213   3.925  16.582 -0.1315 -0.6831  1.2173
 1981TIP3    H227435   3.267   4.058  16.630  0.5341  0.9844 -3.5418
 1982TIP3   OH227436   0.473   3.800  14.146  0.1282 -0.1076  0.5976
 1982TIP3    H127437   0.563   3.773  14.159  0.3604  0.8911  1.1253
 1982TIP3    H227438   0.422   3.747  14.208  0.2964 -0.8674  0.1090
 1983TIP3   OH227439   2.684   2.334   3.399 -0.0260  0.3659  0.0425
 1983TIP3    H127440   2.710   2.261   3.455 -2.6707 -0.0191  0.9161
 1983TIP3    H227441   2.659   2.292   3.317 -1.2302  0.3030  0.4312
 1984TIP3   OH227442   5.948   0.984   2.608 -0.0491  0.0815  0.4922
 1984TIP3    H127443   5.955   0.903   2.660 -3.1464 -1.4944 -1.2680
 1984TIP3    H227444   5.987   0.962   2.524 -2.2562 -0.2077 -0.5256
 1985TIP3   OH227445   1.012   2.274  17.127  0.1932 -0.1476  0.2039
 1985TIP3    H127446   0.920   2.285  17.153  0.2682 -0.2396  0.5068
 1985TIP3    H227447   1.043   2.363  17.111  0.3222 -0.0428  1.0263
 1986TIP3   OH227448   0.614   2.236  16.436  0.3166 -1.2025 -0.3241
 1986TIP3    H127449   0.643   2.242  16.527  1.0252 -1.9598 -0.4867
 1986TIP3    H227450   0.592   2.326  16.412 -0.8463 -1.1383  0.8932
 1987TIP3   OH227451   0.218   0.699   2.405 -0.3014  0.1637  0.1006
 1987TIP3    H127452   0.187   0.614   2.376  0.0959 -0.2973  1.0080
 1987TIP3    H227453   0.311   0.686   2.426 -0.1342  0.9100 -0.1409
 1988TIP3   OH227454   2.746   0.975  17.271  0.2061  0.1011  0.6636
 1988TIP3    H127455   2.811   0.945  17.335 -0.2332  0.3820  1.2495
 1988TIP3    H227456   2.666   0.986  17.322  0.2630  1.9657  0.4100
 1989TIP3   OH227457   0.435   0.131  12.763 -0.2236 -0.3890  0.0705
 1989TIP3    H127458   0.513   0.152  12.712 -0.6070 -1.2321 -0.8856
 1989TIP3    H227459   0.383   0.074  12.706 -1.4522 -0.0040  0.7541
 1990TIP3   OH227460   5.657   4.999  11.069  0.1789  0.5736  0.0024
 1990TIP3    H127461   5.596   5.066  11.102 -0.9237 -0.3591 -0.0867
 1990TIP3    H227462   5.600   4.928  11.039  1.3711 -1.1556  1.6933
 1991TIP3   OH227463   1.625   4.877   4.965  1.1452 -0.5022  0.1452
 1991TIP3    H127464   1.605   4.910   4.877  1.5637 -1.6618 -0.3912
 1991TIP3    H227465   1.572   4.932   5.023  0.3227 -0.1860 -0.8782
 1992TIP3   OH227466   3.290   0.537  14.355 -0.6318  0.3906 -0.3434
 1992TIP3    H127467   3.293   0.611  14.417  0.4114 -0.3902  0.5742
 1992TIP3    H227468   3.297   0.578  14.269 -3.0051  1.5767 -0.0563
 1993TIP3   OH227469   1.939   1.407  14.521 -0.1554  0.2288 -0.1846
 1993TIP3    H127470   2.000   1.378  14.453 -0.3158  0.7889 -0.5742
 1993TIP3    H227471   1.995   1.427  14.596  0.0423 -0.2099 -0.2103
 1994TIP3   OH227472   0.838   1.413   5.676 -0.4966  0.0522 -0.0315
 1994TIP3    H127473   0.883   1.468   5.740  3.1896 -1.1731 -1.2811
 1994TIP3    H227474   0.829   1.329   5.720 -2.0451  0.3896  0.3416
 1995TIP3   OH227475   5.953   4.266  13.262  0.3044 -0.7081 -0.3083
 1995TIP3    H127476   5.914   4.180  13.250 -0.1722 -0.3872 -1.2275
 1995TIP3    H227477   5.897   4.325  13.210 -0.5526  0.4896  1.8397
 1996TIP3   OH227478   2.860   3.192  11.060  0.0853 -0.2847 -0.4868
 1996TIP3    H127479   2.850   3.278  11.102 -0.8778 -1.5295  2.0125
 1996TIP3    H227480   2.955   3.178  11.058  0.2726  0.9326 -1.2012
 1997TIP3   OH227481   3.614   2.712   1.069  0.2637  0.4828  0.9567
 1997TIP3    H127482   3.577   2.718   1.156 -0.6499 -1.7020  0.7798
 1997TIP3    H227483   3.542   2.683   1.013  1.3612 -0.3774 -0.0867
 1998TIP3   OH227484   1.121   4.244   1.911 -0.1968 -0.5023  0.2384
 1998TIP3    H127485   1.028   4.236   1.934 -0.3989  1.2359  0.1620
 1998TIP3    H227486   1.121   4.296   1.831  0.9481  2.5210  2.0661
 1999TIP3   OH227487   3.947   2.877   4.600  0.4033 -0.3382 -0.0440
 1999TIP3    H127488   3.858   2.907   4.582  0.3921  0.3009  1.0097
 1999TIP3    H227489   4.003   2.938   4.551  0.2808 -0.4663 -0.3465
 2000TIP3   OH227490   1.324   2.059   2.165  0.6475 -0.0274  0.2448
 2000TIP3    H127491   1.295   2.149   2.176 -0.4641 -0.2543 -0.5303
 2000TIP3    H227492   1.247   2.007   2.187  1.0939 -0.7573  0.1088
 2001TIP3   OH227493   3.436   2.373   2.409  0.3410 -0.3076 -0.3463
 2001TIP3    H127494   3.436   2.374   2.505  0.2028 -0.6459 -0.3401
 2001TIP3    H227495   3.365   2.431   2.383  2.0092  1.8741 -0.2840
 2002TIP3   OH227496   3.309   3.479   5.162  0.0083 -0.2043 -0.1578
 2002TIP3    H127497   3.263   3.518   5.088 -1.2700  0.0192  0.7223
 2002TIP3    H227498   3.369   3.416   5.123  0.9557  1.4346 -1.5331
 2003TIP3   OH227499   0.188   3.182  14.727 -0.1204  0.2145 -0.0571
 2003TIP3    H127500   0.204   3.145  14.640 -1.2019  0.5233 -0.4002
 2003TIP3    H227501   0.147   3.267  14.710  0.1762  0.5296  0.7536
 2004TIP3   OH227502   4.594   0.836   1.552 -0.4589 -0.0071  0.5645
 2004TIP3    H127503   4.519   0.789   1.586  0.9313 -2.6163  0.2319
 2004TIP3    H227504   4.563   0.876   1.471 -1.1183 -2.4390 -0.4569
 2005TIP3   OH227505   4.263   6.440  12.400  0.0288  0.0245  0.1365
 2005TIP3    H127506   4.287   6.476  12.486 -0.1266  1.3964 -0.3719
 2005TIP3    H227507   4.222   6.356  12.420  2.2711 -0.8893  1.2285
 2006TIP3   OH227508   5.167   2.076  10.590 -0.5267  0.1258 -0.0910
 2006TIP3    H127509   5.088   2.033  10.558 -0.2296 -2.2772  2.0425
 2006TIP3    H227510   5.239   2.025  10.552 -0.1476 -1.0216  2.0465
 2007TIP3   OH227511   4.997   6.318   3.026  0.0070 -0.4170  0.4221
 2007TIP3    H127512   5.062   6.274   2.971 -1.1727 -0.9158 -0.6393
 2007TIP3    H227513   4.969   6.250   3.088 -0.3064 -0.5495  0.1401
 2008TIP3   OH227514   4.002   2.948   0.592 -0.4507 -0.9600  0.1437
 2008TIP3    H127515   4.086   2.904   0.576 -0.4725 -1.4150  1.1770
 2008TIP3    H227516   3.939   2.901   0.537  0.1978  0.3772 -1.8633
 2009TIP3   OH227517   1.909   6.518  12.873 -0.1036 -0.3012 -0.0237
 2009TIP3    H127518   1.999   6.490  12.856  1.1112  2.3482  1.3958
 2009TIP3    H227519   1.881   6.559  12.791  0.3947 -0.1893 -0.1402
 2010TIP3   OH227520   4.871   5.898   2.258 -0.0382  0.3779 -0.3077
 2010TIP3    H127521   4.939   5.838   2.289  0.4900  1.2447  0.2695
 2010TIP3    H227522   4.896   5.919   2.168 -0.1248 -0.1157 -0.4494
 2011TIP3   OH227523   6.578   2.302   5.031 -0.0446  0.3490 -0.2567
 2011TIP3    H127524   6.550   2.386   5.068 -3.1062 -1.0698  1.0002
 2011TIP3    H227525   6.598   2.247   5.107  1.3834 -0.2751 -1.0326
 2012TIP3   OH227526   4.736   3.584  15.139 -0.2619  0.7190 -0.0087
 2012TIP3    H127527   4.751   3.633  15.219 -1.5391 -1.8306  1.9528
 2012TIP3    H227528   4.813   3.528  15.130 -1.5859 -1.5005  1.5255
 2013TIP3   OH227529   6.781   4.236   0.519  0.2842 -0.0022 -1.1147
 2013TIP3    H127530   6.710   4.301   0.513 -0.2884 -0.2021  1.8812
 2013TIP3    H227531   6.746   4.159   0.474 -0.1011  0.8646 -2.3665
 2014TIP3   OH227532   5.907   2.467   6.507 -0.1663  0.2919 -0.4311
 2014TIP3    H127533   5.990   2.508   6.484 -0.2367  0.2872 -0.6967
 2014TIP3    H227534   5.858   2.536   6.553  0.6088 -0.1868  1.1622
 2015TIP3   OH227535   4.318   4.457   4.393  0.4764 -0.2196  0.2459
 2015TIP3    H127536   4.240   4.409   4.363 -0.1978  0.2308  1.2116
 2015TIP3    H227537   4.309   4.460   4.488  1.1025  0.7975  0.2925
 2016TIP3   OH227538   3.477   3.578  16.631 -0.0222 -0.4343  0.5330
 2016TIP3    H127539   3.548   3.584  16.695  0.4331 -1.5944  0.1701
 2016TIP3    H227540   3.471   3.484  16.611  0.2048 -0.0684 -1.5017
 2017TIP3   OH227541   6.070   0.809  13.830 -0.1920  0.2023  0.1621
 2017TIP3    H127542   6.057   0.898  13.862  2.6298  0.6847  0.1844
 2017TIP3    H227543   6.040   0.811  13.739  0.7214  1.4714 -0.1421
 2018TIP3   OH227544   1.382   0.650   3.280  0.0188  0.3757 -0.1059
 2018TIP3    H127545   1.313   0.692   3.228  0.3877 -0.0137 -0.9338
 2018TIP3    H227546   1.350   0.654   3.370  0.6970  3.7792  0.1204
 2019TIP3   OH227547   4.267   5.067   1.924  0.2314 -0.4330  0.2370
 2019TIP3    H127548   4.350   5.102   1.892 -0.8109  1.7272 -0.2529
 2019TIP3    H227549   4.262   5.098   2.015  0.0003 -0.6263  0.2909
 2020TIP3   OH227550   2.167   0.473  12.351 -0.2882 -0.4918  0.1102
 2020TIP3    H127551   2.095   0.528  12.321 -0.3962 -0.3289  0.6495
 2020TIP3    H227552   2.126   0.409  12.409  0.0841  0.0270  0.9662
 2021TIP3   OH227553   0.282   3.797  13.474  0.0569 -0.8391  0.5608
 2021TIP3    H127554   0.310   3.718  13.428 -0.8281 -0.0484 -1.4608
 2021TIP3    H227555   0.360   3.852  13.477  0.0062 -0.6695 -0.5922
 2022TIP3   OH227556   6.105   5.423  13.511 -0.2595  0.0093  0.5330
 2022TIP3    H127557   6.027   5.370  13.493  0.8850 -0.8979 -2.0923
 2022TIP3    H227558   6.166   5.362  13.552 -0.3205  0.3208  1.1005
 2023TIP3   OH227559   0.269   2.099   4.655 -0.2635 -0.1576 -0.3530
 2023TIP3    H127560   0.340   2.146   4.699 -0.4051 -1.2404  1.0829
 2023TIP3    H227561   0.214   2.169   4.618  1.1305  0.7098 -0.8703
 2024TIP3   OH227562   3.138   3.095  13.776  0.4032 -0.0918 -0.9241
 2024TIP3    H127563   3.052   3.116  13.812  0.5541 -1.0220  0.0627
 2024TIP3    H227564   3.121   3.068  13.686 -0.0869  1.5668 -1.3639
 2025TIP3   OH227565   2.991   2.798  11.042 -0.3078 -0.1953  0.1893
 2025TIP3    H127566   2.952   2.749  10.970 -2.2869 -0.6656  1.4959
 2025TIP3    H227567   3.062   2.848  11.002 -2.4319  0.9558 -2.4734
 2026TIP3   OH227568   1.149   1.116  12.575  0.1513 -0.4100  0.1302
 2026TIP3    H127569   1.177   1.027  12.556 -1.2165 -0.7317 -0.5364
 2026TIP3    H227570   1.054   1.110  12.583 -0.0213  1.0588 -0.4284
 2027TIP3   OH227571   4.109   1.907  14.036 -0.1276  0.3247  0.2039
 2027TIP3    H127572   4.126   1.815  14.060 -0.2536 -0.3805 -2.1289
 2027TIP3    H227573   4.194   1.940  14.007 -0.5578  0.0564 -1.5012
 2028TIP3   OH227574   2.872   1.322  17.003 -0.3272  0.2303  0.0432
 2028TIP3    H127575   2.819   1.243  17.010 -0.7004  0.5503  1.0064
 2028TIP3    H227576   2.947   1.296  16.950 -1.0984 -0.4155 -0.7661
 2029TIP3   OH227577   5.538   1.135  14.324  0.3305 -0.3581  0.1937
 2029TIP3    H127578   5.450   1.123  14.288  0.4803 -0.8165 -0.0318
 2029TIP3    H227579   5.548   1.064  14.387 -0.1068  0.7169  1.5276
 2030TIP3   OH227580   4.837   0.962   4.429  0.1504 -0.4441  0.1226
 2030TIP3    H127581   4.780   0.888   4.453 -0.7977 -0.0906 -0.9404
 2030TIP3    H227582   4.780   1.039   4.435  0.5457 -0.0659 -0.8162
 2031TIP3   OH227583   0.442   2.124  13.208  0.5213  1.0936 -0.2761
 2031TIP3    H127584   0.501   2.192  13.240  0.4105  1.2692 -0.4411
 2031TIP3    H227585   0.415   2.154  13.121  0.1736  1.0239 -0.1928
 2032TIP3   OH227586   4.987   4.769   0.742  0.7928  0.3077  0.2515
 2032TIP3    H127587   4.929   4.843   0.726  0.8323 -0.0439 -1.7170
 2032TIP3    H227588   4.932   4.692   0.731  1.5181 -0.0203 -1.2970
 2033TIP3   OH227589   4.322   0.695   2.461 -0.0774 -0.3685  0.3685
 2033TIP3    H127590   4.405   0.687   2.508 -1.6597 -2.6899  3.1439
 2033TIP3    H227591   4.278   0.612   2.478 -1.7072 -0.5823 -3.7476
 2034TIP3   OH227592   5.992   6.800  14.741 -0.2130 -0.8187 -0.6908
 2034TIP3    H127593   6.068   6.796  14.682  0.3204 -0.6018 -0.0312
 2034TIP3    H227594   5.965   6.892  14.738  0.5458 -0.5532  0.3001
 2035TIP3   OH227595   1.954   4.766   3.812 -0.6102  0.2394  0.2938
 2035TIP3    H127596   1.881   4.813   3.771  0.6043  0.1045 -2.2379
 2035TIP3    H227597   1.915   4.720   3.886 -3.3894 -0.8652 -1.7039
 2036TIP3   OH227598   3.487   3.651  13.297 -0.1320 -0.3725  0.0466
 2036TIP3    H127599   3.446   3.665  13.212 -1.8361 -0.0778  0.8759
 2036TIP3    H227600   3.419   3.608  13.350  1.2900 -1.6948  0.9087
 2037TIP3   OH227601   1.574   0.506   3.794  0.1282 -0.2375  0.2675
 2037TIP3    H127602   1.666   0.490   3.816  0.1031 -0.9707 -0.1453
 2037TIP3    H227603   1.530   0.422   3.809 -0.5002  0.1437  0.5871
 2038TIP3   OH227604   4.480   6.404  13.468 -0.0594  0.2629 -0.2374
 2038TIP3    H127605   4.531   6.478  13.500  1.0023 -0.8841  0.7895
 2038TIP3    H227606   4.403   6.402  13.525  0.0640  0.3831 -0.0635
 2039TIP3   OH227607   0.298   4.724  15.873 -0.5314 -0.4353  0.0770
 2039TIP3    H127608   0.211   4.744  15.909 -0.4847 -2.3165  1.3651
 2039TIP3    H227609   0.290   4.745  15.780 -1.4787  2.0477  0.6354
 2040TIP3   OH227610   3.527   5.210   0.413  0.2242  0.6393  0.1055
 2040TIP3    H127611   3.464   5.138   0.421  1.5805 -0.6340 -0.2336
 2040TIP3    H227612   3.542   5.220   0.319  1.5291 -0.0138  0.2193
 2041TIP3   OH227613   4.486   3.402   1.941 -0.0628  0.3075  0.2980
 2041TIP3    H127614   4.508   3.373   1.853 -0.6115 -1.2598  0.6503
 2041TIP3    H227615   4.454   3.491   1.929 -2.1601 -0.5904 -1.3981
 2042TIP3   OH227616   2.779   6.682  16.434  0.6864  0.4107 -0.4560
 2042TIP3    H127617   2.772   6.611  16.370  0.5124 -0.6633  0.7342
 2042TIP3    H227618   2.758   6.642  16.518 -1.0833  2.2224  0.0525
 2043TIP3   OH227619   3.415   5.974   4.522 -0.0360  0.8335 -0.3888
 2043TIP3    H127620   3.422   6.065   4.494 -0.5900  0.7420 -0.8546
 2043TIP3    H227621   3.391   5.979   4.615 -0.8204  1.1689 -0.6063
 2044TIP3   OH227622   4.379   2.676   0.773  0.2661 -0.0007  0.7331
 2044TIP3    H127623   4.437   2.733   0.822  0.3945 -0.9396  1.7097
 2044TIP3    H227624   4.387   2.590   0.816 -3.0356  0.1831  1.9810
 2045TIP3   OH227625   6.337   2.752  17.069  0.0531 -0.4711 -0.5572
 2045TIP3    H127626   6.422   2.792  17.090 -0.6369  0.3043  0.9425
 2045TIP3    H227627   6.360   2.673  17.020  1.5945  0.1661 -0.9402
 2046TIP3   OH227628   0.754   2.687   2.342 -0.6984 -0.5741  0.2279
 2046TIP3    H127629   0.754   2.672   2.248 -0.3973 -0.2543  0.1721
 2046TIP3    H227630   0.844   2.713   2.362  0.0622 -3.4899  1.0730
 2047TIP3   OH227631   2.362   4.475  13.845  0.6093 -0.7929 -0.7761
 2047TIP3    H127632   2.300   4.402  13.843 -0.2032 -0.1073 -1.7877
 2047TIP3    H227633   2.411   4.468  13.763  0.6676 -0.3167 -0.7847
 2048TIP3   OH227634   4.961   5.753   1.209 -0.0147 -0.2488  0.2512
 2048TIP3    H127635   4.943   5.700   1.286 -0.9238  0.7532  0.7569
 2048TIP3    H227636   4.875   5.786   1.181  0.4190  0.2282 -0.5740
 2049TIP3   OH227637   1.966   5.332  11.861 -0.7781 -0.0746  0.0977
 2049TIP3    H127638   1.968   5.341  11.765 -0.1679 -1.5435 -0.0515
 2049TIP3    H227639   2.042   5.277  11.881 -0.6331  0.5887  1.4886
 2050TIP3   OH227640   0.758   5.815   3.081  0.2349  0.4418 -0.0522
 2050TIP3    H127641   0.773   5.788   2.990 -5.4623  0.8726 -1.5154
 2050TIP3    H227642   0.741   5.909   3.075  0.9542  0.7107  1.7166
 2051TIP3   OH227643   2.371   6.120   5.528 -0.1185 -0.5339 -0.0988
 2051TIP3    H127644   2.388   6.057   5.458  0.8654 -0.6301  0.2049
 2051TIP3    H227645   2.276   6.119   5.538 -0.1266 -2.1415  0.0453
 2052TIP3   OH227646   0.105   3.138   0.749  0.2397 -0.1796 -0.0628
 2052TIP3    H127647   0.154   3.193   0.811  0.7358 -1.7464  0.9879
 2052TIP3    H227648   0.171   3.080   0.711 -0.0272  0.8662 -2.2584
 2053TIP3   OH227649   4.677   5.810   4.407  0.5360  0.0598  0.3651
 2053TIP3    H127650   4.647   5.817   4.498 -0.3244  2.6777 -0.0137
 2053TIP3    H227651   4.604   5.767   4.362  1.2628 -1.9086  0.9830
 2054TIP3   OH227652   2.171   2.438  14.980  0.4070 -1.1554  0.6757
 2054TIP3    H127653   2.081   2.428  15.012  0.6145 -0.6744  1.4449
 2054TIP3    H227654   2.207   2.510  15.032  0.2021  0.9452 -1.8909
 2055TIP3   OH227655   5.650   4.638  14.685 -0.7153 -0.3740 -0.2071
 2055TIP3    H127656   5.745   4.641  14.691 -0.5374  0.5611 -2.4424
 2055TIP3    H227657   5.631   4.562  14.631 -0.9708  1.1313 -2.3771
 2056TIP3   OH227658   6.051   3.609   4.985  0.4816 -0.1776  0.4995
 2056TIP3    H127659   6.141   3.607   5.015  0.2675  2.6434  1.6530
 2056TIP3    H227660   6.008   3.536   5.031  2.3855 -2.6042 -1.2946
 2057TIP3   OH227661   5.261   5.602   3.865  0.8777 -0.7347  0.5266
 2057TIP3    H127662   5.186   5.623   3.921 -0.1314 -0.3605 -0.9172
 2057TIP3    H227663   5.246   5.652   3.785  1.8065 -1.9596 -0.4494
 2058TIP3   OH227664   3.207   5.317  12.191 -0.7900 -0.2483 -0.3654
 2058TIP3    H127665   3.227   5.410  12.189 -0.2120 -0.3513  0.1801
 2058TIP3    H227666   3.218   5.288  12.101  2.2169 -0.4175 -0.0399
 2059TIP3   OH227667   5.731   0.913   0.763  0.0946 -0.1008  0.8491
 2059TIP3    H127668   5.775   0.866   0.834  1.8397 -1.4254 -0.9969
 2059TIP3    H227669   5.678   0.847   0.719 -1.7158  0.9103  1.4219
 2060TIP3   OH227670   6.006   0.843   3.290  0.3998  0.1688 -0.4430
 2060TIP3    H127671   5.946   0.794   3.347 -0.0406 -0.5664 -1.5067
 2060TIP3    H227672   5.963   0.928   3.278 -0.4557 -0.3534 -1.2045
 2061TIP3   OH227673   1.270   0.445   1.261 -0.1534 -0.0872  0.1396
 2061TIP3    H127674   1.230   0.530   1.278  0.4942  0.7264 -2.1233
 2061TIP3    H227675   1.345   0.464   1.205 -0.2429 -2.1667 -0.7815
 2062TIP3   OH227676   3.921   0.127  13.866  0.1370  0.3089 -0.1776
 2062TIP3    H127677   3.965   0.143  13.783  0.7589  0.5461  0.1856
 2062TIP3    H227678   3.980   0.067  13.913  0.5399  1.3231  0.6721
 2063TIP3   OH227679   3.696   3.414   1.473  0.6789  0.0556 -0.1786
 2063TIP3    H127680   3.607   3.388   1.497  1.1710 -0.3397  1.2858
 2063TIP3    H227681   3.708   3.500   1.513  0.8650  0.2433 -0.6292
 2064TIP3   OH227682   5.905   5.249   4.535 -0.9340  0.1295  0.1340
 2064TIP3    H127683   5.835   5.267   4.597 -1.3530 -0.7043 -0.0903
 2064TIP3    H227684   5.866   5.191   4.470  0.7332 -2.9715  1.6492
 2065TIP3   OH227685   2.882   1.310  11.745  0.3382  0.2482 -0.0945
 2065TIP3    H127686   2.959   1.366  11.748 -0.8380  1.8951  0.7687
 2065TIP3    H227687   2.845   1.325  11.658  0.9218 -0.4708 -0.4741
 2066TIP3   OH227688   4.533   2.450   4.778 -0.8582  0.2957  1.1729
 2066TIP3    H127689   4.475   2.476   4.706 -1.0235  0.5923  1.4090
 2066TIP3    H227690   4.474   2.415   4.845 -0.6201 -0.9087  0.7787
 2067TIP3   OH227691   5.883   0.491  11.843 -0.2569 -0.0015  0.3486
 2067TIP3    H127692   5.795   0.464  11.816 -0.4747  1.1474 -0.1522
 2067TIP3    H227693   5.936   0.413  11.831 -0.8399 -0.2030 -1.1412
 2068TIP3   OH227694   2.736   3.228   1.065 -0.0953 -0.4001  0.6040
 2068TIP3    H127695   2.712   3.317   1.090 -0.1088  0.3998 -1.9577
 2068TIP3    H227696   2.652   3.181   1.060 -0.2777 -0.0249  0.1185
 2069TIP3   OH227697   4.196   6.698   5.071 -0.5761  0.3723 -0.3005
 2069TIP3    H127698   4.253   6.634   5.029  0.9326  1.4118  0.0953
 2069TIP3    H227699   4.175   6.761   5.001  2.0948  2.2130  0.3975
 2070TIP3   OH227700   6.618   0.664  11.810  0.2122  0.1351 -0.4456
 2070TIP3    H127701   6.667   0.587  11.780 -2.9002 -2.5081  0.6735
 2070TIP3    H227702   6.544   0.669  11.750 -0.1899  1.6521  0.1501
 2071TIP3   OH227703   4.108   4.535   0.705  0.3663  0.2931  0.3751
 2071TIP3    H127704   4.117   4.608   0.644  1.7764 -0.1856 -0.0302
 2071TIP3    H227705   4.098   4.458   0.650 -1.3873  0.1646  0.8047
 2072TIP3   OH227706   4.909   1.602   0.705  0.3089 -0.3326 -0.1677
 2072TIP3    H127707   4.930   1.661   0.632  2.7157 -0.7465  0.1153
 2072TIP3    H227708   4.854   1.534   0.665  1.2810 -0.3622 -1.5418
 2073TIP3   OH227709   5.316   5.582  11.957  0.0602 -0.2397 -0.3597
 2073TIP3    H127710   5.229   5.620  11.973  0.8676  2.5041 -1.8156
 2073TIP3    H227711   5.365   5.600  12.037 -0.1497 -0.0093 -0.2813
 2074TIP3   OH227712   4.073   2.350  12.114 -0.1532  0.0523  0.0136
 2074TIP3    H127713   4.027   2.368  12.196  2.4533  2.4414  1.1184
 2074TIP3    H227714   4.142   2.288  12.138 -0.4061 -0.5562 -0.7820
 2075TIP3   OH227715   2.051   2.287  15.594  0.3973 -0.4555  0.0942
 2075TIP3    H127716   2.059   2.379  15.620 -0.3738 -0.6681  1.1709
 2075TIP3    H227717   2.130   2.269  15.544  0.0947  1.0687 -1.0103
 2076TIP3   OH227718   2.446   6.769  11.660  0.3449  0.0470 -0.2407
 2076TIP3    H127719   2.534   6.732  11.671  0.0007 -1.4206 -1.9666
 2076TIP3    H227720   2.404   6.757  11.745  1.4752 -0.1247  0.3193
 2077TIP3   OH227721   4.597   0.862   0.442  0.2557  0.3138  0.4866
 2077TIP3    H127722   4.632   0.821   0.364 -1.0478 -2.0022  1.0338
 2077TIP3    H227723   4.504   0.876   0.423  0.4151  2.0195  0.7607
 2078TIP3   OH227724   5.629   1.458   2.599  0.4875 -0.3340  0.1513
 2078TIP3    H127725   5.534   1.445   2.601  0.3267  0.7734  0.5004
 2078TIP3    H227726   5.664   1.374   2.569 -0.7120 -0.2239 -1.7168
 2079TIP3   OH227727   3.241   4.449  12.072 -0.3409 -0.2408 -0.3825
 2079TIP3    H127728   3.146   4.441  12.063 -0.3875 -2.4599  1.2199
 2079TIP3    H227729   3.252   4.507  12.148 -0.5807 -2.4661  1.4688
 2080TIP3   OH227730   2.896   6.754   4.823 -0.1001  0.1945 -0.0073
 2080TIP3    H127731   2.922   6.829   4.877  0.6238 -0.1108  0.0829
 2080TIP3    H227732   2.969   6.693   4.831 -1.3269 -1.2179  1.1953
 2081TIP3   OH227733   3.058   2.063   1.386 -0.3514  0.3319 -0.1056
 2081TIP3    H127734   3.125   2.048   1.319 -0.3441  0.3246 -0.0968
 2081TIP3    H227735   3.049   2.158   1.391  0.9196  0.4182  1.1257
 2082TIP3   OH227736   6.112   3.624  12.171  0.2850  0.3533  0.1030
 2082TIP3    H127737   6.176   3.676  12.219 -2.8821  2.6417  2.2205
 2082TIP3    H227738   6.090   3.676  12.094 -0.8745  0.9078  0.7775
 2083TIP3   OH227739   6.106   2.086  15.551  0.7377  0.2572 -0.5234
 2083TIP3    H127740   6.073   2.003  15.518  1.6156 -0.2684 -0.1169
 2083TIP3    H227741   6.112   2.142  15.474  1.1791 -0.4135 -0.9861
 2084TIP3   OH227742   3.602   6.608  15.982  0.0942  0.1354  0.2622
 2084TIP3    H127743   3.633   6.686  16.029 -1.0620  0.6455  0.2024
 2084TIP3    H227744   3.532   6.573  16.037  0.7828 -1.0362  0.4256
 2085TIP3   OH227745   1.129   2.086  14.568  0.5591 -0.5366 -0.6379
 2085TIP3    H127746   1.210   2.040  14.544  0.5501 -0.2604 -1.2042
 2085TIP3    H227747   1.149   2.127  14.652  1.0985 -0.2529 -0.8993
 2086TIP3   OH227748   0.735   0.787   4.200  0.2220 -0.1421  0.4415
 2086TIP3    H127749   0.652   0.746   4.225 -0.1829  0.8858  0.8800
 2086TIP3    H227750   0.802   0.739   4.248 -0.2313 -0.2867  0.9335
 2087TIP3   OH227751   3.786   6.655   3.902  0.3430 -0.0767  1.0261
 2087TIP3    H127752   3.706   6.624   3.862  0.1919  1.3909  0.1133
 2087TIP3    H227753   3.852   6.589   3.881 -0.1109 -0.1421 -0.2524
 2088TIP3   OH227754   0.336   1.798   3.081  0.1641  0.0114 -0.1773
 2088TIP3    H127755   0.428   1.821   3.089  0.2240 -0.5959  1.2150
 2088TIP3    H227756   0.333   1.731   3.013  1.0243 -1.2833  1.0067
 2089TIP3   OH227757   6.798   3.027  13.107  0.4428 -0.3645 -0.6135
 2089TIP3    H127758   6.732   2.997  13.045  0.5997 -0.0716 -0.9228
 2089TIP3    H227759   6.881   2.995  13.072  0.6012  0.3285 -0.8938
 2090TIP3   OH227760   3.917   1.478  14.878 -0.2050  0.0174  0.1405
 2090TIP3    H127761   3.855   1.550  14.865 -0.6306 -0.2123  0.8691
 2090TIP3    H227762   3.906   1.453  14.969  2.3561  1.2463  0.8640
 2091TIP3   OH227763   4.577   0.081  16.735 -0.0858  0.4415  0.1021
 2091TIP3    H127764   4.528   0.001  16.755  0.3167  0.4592  1.2442
 2091TIP3    H227765   4.523   0.152  16.772  0.3394  0.5446  0.5301
 2092TIP3   OH227766   5.052   1.853   1.608  0.3199  0.4125 -0.1555
 2092TIP3    H127767   5.110   1.919   1.570  0.0924 -0.4959 -2.2283
 2092TIP3    H227768   5.085   1.770   1.574  1.1747 -0.7306  3.1273
 2093TIP3   OH227769   4.943   1.158   3.294 -0.4673  0.0922 -0.1842
 2093TIP3    H127770   5.017   1.178   3.237 -0.2538 -0.0463  0.0494
 2093TIP3    H227771   4.974   1.177   3.382 -1.5239  2.6233 -0.2689
 2094TIP3   OH227772   2.196   3.261   2.321 -0.1327  0.4913 -0.3510
 2094TIP3    H127773   2.129   3.213   2.271 -2.8143  1.0450  2.3811
 2094TIP3    H227774   2.204   3.345   2.275 -3.1147  1.3199  0.4104
 2095TIP3   OH227775   4.683   1.702   2.193  0.2571  0.5570  0.4860
 2095TIP3    H127776   4.665   1.733   2.104 -0.3964  1.8856  1.0512
 2095TIP3    H227777   4.741   1.627   2.181 -0.6033  0.0927 -1.1112
 2096TIP3   OH227778   0.167   0.093   5.526  0.0879  0.7517 -0.5960
 2096TIP3    H127779   0.138   0.165   5.582 -0.8539  1.9823 -2.5300
 2096TIP3    H227780   0.241   0.054   5.572  0.7454  3.0891  0.4483
 2097TIP3   OH227781   5.025   6.319   3.572  0.3027  0.0726 -0.6706
 2097TIP3    H127782   4.938   6.279   3.566  0.1871  0.4790 -1.8723
 2097TIP3    H227783   5.055   6.297   3.660 -0.9275 -0.2603 -0.3151
 2098TIP3   OH227784   4.336   0.507   5.038 -0.4141  0.3096  0.1582
 2098TIP3    H127785   4.389   0.580   5.007  0.4427 -0.5416 -0.4297
 2098TIP3    H227786   4.370   0.431   4.991 -0.7012 -0.6145  1.3957
 2099TIP3   OH227787   3.339   3.893   5.176 -0.2964  0.6579 -0.1045
 2099TIP3    H127788   3.400   3.954   5.134 -1.4142  0.7052 -1.7455
 2099TIP3    H227789   3.264   3.889   5.117 -1.1122 -0.7986  0.9546
 2100TIP3   OH227790   5.970   1.156  14.126 -0.2399 -0.4899 -0.6214
 2100TIP3    H127791   5.902   1.197  14.180 -0.4293 -0.4625 -0.8799
 2100TIP3    H227792   6.022   1.105  14.188  0.2527  0.4697 -0.2285
 2101TIP3   OH227793   1.931   6.225  16.769 -0.4890  0.0201 -0.0063
 2101TIP3    H127794   1.908   6.300  16.714  1.5900  0.0028 -0.9801
 2101TIP3    H227795   1.911   6.149  16.715 -1.0701 -0.0906  0.3592
 2102TIP3   OH227796   3.493   3.911   0.859 -0.1758 -0.4785 -0.2865
 2102TIP3    H127797   3.423   3.845   0.847 -0.3434 -0.0872 -1.6152
 2102TIP3    H227798   3.448   3.995   0.851  0.4644 -0.2222 -1.3022
 2103TIP3   OH227799   4.175   2.956   1.373 -0.1261 -0.0540 -0.4038
 2103TIP3    H127800   4.192   2.869   1.409 -0.7819  0.2726  0.7474
 2103TIP3    H227801   4.121   2.940   1.296 -0.0671 -0.6824 -0.3211
 2104TIP3   OH227802   0.467   0.299  11.372 -0.0667  0.1428 -0.1943
 2104TIP3    H127803   0.414   0.224  11.346  0.6095 -0.3250 -0.2612
 2104TIP3    H227804   0.525   0.265  11.440  0.1253  0.6515 -0.1000
 2105TIP3   OH227805   4.130   3.255   0.783 -0.1254  0.5276 -0.2199
 2105TIP3    H127806   4.066   3.189   0.808  0.6530  1.0434  3.7225
 2105TIP3    H227807   4.212   3.207   0.772 -0.5075  0.2706 -2.3420
 2106TIP3   OH227808   2.533   5.852   5.886  0.1425  0.6363  0.9761
 2106TIP3    H127809   2.534   5.945   5.864 -0.9538  0.5282  0.3896
 2106TIP3    H227810   2.475   5.813   5.820  0.8794 -0.5179  0.9922
 2107TIP3   OH227811   5.905   6.636   3.028  0.5993  0.2755  0.1257
 2107TIP3    H127812   5.868   6.584   2.957 -0.4960  0.7642  0.3092
 2107TIP3    H227813   5.988   6.670   2.993  0.1830  0.3220 -0.8369
 2108TIP3   OH227814   5.419   3.835   4.964 -0.6401 -0.5524  0.2346
 2108TIP3    H127815   5.479   3.835   4.889 -0.9082 -1.4924  0.0163
 2108TIP3    H227816   5.341   3.880   4.932  0.2264  1.4496  0.7720
 2109TIP3   OH227817   3.675   6.259  15.349 -0.5192  0.2871  0.2964
 2109TIP3    H127818   3.586   6.247  15.317  0.5170 -2.0525 -2.1112
 2109TIP3    H227819   3.731   6.235  15.274  2.1238 -0.0546  2.2334
 2110TIP3   OH227820   0.931   0.705   4.619 -0.8301 -0.1979 -0.5590
 2110TIP3    H127821   0.957   0.790   4.656  0.7774 -0.5771 -0.7112
 2110TIP3    H227822   0.909   0.651   4.695 -0.3471 -0.0921 -0.3369
 2111TIP3   OH227823   4.933   5.215  11.515  0.0874 -0.0067  0.8347
 2111TIP3    H127824   4.857   5.160  11.503 -0.2751  0.3078  1.6318
 2111TIP3    H227825   5.007   5.160  11.490 -0.4802  0.2483 -1.7720
 2112TIP3   OH227826   4.925   2.482  10.535  0.5952 -0.1935  0.1117
 2112TIP3    H127827   4.975   2.560  10.510 -1.7213  1.5834  0.5739
 2112TIP3    H227828   4.850   2.517  10.583 -1.5252 -2.5688 -1.2273
 2113TIP3   OH227829   0.735   3.875   1.431 -0.0062  0.3807 -0.2393
 2113TIP3    H127830   0.775   3.958   1.459 -0.5940  0.4715  0.3665
 2113TIP3    H227831   0.645   3.898   1.409 -1.1384 -0.5488  2.8535
 2114TIP3   OH227832   3.614   2.628   3.813 -0.0413 -0.0399 -0.6803
 2114TIP3    H127833   3.587   2.717   3.838  0.5520  0.2500 -1.0371
 2114TIP3    H227834   3.544   2.572   3.844 -0.4605  0.5676 -0.5112
 2115TIP3   OH227835   4.545   5.715  17.116 -0.2160  0.0999 -0.2339
 2115TIP3    H127836   4.492   5.637  17.136  0.9831 -0.8316 -0.5582
 2115TIP3    H227837   4.635   5.686  17.129  0.2572  1.4553 -0.3688
 2116TIP3   OH227838   5.121   5.437   1.227  0.4022 -0.0386 -0.2747
 2116TIP3    H127839   5.173   5.427   1.147  1.0744 -0.4440  0.2012
 2116TIP3    H227840   5.116   5.348   1.263  0.8919  0.2836  0.6138
 2117TIP3   OH227841   1.983   0.009  14.266 -0.3900  0.4244 -0.8705
 2117TIP3    H127842   1.907   0.037  14.214 -0.9015  1.6684  0.4736
 2117TIP3    H227843   1.947  -0.051  14.331  0.2070 -0.9296 -1.7590
 2118TIP3   OH227844   5.354   3.389  12.983 -0.2401  0.1560 -0.8140
 2118TIP3    H127845   5.346   3.482  13.006  1.3324  0.1674 -0.1809
 2118TIP3    H227846   5.376   3.346  13.065 -1.9052 -0.9538 -0.9117
 2119TIP3   OH227847   2.813   2.397  16.299 -0.2867 -0.1088  0.9078
 2119TIP3    H127848   2.800   2.470  16.238 -1.6714 -0.5562  0.6424
 2119TIP3    H227849   2.904   2.370  16.284 -1.5248 -2.8118 -4.0504
 2120TIP3   OH227850   6.182   2.506  14.633 -0.2873  0.1595  0.1324
 2120TIP3    H127851   6.229   2.570  14.580 -0.6516  0.5803  0.3064
 2120TIP3    H227852   6.090   2.532  14.625 -0.3784  0.0239  0.6948
 2121TIP3   OH227853   0.080   2.432   1.411  0.4437  0.2699  0.0403
 2121TIP3    H127854  -0.004   2.388   1.401  1.3966 -1.2269 -2.2828
 2121TIP3    H227855   0.070   2.514   1.363  0.4212 -0.1319 -0.6611
 2122TIP3   OH227856   3.352   3.711   2.810 -0.5218 -0.0327  0.0442
 2122TIP3    H127857   3.259   3.693   2.822 -0.7187  1.2896  0.6245
 2122TIP3    H227858   3.394   3.671   2.886 -0.6063 -0.5667 -0.1812
 2123TIP3   OH227859   4.035   1.769  11.960 -0.2776  0.1972 -0.5850
 2123TIP3    H127860   3.980   1.697  11.992  0.0885 -0.1156 -0.6554
 2123TIP3    H227861   4.110   1.770  12.018 -1.4535  2.1780  1.0414
 2124TIP3   OH227862   3.618   1.704  14.653 -0.1874 -0.1120  0.0492
 2124TIP3    H127863   3.601   1.729  14.562  0.8564  0.3458 -0.0433
 2124TIP3    H227864   3.539   1.658  14.681 -0.0900 -1.2772 -1.4464
 2125TIP3   OH227865   5.804   3.963  17.248 -0.0089 -0.0716  0.1532
 2125TIP3    H127866   5.881   3.934  17.296  0.6276 -0.7473 -1.2083
 2125TIP3    H227867   5.774   4.041  17.294  0.3493 -0.8715  1.8141
 2126TIP3   OH227868   2.615   4.631  12.449  0.1371  0.0203 -0.9031
 2126TIP3    H127869   2.539   4.687  12.432 -0.0157  0.8221  1.9645
 2126TIP3    H227870   2.662   4.675  12.519  1.9024 -1.7495 -0.8958
 2127TIP3   OH227871   3.987   0.203   5.737 -0.0428  0.1161  0.4689
 2127TIP3    H127872   3.984   0.242   5.824 -0.9903  1.9779 -0.3471
 2127TIP3    H227873   4.069   0.233   5.699 -0.9385  1.7636 -0.2958
 2128TIP3   OH227874   1.137   2.456   0.178 -0.5282 -0.1287 -0.4232
 2128TIP3    H127875   1.114   2.523   0.242 -2.0726 -1.1348  0.1244
 2128TIP3    H227876   1.062   2.452   0.118  0.3430 -0.0965 -1.5630
 2129TIP3   OH227877   1.743   4.375   0.860 -0.0083  0.7144 -0.1189
 2129TIP3    H127878   1.786   4.433   0.923  2.2700 -1.0317  0.0662
 2129TIP3    H227879   1.771   4.409   0.774  1.0073  0.1513 -0.0218
 2130TIP3   OH227880   2.200   6.642  15.242  0.2728  0.0683 -0.0836
 2130TIP3    H127881   2.194   6.720  15.296 -2.2439  0.1304 -0.2884
 2130TIP3    H227882   2.233   6.673  15.158  0.0722  0.7645  0.0916
 2131TIP3   OH227883   3.423   6.760  17.284  0.2790 -0.8762 -0.5941
 2131TIP3    H127884   3.430   6.855  17.288 -1.3291 -0.6155 -2.4117
 2131TIP3    H227885   3.509   6.730  17.256  1.0812 -0.0771  0.9047
 2132TIP3   OH227886   0.176   3.265  16.339 -0.1684 -1.0083  0.5271
 2132TIP3    H127887   0.124   3.314  16.275  0.1060 -0.7725  0.4775
 2132TIP3    H227888   0.138   3.288  16.424 -0.2530 -0.9734  0.4791
 2133TIP3   OH227889   2.179   6.055  14.397 -1.1454 -0.2067  0.0905
 2133TIP3    H127890   2.200   5.962  14.391  1.1247  0.2862 -0.5334
 2133TIP3    H227891   2.096   6.058  14.444 -0.0383 -2.4364  2.4099
 2134TIP3   OH227892   5.986   0.505   3.787 -0.0723 -0.2617 -0.1063
 2134TIP3    H127893   5.956   0.461   3.707 -0.7158 -0.3494  0.1780
 2134TIP3    H227894   5.906   0.523   3.836  0.2262  0.8631 -0.0245
 2135TIP3   OH227895   5.840   6.275   4.582 -0.8282 -0.0157 -0.3441
 2135TIP3    H127896   5.885   6.313   4.506 -0.7103 -1.5184 -1.0567
 2135TIP3    H227897   5.909   6.231   4.631 -0.8835  1.0433  0.7397
 2136TIP3   OH227898   1.799   6.493   5.012  0.1529  0.2289  0.0364
 2136TIP3    H127899   1.776   6.447   5.093 -0.9037 -0.4021 -0.5958
 2136TIP3    H227900   1.750   6.447   4.943  2.3740 -0.3803 -1.2346
 2137TIP3   OH227901   0.079   5.079   1.154  0.0887  0.1170  0.0997
 2137TIP3    H127902   0.129   5.109   1.079 -1.3522  1.3504 -0.4083
 2137TIP3    H227903   0.042   4.995   1.127 -0.2452  0.4532 -0.4931
 2138TIP3   OH227904   3.686   6.116  16.698 -0.5020 -0.1409  0.1404
 2138TIP3    H127905   3.757   6.066  16.738 -0.3148  0.6761  0.8653
 2138TIP3    H227906   3.725   6.158  16.622 -0.2979  0.0135  0.3292
 2139TIP3   OH227907   1.343   0.720  10.956  0.0869  0.0276  0.0648
 2139TIP3    H127908   1.254   0.731  10.922  0.4794 -1.4206 -1.6118
 2139TIP3    H227909   1.372   0.637  10.918  1.8719  0.0812  1.2274
 2140TIP3   OH227910   3.201   2.165  12.806 -0.5008 -0.3949 -0.3130
 2140TIP3    H127911   3.107   2.181  12.811 -0.2029  1.2822  0.5338
 2140TIP3    H227912   3.231   2.220  12.734  0.1995  1.2055  1.1379
 2141TIP3   OH227913   2.491   4.559  14.110  0.9274 -0.1267 -0.0410
 2141TIP3    H127914   2.439   4.563  14.030 -0.1254  2.6964  0.6404
 2141TIP3    H227915   2.427   4.541  14.179  1.5107 -0.6573  0.3635
 2142TIP3   OH227916   0.327   2.016  14.574  0.3484 -0.4365  0.1577
 2142TIP3    H127917   0.364   1.964  14.503  0.3350 -2.1505  1.3399
 2142TIP3    H227918   0.277   2.084  14.530  0.8539 -1.0603 -1.4668
 2143TIP3   OH227919   1.358   6.609  13.704  0.2797  0.1749  0.3979
 2143TIP3    H127920   1.360   6.705  13.698 -1.3237  0.1783 -0.7478
 2143TIP3    H227921   1.265   6.587  13.705  0.6040 -1.4545 -1.0975
 2144TIP3   OH227922   0.417   5.869   0.823  0.1208  0.2034  0.2074
 2144TIP3    H127923   0.348   5.803   0.813  0.3280  0.0958 -0.5408
 2144TIP3    H227924   0.385   5.927   0.893 -0.8969  0.3768 -0.3843
 2145TIP3   OH227925   0.190   0.850   3.801  0.0662  0.1176 -0.3595
 2145TIP3    H127926   0.224   0.831   3.889  1.9299  0.0574 -1.0449
 2145TIP3    H227927   0.148   0.769   3.773 -0.6314  0.1713  0.5097
 2146TIP3   OH227928   5.065   1.441  14.140  0.0005 -0.2282  0.2646
 2146TIP3    H127929   5.032   1.413  14.226  0.2395  0.0934  0.4614
 2146TIP3    H227930   5.106   1.362  14.104  0.3515 -0.2326  0.6647
 2147TIP3   OH227931   2.719   5.678   0.537 -0.0390 -0.4852  0.2817
 2147TIP3    H127932   2.804   5.674   0.581 -0.3635  0.3363  1.0405
 2147TIP3    H227933   2.656   5.651   0.604 -0.4325 -0.4322 -0.0607
 2148TIP3   OH227934   4.313   0.506   3.781  0.8361  0.5626  0.1249
 2148TIP3    H127935   4.364   0.586   3.793 -0.2425  1.3377 -0.2431
 2148TIP3    H227936   4.312   0.493   3.686  1.6685 -0.3519  0.2281
 2149TIP3   OH227937   6.569   4.400   5.086  0.2016  0.0455 -0.4428
 2149TIP3    H127938   6.485   4.412   5.129  0.5076 -0.1599  0.2193
 2149TIP3    H227939   6.632   4.445   5.143  0.6359 -0.3907 -0.5717
 2150TIP3   OH227940   1.920   4.312  16.845 -0.0283 -0.2093 -0.4942
 2150TIP3    H127941   1.858   4.378  16.815  0.3878  0.1018 -0.6971
 2150TIP3    H227942   1.935   4.256  16.768  2.3193  1.5824 -1.4650
 2151TIP3   OH227943   5.984   5.985   0.501  0.1838  0.5968  0.5783
 2151TIP3    H127944   5.964   6.078   0.510  0.2838  0.5717  1.0325
 2151TIP3    H227945   6.069   5.982   0.459 -0.4928  0.7068 -0.8711
 2152TIP3   OH227946   3.104   2.195  11.329 -0.8153 -0.4518 -0.3937
 2152TIP3    H127947   3.171   2.246  11.284 -0.7970 -1.1583 -1.1856
 2152TIP3    H227948   3.037   2.178  11.263 -1.4058 -0.4251  0.1797
 2153TIP3   OH227949   6.796   5.671  13.468 -0.5914 -0.1981  0.4921
 2153TIP3    H127950   6.891   5.665  13.481 -0.8386 -0.7216  2.4020
 2153TIP3    H227951   6.782   5.760  13.436  0.4249  0.3934  1.5918
 2154TIP3   OH227952   4.813   6.007  11.015  0.1720  0.0286  0.0238
 2154TIP3    H127953   4.893   5.972  10.975  0.6920 -0.6088  1.5572
 2154TIP3    H227954   4.747   5.940  10.999  0.4474 -0.3515  0.4606
 2155TIP3   OH227955   0.844   0.564   1.922  0.8016 -0.2813 -0.2497
 2155TIP3    H127956   0.904   0.531   1.989  0.5046  0.0989  0.2056
 2155TIP3    H227957   0.778   0.495   1.913  1.4560 -0.8321 -0.9617
 2156TIP3   OH227958   4.991   1.025  13.297  0.4761 -0.1626  0.3899
 2156TIP3    H127959   5.038   1.007  13.215  0.8834  0.4838  0.4704
 2156TIP3    H227960   4.971   1.119  13.293 -1.2806 -0.5215  0.1294
 2157TIP3   OH227961   5.871   1.193   4.992  0.6332  0.7777 -0.2877
 2157TIP3    H127962   5.917   1.253   4.933  2.1414 -0.6690 -0.6630
 2157TIP3    H227963   5.797   1.161   4.941 -0.0106  2.0524 -0.1897
 2158TIP3   OH227964   0.174   4.115   2.535  0.7021 -0.3311  0.2820
 2158TIP3    H127965   0.132   4.036   2.503  2.1096 -1.7782  1.7900
 2158TIP3    H227966   0.120   4.144   2.609  0.6216 -0.3458  0.2282
 2159TIP3   OH227967   4.014   4.340  16.916 -0.3095 -0.1653  0.1326
 2159TIP3    H127968   4.038   4.248  16.906 -0.8716 -0.4328  1.0818
 2159TIP3    H227969   3.946   4.339  16.984 -0.9263  0.8569 -0.4546
 2160TIP3   OH227970   2.671   1.035  11.908  0.0779 -0.1595 -0.4310
 2160TIP3    H127971   2.580   1.008  11.916  0.1596 -0.6629 -1.1247
 2160TIP3    H227972   2.668   1.115  11.856  0.1892 -1.4648 -2.5543
 2161TIP3   OH227973   4.039   4.795   5.809  1.0309  0.0154 -0.0673
 2161TIP3    H127974   4.127   4.820   5.780  0.6796 -2.1654 -3.5785
 2161TIP3    H227975   3.980   4.848   5.757  0.2222  0.2686  1.0653
 2162TIP3   OH227976   5.161   1.681   2.735 -0.3020 -0.0486  0.1893
 2162TIP3    H127977   5.095   1.664   2.802 -1.6105 -0.5984 -1.1835
 2162TIP3    H227978   5.237   1.630   2.762 -1.6795 -2.3486 -0.0536
 2163TIP3   OH227979   6.387   2.508  13.842 -0.3302 -0.0568  0.2440
 2163TIP3    H127980   6.421   2.427  13.878  1.1050 -0.2122 -1.3298
 2163TIP3    H227981   6.292   2.500  13.851 -0.2759 -2.2609 -0.5302
 2164TIP3   OH227982   6.376   0.495  13.917  0.0225 -0.4193 -0.2094
 2164TIP3    H127983   6.468   0.493  13.892 -0.0192  1.0961 -0.5264
 2164TIP3    H227984   6.364   0.580  13.960 -1.3556 -0.3499 -0.6932
 2165TIP3   OH227985   1.978   5.753  16.719  0.1195  0.3462 -0.5324
 2165TIP3    H127986   2.059   5.791  16.685  1.5659  0.8743  3.0279
 2165TIP3    H227987   1.983   5.660  16.695  0.9550  0.6914 -1.7603
 2166TIP3   OH227988   0.667   3.503   4.518 -0.2444 -0.8548  0.4023
 2166TIP3    H127989   0.721   3.475   4.444  1.4145 -0.1213  1.2977
 2166TIP3    H227990   0.598   3.557   4.478  1.4163  0.6967 -0.5149
 2167TIP3   OH227991   1.372   3.037   6.187  0.0544  0.6677  0.6418
 2167TIP3    H127992   1.342   2.950   6.162 -1.1494  1.4528 -0.8052
 2167TIP3    H227993   1.301   3.071   6.242 -1.5466  2.2257 -2.1432
 2168TIP3   OH227994   6.060   2.090  11.669  0.1238  0.3056  0.1643
 2168TIP3    H127995   6.021   2.137  11.744  1.2482 -3.5533  3.5022
 2168TIP3    H227996   5.984   2.058  11.620 -0.6500  2.5268 -0.2318
 2169TIP3   OH227997   2.066   1.270   0.725  0.0219  0.3825 -0.3027
 2169TIP3    H127998   2.148   1.223   0.736  0.3731  0.8183 -1.0053
 2169TIP3    H227999   2.031   1.239   0.642 -0.0915  0.8379 -0.4295
 2170TIP3   OH228000   2.147   6.596   0.841 -0.0698 -0.1175 -0.6198
 2170TIP3    H128001   2.143   6.546   0.760 -1.5300 -2.6279  0.8813
 2170TIP3    H228002   2.059   6.631   0.852 -1.0810 -3.0062  1.6505
 2171TIP3   OH228003   6.231   5.648  16.904 -0.3143  0.0050 -0.3376
 2171TIP3    H128004   6.291   5.718  16.878 -1.0515  0.9182  0.3692
 2171TIP3    H228005   6.158   5.693  16.946  0.2476 -1.2787  2.2163
 2172TIP3   OH228006   4.323   6.434  16.245  0.6039 -0.5229 -0.2627
 2172TIP3    H128007   4.337   6.454  16.338 -0.5436  0.7824 -0.3514
 2172TIP3    H228008   4.408   6.450  16.205  0.6202  0.8127  0.2635
 2173TIP3   OH228009   0.661   5.141  16.826 -0.3130 -0.0053 -0.4124
 2173TIP3    H128010   0.688   5.136  16.734 -0.9880  0.8638 -0.6713
 2173TIP3    H228011   0.580   5.089  16.829 -0.8712  0.8282 -0.5576
 2174TIP3   OH228012   3.527   0.892   1.684 -0.3707 -0.0323 -0.5430
 2174TIP3    H128013   3.477   0.967   1.714 -0.3606  0.2572 -1.2401
 2174TIP3    H228014   3.533   0.903   1.589  0.0654 -0.6436 -0.5932
 2175TIP3   OH228015   6.003   1.999  12.856  0.0105  0.0779  0.1224
 2175TIP3    H128016   5.926   2.014  12.910 -0.5017 -0.9780 -0.2848
 2175TIP3    H228017   6.017   1.904  12.860  0.0834  0.0025 -1.4192
 2176TIP3   OH228018   3.213   1.860  14.182 -0.9108 -0.4345  0.1205
 2176TIP3    H128019   3.276   1.923  14.146 -0.6722 -0.1758  0.9592
 2176TIP3    H228020   3.264   1.781  14.197 -0.6321 -0.0562  1.3044
 2177TIP3   OH228021   0.844   0.021   2.482  0.1947  0.4525 -0.6365
 2177TIP3    H128022   0.796   0.030   2.564  0.7027 -2.4199  0.1010
 2177TIP3    H228023   0.929   0.063   2.499  0.3093 -0.1466  0.3390
 2178TIP3   OH228024   0.275   2.385   0.890 -0.5885 -0.5164 -0.3875
 2178TIP3    H128025   0.321   2.331   0.825 -1.7919 -1.2397 -0.6521
 2178TIP3    H228026   0.209   2.433   0.839  0.2578  1.0305 -0.1149
 2179TIP3   OH228027   3.101   2.722   4.089  0.3363 -0.5283 -0.0311
 2179TIP3    H128028   3.035   2.719   4.020  0.6777  0.7792 -0.4286
 2179TIP3    H228029   3.083   2.803   4.137 -0.6892 -1.9948  2.2609
 2180TIP3   OH228030   0.607   6.491   5.716 -0.6548  0.5390 -0.0408
 2180TIP3    H128031   0.568   6.529   5.795  1.1950  1.1047  0.6549
 2180TIP3    H228032   0.700   6.482   5.737 -0.2511 -0.0498 -1.8827
 2181TIP3   OH228033   1.427   5.279  12.050  0.0140  0.1336 -0.0700
 2181TIP3    H128034   1.353   5.314  12.001 -0.7335  1.9000  2.1057
 2181TIP3    H228035   1.504   5.319  12.010 -0.4188  0.2351 -0.8116
 2182TIP3   OH228036   0.665   6.713   3.294  0.1838 -0.1597  0.4933
 2182TIP3    H128037   0.734   6.692   3.357  1.1495 -1.1221 -0.8341
 2182TIP3    H228038   0.675   6.647   3.225 -0.9917  0.7224 -0.5537
 2183TIP3   OH228039   1.019   4.491  13.519  0.2312  0.3842  0.3267
 2183TIP3    H128040   1.002   4.543  13.441  0.7693  0.7390  0.4401
 2183TIP3    H228041   1.058   4.552  13.581  2.9846 -0.6023 -0.3183
 2184TIP3   OH228042   6.668   5.142  14.092 -0.1969 -0.0425 -0.0981
 2184TIP3    H128043   6.727   5.163  14.020 -1.0089  0.4462 -0.6392
 2184TIP3    H228044   6.580   5.158  14.057 -0.6623 -0.7334  0.6877
 2185TIP3   OH228045   2.594   2.458  14.252 -0.1153 -0.6830 -0.2312
 2185TIP3    H128046   2.518   2.514  14.267  0.3380 -0.3284  0.8039
 2185TIP3    H228047   2.615   2.470  14.160 -1.4877 -1.0150 -0.6158
 2186TIP3   OH228048   2.269   2.347   4.258  0.5064 -0.2389 -0.1243
 2186TIP3    H128049   2.185   2.389   4.240  0.5628 -1.3304 -3.7519
 2186TIP3    H228050   2.330   2.419   4.273 -0.6031  0.6556  0.1864
 2187TIP3   OH228051   3.874   5.539   1.856  0.3204 -0.4537  0.0910
 2187TIP3    H128052   3.930   5.604   1.899 -0.3603  0.1022  0.1401
 2187TIP3    H228053   3.933   5.465   1.841  0.5308 -0.7860  2.2204
 2188TIP3   OH228054   6.186   1.717  16.058 -0.0754  0.2217  0.1126
 2188TIP3    H128055   6.267   1.759  16.089 -0.2749  1.7392 -1.2997
 2188TIP3    H228056   6.127   1.722  16.132  0.9108 -0.3750  0.9760
 2189TIP3   OH228057   6.458   6.741  12.791 -0.0768 -0.2928 -0.3151
 2189TIP3    H128058   6.456   6.828  12.830  2.1913 -1.0404  1.7890
 2189TIP3    H228059   6.552   6.720  12.786 -0.5608 -3.0410  0.4134
 2190TIP3   OH228060   6.479   6.149  11.216  0.4444 -0.4773  0.6614
 2190TIP3    H128061   6.546   6.090  11.182  1.3815  2.1495 -2.5307
 2190TIP3    H228062   6.399   6.097  11.217  1.3817 -2.0535 -1.1536
 2191TIP3   OH228063   3.357   4.034   6.465 -0.0176  0.0986 -0.3824
 2191TIP3    H128064   3.361   4.120   6.424 -1.7450  0.0301 -0.7623
 2191TIP3    H228065   3.268   4.028   6.500  0.3518 -1.1876  0.4297
 2192TIP3   OH228066   5.974   1.980   4.130  0.3243 -0.2447 -0.5964
 2192TIP3    H128067   6.016   2.009   4.049 -1.0570 -0.9286 -1.5967
 2192TIP3    H228068   5.935   1.896   4.108 -1.5182  0.3365  0.2878
 2193TIP3   OH228069   6.101   5.099  14.492 -0.0190  0.2879  0.8323
 2193TIP3    H128070   6.121   5.149  14.413  2.0645  0.9115  1.6742
 2193TIP3    H228071   6.103   5.008  14.464 -0.5896  0.5487 -0.0858
 2194TIP3   OH228072   2.395   1.087  13.292  0.0216  0.1913  0.4432
 2194TIP3    H128073   2.415   1.113  13.203 -0.4119  0.2671  0.3646
 2194TIP3    H228074   2.342   1.159  13.327  0.3818  0.2692  0.8374
 2195TIP3   OH228075   0.572   3.833  13.462  0.2618  0.2277 -0.3111
 2195TIP3    H128076   0.621   3.751  13.449  1.2377  0.7754 -0.1773
 2195TIP3    H228077   0.639   3.901  13.462 -0.4451  0.9500  0.4772
 2196TIP3   OH228078   4.038   4.776  17.165 -0.0921  0.0782 -0.3131
 2196TIP3    H128079   4.096   4.849  17.142 -0.5012  0.0512 -1.5002
 2196TIP3    H228080   4.085   4.698  17.135 -1.1710  0.1264 -2.3503
 2197TIP3   OH228081   2.907   0.517   0.530  0.0365  0.4830  0.4300
 2197TIP3    H128082   2.976   0.543   0.590 -0.8824  0.7640  1.4033
 2197TIP3    H228083   2.903   0.421   0.539 -0.7825  0.5966  1.6558
 2198TIP3   OH228084   4.516   4.135   4.640 -0.3232  0.3332 -0.1147
 2198TIP3    H128085   4.563   4.126   4.723 -1.9508  1.0050  0.9334
 2198TIP3    H228086   4.508   4.229   4.626 -0.4334  0.2307 -0.8139
 2199TIP3   OH228087   1.119   3.054   3.025  0.4122 -0.3096  0.7211
 2199TIP3    H128088   1.056   2.983   3.012  0.4714  0.0559 -1.9572
 2199TIP3    H228089   1.183   3.043   2.955  3.3145 -0.5442  3.2245
 2200TIP3   OH228090   5.278   4.520   3.565 -0.2236  0.4818  1.0519
 2200TIP3    H128091   5.189   4.557   3.569 -0.8781 -0.8858 -0.0720
 2200TIP3    H228092   5.272   4.440   3.618 -0.1642 -0.5413 -0.4448
 2201TIP3   OH228093   1.933   0.538  12.246 -0.7417 -0.5878 -0.2305
 2201TIP3    H128094   1.850   0.582  12.232 -0.1727 -0.2935 -3.3978
 2201TIP3    H228095   1.912   0.444  12.241 -0.7919 -0.5102 -2.2764
 2202TIP3   OH228096   2.779   3.390  15.910  0.1762 -0.1436  0.0634
 2202TIP3    H128097   2.759   3.322  15.975  0.2908 -0.4981 -0.2679
 2202TIP3    H228098   2.867   3.419  15.931 -0.7693  1.7322  1.8044
 2203TIP3   OH228099   0.925   4.580  15.337 -0.5974 -0.2497  0.7737
 2203TIP3    H128100   0.944   4.613  15.424 -1.2282 -0.0131  0.8250
 2203TIP3    H228101   0.829   4.581  15.331 -0.5723 -0.6750  0.2408
 2204TIP3   OH228102   2.275   3.115  11.987 -0.2339  0.2812  0.2507
 2204TIP3    H128103   2.356   3.101  11.938 -0.9091 -0.1802 -0.7520
 2204TIP3    H228104   2.226   3.180  11.936 -1.6020 -1.3030 -0.5368
 2205TIP3   OH228105   0.098   0.526   1.797 -0.1459 -0.1043  0.2721
 2205TIP3    H128106   0.053   0.602   1.834  0.8180  1.0557 -0.8363
 2205TIP3    H228107   0.096   0.460   1.866 -0.2070  1.2560  1.6112
 2206TIP3   OH228108   3.676   3.254   5.713 -0.0476  0.1968 -0.0346
 2206TIP3    H128109   3.730   3.176   5.723 -1.1930 -0.5849  0.1444
 2206TIP3    H228110   3.597   3.224   5.670 -0.2419  1.3882 -0.5614
 2207TIP3   OH228111   3.561   0.728   1.912  0.0247  0.6079 -0.4098
 2207TIP3    H128112   3.530   0.791   1.847 -1.2037  0.8032  0.3301
 2207TIP3    H228113   3.524   0.759   1.995 -0.2253 -0.8143  0.0413
 2208TIP3   OH228114   4.971   5.622  12.451 -0.0330 -0.1415  0.1508
 2208TIP3    H128115   4.886   5.665  12.443 -0.3121 -0.2440  2.0207
 2208TIP3    H228116   5.028   5.688  12.489 -0.1229 -0.9566  1.8103
 2209TIP3   OH228117   4.983   2.384  11.229 -0.2002  0.1139 -0.8279
 2209TIP3    H128118   4.924   2.314  11.201 -0.6028  1.0252 -2.4126
 2209TIP3    H228119   5.061   2.339  11.261 -1.0789 -1.0793 -0.2811
 2210TIP3   OH228120   6.453   4.211  14.940 -0.0367  0.0624 -0.3728
 2210TIP3    H128121   6.387   4.237  14.876 -0.1430  2.8882  0.7359
 2210TIP3    H228122   6.402   4.175  15.014 -0.2147  0.5656 -0.2476
 2211TIP3   OH228123   3.491   5.166   4.851 -0.1054  0.1956 -0.0030
 2211TIP3    H128124   3.484   5.221   4.773 -0.3835  0.3314  0.1157
 2211TIP3    H228125   3.422   5.100   4.839 -1.3105  1.2450  0.9463
 2212TIP3   OH228126   5.041   2.706  16.562 -0.1771 -0.7607 -0.0398
 2212TIP3    H128127   5.000   2.620  16.568 -1.4183 -0.3387 -1.7006
 2212TIP3    H228128   5.107   2.697  16.494 -0.4315 -0.3753 -0.3458
 2213TIP3   OH228129   4.872   1.350   4.707 -0.0373 -0.9773 -0.0277
 2213TIP3    H128130   4.860   1.273   4.762 -0.0115  1.0348  3.0770
 2213TIP3    H228131   4.955   1.335   4.663  1.1531 -1.8166  2.2949
 2214TIP3   OH228132   0.120   4.034  11.596 -0.2982 -0.8007 -0.2420
 2214TIP3    H128133   0.171   4.051  11.676 -0.5563 -4.0377  0.7331
 2214TIP3    H228134   0.185   4.042  11.525  0.1666  1.0616  0.3294
 2215TIP3   OH228135   3.124   5.781  14.044 -0.0626  0.4541  0.1545
 2215TIP3    H128136   3.172   5.850  14.090 -2.7564  1.6688  1.3035
 2215TIP3    H228137   3.102   5.718  14.113  1.0688 -0.8743 -0.6340
 2216TIP3   OH228138   0.433   3.970  13.707 -0.0476  0.2120 -0.6007
 2216TIP3    H128139   0.412   3.995  13.617 -0.2235  0.8587 -0.3889
 2216TIP3    H228140   0.389   4.036  13.760  1.2017  0.6561 -0.0813
 2217TIP3   OH228141   3.686   4.819   4.075 -0.5723  0.0781 -0.2473
 2217TIP3    H128142   3.708   4.869   4.154 -0.5102  0.5524 -0.5575
 2217TIP3    H228143   3.669   4.886   4.009 -1.0962 -0.3119 -0.5127
 2218TIP3   OH228144   0.665   1.500  13.613 -0.1051 -0.3517 -0.1807
 2218TIP3    H128145   0.580   1.535  13.587 -1.4055 -2.2325  1.2145
 2218TIP3    H228146   0.663   1.503  13.709  2.3691  1.6095 -0.0992
 2219TIP3   OH228147   5.482   3.653  13.471 -0.7956  0.5199  0.2358
 2219TIP3    H128148   5.400   3.701  13.467 -0.7658  0.6695  1.2743
 2219TIP3    H228149   5.485   3.617  13.559  0.5409  1.0402  0.4235
 2220TIP3   OH228150   6.255   6.657   3.887 -0.2354  0.6003  0.7242
 2220TIP3    H128151   6.328   6.668   3.948  0.0321  1.4728  0.2712
 2220TIP3    H228152   6.280   6.710   3.811  1.1624 -3.2453 -1.7586
 2221TIP3   OH228153   2.396   0.095  15.795  0.1762 -0.1598 -0.5481
 2221TIP3    H128154   2.442   0.137  15.722 -1.2845  0.4458 -1.1815
 2221TIP3    H228155   2.389   0.163  15.861  0.5574 -0.3782 -0.2827
 2222TIP3   OH228156   5.287   0.317   2.351  0.1220 -0.7487  0.1656
 2222TIP3    H128157   5.273   0.409   2.371 -0.0242 -0.4974 -1.0633
 2222TIP3    H228158   5.315   0.315   2.260  1.3235 -1.8195  0.5248
 2223TIP3   OH228159   5.957   0.006  16.325 -0.4646  0.4409 -0.2927
 2223TIP3    H128160   5.914   0.049  16.251 -0.4140  1.6111  0.3283
 2223TIP3    H228161   5.902   0.027  16.400 -0.1943 -0.2300  0.0961
 2224TIP3   OH228162   5.497   5.828  14.672  0.2001 -0.0996  0.0204
 2224TIP3    H128163   5.503   5.817  14.577  1.7907  1.3953 -0.0911
 2224TIP3    H228164   5.404   5.846  14.688 -0.3197 -1.6039 -1.0640
 2225TIP3   OH228165   4.485   3.810   4.263  0.0387 -0.0998 -0.5495
 2225TIP3    H128166   4.492   3.895   4.218  1.5162 -0.6308 -1.3853
 2225TIP3    H228167   4.510   3.829   4.353  1.0045  0.2412 -0.8835
 2226TIP3   OH228168   5.329   4.366   5.765 -0.2324 -0.0613 -0.4952
 2226TIP3    H128169   5.336   4.411   5.681  0.9184 -0.9184 -0.8774
 2226TIP3    H228170   5.410   4.387   5.811 -1.2160  1.1012  0.7963
 2227TIP3   OH228171   5.693   3.101  16.880 -0.0231  0.3972  0.3629
 2227TIP3    H128172   5.611   3.101  16.929 -2.2284  0.8411 -2.9378
 2227TIP3    H228173   5.732   3.186  16.897  0.0945 -0.0118  2.3874
 2228TIP3   OH228174   5.773   6.143   0.253  0.5258 -0.6112 -0.0313
 2228TIP3    H128175   5.755   6.091   0.332 -0.7009 -0.4357 -0.1737
 2228TIP3    H228176   5.733   6.228   0.271  0.7998 -0.3640 -0.5866
 2229TIP3   OH228177   3.422   0.864  13.201  0.3848 -0.3246 -0.0838
 2229TIP3    H128178   3.343   0.821  13.169 -0.1116  0.2475  0.3502
 2229TIP3    H228179   3.429   0.838  13.293  1.0588 -0.8857 -0.2886
 2230TIP3   OH228180   6.392   6.761   5.626  0.4114  0.5129  0.5084
 2230TIP3    H128181   6.310   6.810   5.621  0.5129  0.6348  0.0070
 2230TIP3    H228182   6.398   6.715   5.542  0.5266 -0.0263  0.8057
 2231TIP3   OH228183   1.344   5.193  11.682 -0.5960 -0.9769  0.0514
 2231TIP3    H128184   1.426   5.235  11.657 -1.8495  2.1998  0.8683
 2231TIP3    H228185   1.359   5.100  11.663  1.4533 -0.0239 -4.4479
 2232TIP3   OH228186   6.253   3.500   0.189 -0.2498 -0.1710 -0.3674
 2232TIP3    H128187   6.200   3.524   0.266  0.3520 -0.5348  0.1711
 2232TIP3    H228188   6.196   3.444   0.137 -0.3375 -0.7330  0.3150
 2233TIP3   OH228189   6.414   6.237   2.600  0.7157  0.1668 -0.1902
 2233TIP3    H128190   6.340   6.222   2.659  0.1430  3.3402  0.0743
 2233TIP3    H228191   6.479   6.172   2.626 -1.4129 -1.8179  0.5009
 2234TIP3   OH228192   3.353   1.435   2.323 -0.2165 -0.0494  0.4333
 2234TIP3    H128193   3.382   1.387   2.246  0.0953 -2.7363  2.0945
 2234TIP3    H228194   3.429   1.487   2.349  1.6866 -3.2856  1.9269
 2235TIP3   OH228195   5.266   6.159  11.269 -0.2327  0.3450 -0.9512
 2235TIP3    H128196   5.225   6.120  11.192 -2.8689 -2.3771  1.5859
 2235TIP3    H228197   5.194   6.199  11.318  1.0885  0.6331  0.8825
 2236TIP3   OH228198   0.739   0.576   4.808 -0.5262 -0.1058 -0.3254
 2236TIP3    H128199   0.723   0.491   4.768  0.2379 -0.4376  0.0574
 2236TIP3    H228200   0.652   0.607   4.834 -0.6424 -1.5326  1.0802
 2237TIP3   OH228201   6.275   6.362  15.119 -0.2537 -0.3981 -0.5796
 2237TIP3    H128202   6.195   6.312  15.136 -0.1330 -0.1961  0.7083
 2237TIP3    H228203   6.338   6.327  15.182 -0.3995  1.8726  0.9363
 2238TIP3   OH228204   1.198   5.341  12.354  0.3142 -0.0771  0.0791
 2238TIP3    H128205   1.190   5.285  12.431 -0.2537 -1.3796 -0.8881
 2238TIP3    H228206   1.118   5.394  12.355 -0.1225 -0.7253 -0.0941
 2239TIP3   OH228207   0.041   0.410  17.159 -0.1859 -0.8614 -0.0452
 2239TIP3    H128208   0.127   0.403  17.116  1.6699  3.5002  2.3133
 2239TIP3    H228209   0.053   0.367  17.243 -0.1412  0.0817  0.4421
 2240TIP3   OH228210   6.772   5.858   2.297 -0.2998  0.5211  0.4313
 2240TIP3    H128211   6.678   5.876   2.290 -0.3300  0.3422  0.3880
 2240TIP3    H228212   6.794   5.879   2.388  0.0509  2.6519 -0.0754
 2241TIP3   OH228213   0.324   0.872   4.074  0.8848  0.0312  0.2518
 2241TIP3    H128214   0.331   0.813   4.148 -0.3363 -0.3601  0.0744
 2241TIP3    H228215   0.404   0.856   4.023  2.4358  1.2900  2.1348
 2242TIP3   OH228216   1.105   4.037  15.773  0.0118 -0.4760  0.0142
 2242TIP3    H128217   1.155   3.970  15.819 -0.6358 -1.3429 -0.5064
 2242TIP3    H228218   1.107   4.010  15.681  1.4277  1.3210 -0.5295
 2243TIP3   OH228219   6.228   3.833  12.825  0.4932 -0.6548 -0.0030
 2243TIP3    H128220   6.245   3.808  12.734  0.9885  0.0626 -0.1156
 2243TIP3    H228221   6.150   3.784  12.849  0.1824 -0.6268 -0.9148
 2244TIP3   OH228222   0.672   2.699   5.976 -0.2812  0.2080 -0.1063
 2244TIP3    H128223   0.577   2.698   5.992 -0.5394  0.7103 -1.4292
 2244TIP3    H228224   0.708   2.638   6.040 -1.5144 -0.1031  0.3273
 2245TIP3   OH228225   3.280   5.439   1.565 -0.1147  0.0353  1.3705
 2245TIP3    H128226   3.370   5.457   1.540 -0.4689  1.1776  0.8436
 2245TIP3    H228227   3.286   5.366   1.627  1.0122 -1.0732  0.0226
 2246TIP3   OH228228   3.925   4.618  15.848  0.1215  0.0529 -0.2051
 2246TIP3    H128229   3.863   4.620  15.775 -0.0578 -0.7864 -0.0768
 2246TIP3    H228230   3.990   4.686  15.826 -0.4934  0.5100 -0.6371
 2247TIP3   OH228231   3.309   3.804   1.830  0.0857  0.4154  0.1190
 2247TIP3    H128232   3.234   3.849   1.868  0.0239  1.3981 -1.0881
 2247TIP3    H228233   3.377   3.871   1.825 -0.1033  0.5317 -1.9953
 2248TIP3   OH228234   6.024   2.119  12.045 -0.1639  0.8937 -0.3002
 2248TIP3    H128235   6.087   2.158  12.106  1.4337 -0.1048 -1.2596
 2248TIP3    H228236   6.015   2.184  11.975  0.7870  0.5002 -0.7931
 2249TIP3   OH228237   4.782   6.332   0.284  0.1154  0.3419  0.5307
 2249TIP3    H128238   4.699   6.376   0.303 -0.3350 -0.2159 -0.0749
 2249TIP3    H228239   4.758   6.262   0.223  0.9106 -0.3332  0.9754
 2250TIP3   OH228240   6.685   0.437  16.681 -0.3123 -0.0194  0.2674
 2250TIP3    H128241   6.675   0.497  16.607  0.1168 -1.1681 -0.7480
 2250TIP3    H228242   6.597   0.427  16.716 -0.6750 -0.1683 -0.6536
 2251TIP3   OH228243   1.365   4.366  11.835  0.6955  0.7998 -0.0802
 2251TIP3    H128244   1.321   4.356  11.920 -0.0459  0.7362 -0.4599
 2251TIP3    H228245   1.302   4.333  11.772  2.3383 -1.8599 -0.4503
 2252TIP3   OH228246   1.359   0.935   0.724 -0.1361  0.3039  0.4678
 2252TIP3    H128247   1.427   0.880   0.684  1.3481  1.9179  0.6709
 2252TIP3    H228248   1.352   0.902   0.814 -0.8082 -0.8924  0.0119
 2253TIP3   OH228249   4.461   3.532  13.098  0.3951 -0.2218 -0.0688
 2253TIP3    H128250   4.439   3.580  13.178 -1.5511 -1.4106  0.1802
 2253TIP3    H228251   4.442   3.440  13.119 -1.7831 -0.4007 -2.3341
 2254TIP3   OH228252   3.752   2.685   3.367  0.3741  0.1389  0.3958
 2254TIP3    H128253   3.805   2.606   3.356  0.2486  0.1381 -0.2606
 2254TIP3    H228254   3.773   2.738   3.290  0.8261  0.9645  1.0783
 2255TIP3   OH228255   3.018   1.698  16.249  0.0703 -0.2617 -0.3758
 2255TIP3    H128256   3.106   1.701  16.287  1.2052 -0.8375 -2.7758
 2255TIP3    H228257   2.979   1.782  16.272  1.4797  0.2580  0.2183
 2256TIP3   OH228258   6.193   5.773  15.573 -0.1922 -0.1411  0.4229
 2256TIP3    H128259   6.124   5.757  15.638 -2.3935  0.4542 -1.6216
 2256TIP3    H228260   6.191   5.868  15.558 -1.0929 -0.4543 -1.8287
 2257TIP3   OH228261   5.670   0.878   5.863  0.5375  0.1875  0.5811
 2257TIP3    H128262   5.652   0.970   5.845  2.2913  1.0367  2.6555
 2257TIP3    H228263   5.755   0.861   5.823  0.1159 -0.6115  0.0018
 2258TIP3   OH228264   4.073   5.598  15.317 -0.1370  0.0725  0.0343
 2258TIP3    H128265   4.139   5.659  15.284  0.1252 -0.2644 -0.0626
 2258TIP3    H228266   3.991   5.646  15.310 -0.0690  0.0611 -0.9775
 2259TIP3   OH228267   3.419   2.380   2.692 -0.3016 -0.4078  0.0040
 2259TIP3    H128268   3.492   2.419   2.740 -1.5639 -0.3738  1.9931
 2259TIP3    H228269   3.376   2.323   2.755 -0.7113 -2.1699 -1.7737
 2260TIP3   OH228270   0.966   5.630   2.097 -0.2618 -0.0495 -0.0032
 2260TIP3    H128271   0.885   5.581   2.110 -1.7007  1.3397 -2.8062
 2260TIP3    H228272   0.969   5.693   2.168 -0.1055 -1.9237  1.7266
 2261TIP3   OH228273   3.201   0.705   3.421  0.3765  0.2818 -0.3276
 2261TIP3    H128274   3.249   0.660   3.351 -0.3207  0.3030 -0.8293
 2261TIP3    H228275   3.222   0.798   3.408  0.3838  0.2703 -0.3981
 2262TIP3   OH228276   5.002   2.938   5.287 -0.1174 -0.3591  0.3495
 2262TIP3    H128277   4.919   2.891   5.276 -3.5463  4.6346  1.7398
 2262TIP3    H228278   5.019   2.936   5.382 -0.3094  1.0336  0.4348
 2263TIP3   OH228279   3.950   6.704  16.402  0.0362  0.4696  0.4327
 2263TIP3    H128280   3.969   6.797  16.391 -0.1378  0.7644  2.2375
 2263TIP3    H228281   3.940   6.693  16.497 -1.9775 -1.0088  0.1045
 2264TIP3   OH228282   4.531   3.865  11.451 -0.2535 -0.2151 -0.0419
 2264TIP3    H128283   4.476   3.938  11.420  0.5975  0.6370  0.3909
 2264TIP3    H228284   4.526   3.800  11.381  0.5185  1.0834 -1.3627
 2265TIP3   OH228285   5.586   5.138  15.155 -0.6139 -0.2715  0.3531
 2265TIP3    H128286   5.636   5.220  15.147 -1.0420 -0.1664 -1.7466
 2265TIP3    H228287   5.653   5.071  15.165  0.1060 -0.1803 -2.8411
 2266TIP3   OH228288   4.061   6.798   2.629  0.6317  0.1042  0.0655
 2266TIP3    H128289   4.009   6.805   2.710 -3.0240 -0.1048 -2.0269
 2266TIP3    H228290   4.052   6.707   2.602  2.4885 -0.0302 -0.2214
 2267TIP3   OH228291   5.597   3.898  12.064  0.1775  0.5892 -0.2487
 2267TIP3    H128292   5.671   3.926  12.011  1.0440 -1.4302 -0.2015
 2267TIP3    H228293   5.627   3.818  12.107 -1.9131 -0.1282  0.0115
 2268TIP3   OH228294   0.564   2.937   1.953  0.1670 -0.6196 -0.8701
 2268TIP3    H128295   0.554   2.845   1.975 -1.1452  0.0197  1.6600
 2268TIP3    H228296   0.484   2.960   1.906 -1.7082  0.0911  2.3415
 2269TIP3   OH228297   1.584   1.730   2.206  0.6486 -0.3383 -0.1286
 2269TIP3    H128298   1.578   1.799   2.141 -1.2425 -1.0471 -0.7728
 2269TIP3    H228299   1.566   1.773   2.289 -0.3919 -0.0169 -0.5074
 2270TIP3   OH228300   4.577   6.633   2.815 -0.6668  0.1325  0.1580
 2270TIP3    H128301   4.661   6.609   2.776  0.0296  0.6806  1.2673
 2270TIP3    H228302   4.514   6.575   2.773  0.3295 -0.5928 -0.3851
 2271TIP3   OH228303   6.806   4.442   4.329 -0.0027  0.1908  0.2852
 2271TIP3    H128304   6.830   4.498   4.403 -0.7980 -0.3782  0.9834
 2271TIP3    H228305   6.710   4.447   4.325 -0.1525 -1.6857  0.8196
 2272TIP3   OH228306   2.477   5.819  14.224  0.3322 -0.3725  0.3861
 2272TIP3    H128307   2.497   5.816  14.131  0.0003 -1.0447  0.3278
 2272TIP3    H228308   2.518   5.900  14.255 -1.2851  0.9541 -0.7332
 2273TIP3   OH228309   1.766   6.764   2.355  0.6545  0.8268  0.5973
 2273TIP3    H128310   1.842   6.741   2.409  1.6976 -2.3700 -1.9222
 2273TIP3    H228311   1.709   6.687   2.359  0.1889  0.9629 -1.7176
 2274TIP3   OH228312   0.494   3.723   0.308 -0.1529  0.3770 -0.3654
 2274TIP3    H128313   0.506   3.652   0.372 -1.6408  0.2627 -0.1803
 2274TIP3    H228314   0.406   3.709   0.273 -0.7149  2.4988  0.1044
 2275TIP3   OH228315   5.613   2.191  15.609 -0.1812  0.2613  0.4043
 2275TIP3    H128316   5.607   2.274  15.562  0.5662 -0.2546 -0.6670
 2275TIP3    H228317   5.595   2.213  15.700  0.4414  1.6735  0.2117
 2276TIP3   OH228318   5.115   2.781   3.974 -0.1167  0.0505  0.2367
 2276TIP3    H128319   5.184   2.794   3.909 -0.8590 -0.8593 -0.7745
 2276TIP3    H228320   5.143   2.703   4.022 -0.0322  0.1798  0.4006
 2277TIP3   OH228321   3.193   4.171   2.582 -0.0864  0.5838  0.1789
 2277TIP3    H128322   3.246   4.150   2.505 -0.0255 -0.0036  0.3716
 2277TIP3    H228323   3.244   4.138   2.656  0.1448  1.7006  0.5356
 2278TIP3   OH228324   0.298   2.735   3.478  0.2518  0.4030 -0.0298
 2278TIP3    H128325   0.324   2.804   3.417  0.5021  0.2917 -0.0519
 2278TIP3    H228326   0.204   2.725   3.465  0.3357  0.2341 -0.5502
 2279TIP3   OH228327   4.080   3.836  15.919 -0.8223 -0.0429  0.2074
 2279TIP3    H128328   4.086   3.929  15.941  0.9170  0.2432 -1.2592
 2279TIP3    H228329   3.987   3.821  15.901 -0.9984  1.6060 -0.3389
 2280TIP3   OH228330   2.295   5.237   1.761  0.0266  0.0968  0.5321
 2280TIP3    H128331   2.268   5.293   1.834  0.6444  1.8762 -0.5399
 2280TIP3    H228332   2.220   5.234   1.703 -0.1737 -0.6304  0.8118
 2281TIP3   OH228333   4.475   6.441   3.440 -1.0098 -0.6514 -0.3881
 2281TIP3    H128334   4.435   6.463   3.355 -0.7226 -0.0967 -0.3828
 2281TIP3    H228335   4.401   6.420   3.497 -1.1888 -1.3953 -0.8737
 2282TIP3   OH228336   0.348   5.304  12.048  0.1651  0.7054  0.3167
 2282TIP3    H128337   0.406   5.339  11.981  0.2578  0.1169  0.0805
 2282TIP3    H228338   0.398   5.235  12.091 -0.1782  0.5314  0.4481
 2283TIP3   OH228339   6.201   6.051  11.304 -0.2581  0.8412 -0.5953
 2283TIP3    H128340   6.164   5.965  11.322 -0.8717  1.0171 -1.0046
 2283TIP3    H228341   6.203   6.094  11.390 -0.1641  0.5122 -0.4283
 2284TIP3   OH228342   5.728   2.409   4.222 -0.2643  0.2895  0.1581
 2284TIP3    H128343   5.805   2.464   4.210  0.2767 -0.2843  0.8864
 2284TIP3    H228344   5.654   2.468   4.206  0.3053  1.0834  0.3508
 2285TIP3   OH228345   6.652   6.214   1.586  0.4323 -0.0564 -0.4884
 2285TIP3    H128346   6.607   6.219   1.502  1.1589  0.2115 -0.8662
 2285TIP3    H228347   6.583   6.192   1.649 -0.4751  1.6080 -0.8565
 2286TIP3   OH228348   2.019   4.198   1.412  0.1308  0.6593 -0.0815
 2286TIP3    H128349   2.094   4.237   1.458  1.2301 -0.5649 -0.7525
 2286TIP3    H228350   2.032   4.104   1.422 -1.1000  0.4266 -0.5871
 2287TIP3   OH228351   2.494   3.159  15.701  0.4925 -0.1322  0.2500
 2287TIP3    H128352   2.516   3.131  15.790  0.5311 -0.8200  0.0305
 2287TIP3    H228353   2.434   3.233  15.713 -0.3696 -0.9101  0.8532
 2288TIP3   OH228354   1.074   5.906   1.868  0.4394  0.0199 -0.6083
 2288TIP3    H128355   0.984   5.873   1.865  0.5208 -0.2326 -0.3581
 2288TIP3    H228356   1.110   5.886   1.782  0.0427  0.7377 -0.9480
 2289TIP3   OH228357   4.201   2.286  13.215  0.2003  0.2776  0.0852
 2289TIP3    H128358   4.142   2.354  13.247  1.8884  0.6101  2.8070
 2289TIP3    H228359   4.249   2.329  13.144 -0.8656  0.8998 -0.2851
 2290TIP3   OH228360   3.381   1.626  14.202  0.3501  0.0816  0.3339
 2290TIP3    H128361   3.302   1.572  14.197  0.5638 -0.1408 -1.2886
 2290TIP3    H228362   3.430   1.603  14.123  1.7576  0.6581  1.0068
 2291TIP3   OH228363   6.796   3.614  16.511  0.6882  0.6005 -0.6821
 2291TIP3    H128364   6.820   3.526  16.541  1.6979  0.5641 -1.5561
 2291TIP3    H228365   6.749   3.600  16.429 -2.4305  0.6739  0.9571
 2292TIP3   OH228366   0.457   0.154  13.618 -0.2456  0.2954  0.8820
 2292TIP3    H128367   0.380   0.119  13.572  0.0034 -1.6280  1.8127
 2292TIP3    H228368   0.420   0.215  13.682 -1.0304 -0.6204  1.3335
 2293TIP3   OH228369   5.569   6.629  16.532 -0.1405  0.7232 -0.3957
 2293TIP3    H128370   5.543   6.624  16.624 -0.9428  1.7673 -0.5503
 2293TIP3    H228371   5.503   6.577  16.486  0.0264  0.5420 -0.4324
 2294TIP3   OH228372   3.842   5.125  15.993 -0.0052  0.0791 -0.2508
 2294TIP3    H128373   3.933   5.155  15.993 -0.1527  0.5264 -0.3481
 2294TIP3    H228374   3.833   5.076  16.075  0.0862  0.7573  0.1725
 2295TIP3   OH228375   3.717   5.328   2.814 -0.1450  0.0574 -0.1020
 2295TIP3    H128376   3.790   5.270   2.834 -0.1347 -0.3219 -1.1850
 2295TIP3    H228377   3.711   5.328   2.718 -1.1209  0.6353 -0.0604
 2296TIP3   OH228378   5.390   2.822   2.601  0.2130 -0.4302  0.9156
 2296TIP3    H128379   5.419   2.911   2.578 -2.8427  0.0411 -1.7488
 2296TIP3    H228380   5.455   2.765   2.561 -0.3614  0.6041 -1.6569
 2297TIP3   OH228381   3.586   5.164   1.659  0.1472  0.1700 -0.8367
 2297TIP3    H128382   3.666   5.206   1.691 -1.4165  1.1160  2.2626
 2297TIP3    H228383   3.584   5.079   1.704  0.3312 -0.6860 -2.4037
 2298TIP3   OH228384   1.997   5.544   6.305  0.4879  0.1641 -0.1201
 2298TIP3    H128385   2.068   5.586   6.256 -1.4648 -0.3619 -3.7073
 2298TIP3    H228386   1.930   5.612   6.311 -0.1178 -0.4365 -0.0536
 2299TIP3   OH228387   2.068   2.382   4.605 -0.0614  0.2480  0.0935
 2299TIP3    H128388   2.135   2.379   4.673  0.3487 -1.3483 -0.3386
 2299TIP3    H228389   2.057   2.475   4.586  0.0990  0.6954  2.0413
 2300TIP3   OH228390   2.699   6.661   5.668  0.0476 -0.2179  0.0591
 2300TIP3    H128391   2.754   6.662   5.591  0.5867 -0.2333  0.4400
 2300TIP3    H228392   2.717   6.577   5.711  0.2621  0.0723  0.5555
 2301TIP3   OH228393   0.029   6.798   4.715  0.2113  0.0087  0.6361
 2301TIP3    H128394   0.091   6.726   4.727  0.5591 -0.3302 -2.3887
 2301TIP3    H228395   0.080   6.877   4.732  0.8331 -0.3373  0.4082
 2302TIP3   OH228396   4.661   2.225  13.381  0.1859  0.4591  0.0912
 2302TIP3    H128397   4.623   2.235  13.294  0.7976  1.0625 -0.1188
 2302TIP3    H228398   4.730   2.159  13.370 -0.3730 -0.1722  0.3333
 2303TIP3   OH228399   6.153   2.886   4.659  0.2368 -0.5374 -0.0310
 2303TIP3    H128400   6.082   2.835   4.697  0.7187 -0.1520  1.4685
 2303TIP3    H228401   6.221   2.821   4.639  0.5133 -0.6117  1.0798
 2304TIP3   OH228402   6.013   6.738  12.001 -0.6768 -0.1193  0.3804
 2304TIP3    H128403   6.011   6.757  12.095 -2.3254  1.1234  0.1467
 2304TIP3    H228404   5.989   6.646  11.995  2.2681 -1.0529  1.2816
 2305TIP3   OH228405   5.852   5.807  12.197 -0.1432 -0.2971 -0.9038
 2305TIP3    H128406   5.838   5.831  12.106  0.3626 -1.1422 -1.2184
 2305TIP3    H228407   5.791   5.862  12.246 -0.2397  0.3538 -1.7231
 2306TIP3   OH228408   2.253   2.380   0.859 -0.3724  0.4602 -0.2696
 2306TIP3    H128409   2.210   2.446   0.805  0.5173 -0.8006 -2.6510
 2306TIP3    H228410   2.327   2.425   0.898 -1.5380  1.6235  0.6593
 2307TIP3   OH228411   1.068   0.559  12.008  0.0139  0.3193  0.2359
 2307TIP3    H128412   0.978   0.530  12.028 -0.7409  2.0611 -0.4076
 2307TIP3    H228413   1.108   0.484  11.963 -0.4507 -1.2017  2.1845
 2308TIP3   OH228414   5.978   5.082  13.186  0.0947 -0.3063  0.4130
 2308TIP3    H128415   5.975   5.018  13.258  3.2940 -0.3847  0.6510
 2308TIP3    H228416   6.051   5.052  13.131  1.3573  2.7661  0.2110
 2309TIP3   OH228417   1.192   4.051   4.196 -0.0012 -0.2576  0.4031
 2309TIP3    H128418   1.203   4.111   4.122 -0.7176 -0.0716  0.4429
 2309TIP3    H228419   1.275   4.058   4.244 -0.0055  0.5757  0.3082
 2310TIP3   OH228420   5.069   4.963   3.806  0.0025 -0.1569 -0.1904
 2310TIP3    H128421   5.091   5.047   3.845 -0.0168 -1.1016  1.9598
 2310TIP3    H228422   5.148   4.910   3.816 -0.2687 -0.6821 -0.7153
 2311TIP3   OH228423   3.569   2.608  15.360 -0.5823  0.2051 -0.3213
 2311TIP3    H128424   3.640   2.620  15.298  0.1244 -0.6176  0.3018
 2311TIP3    H228425   3.594   2.530  15.410 -0.9023  1.0881  1.2787
 2312TIP3   OH228426   1.991   4.283   5.958 -0.0896 -0.2612  0.0798
 2312TIP3    H128427   2.017   4.360   6.010 -1.5392  0.7648 -0.6496
 2312TIP3    H228428   1.959   4.220   6.022 -0.5696  0.4527  0.5557
 2313TIP3   OH228429   3.067   0.055  15.707 -0.8449  0.0167 -0.4216
 2313TIP3    H128430   3.114  -0.018  15.666 -3.5672 -1.0642 -1.8973
 2313TIP3    H228431   3.089   0.131  15.654 -0.1684 -0.2808 -0.5828
 2314TIP3   OH228432   1.432   0.584   6.118 -0.4072  0.8080 -0.4441
 2314TIP3    H128433   1.496   0.629   6.174 -0.8946  0.3111  0.5427
 2314TIP3    H228434   1.353   0.580   6.172 -0.7929  0.0310 -1.0608
 2315TIP3   OH228435   3.159   3.212   4.921  0.3016  0.3536  0.2576
 2315TIP3    H128436   3.234   3.236   4.976  0.9459 -2.2888  0.6556
 2315TIP3    H228437   3.141   3.121   4.943 -0.1641 -0.4956 -3.0454
 2316TIP3   OH228438   2.125   4.571   3.723  0.4618  0.5117  0.5067
 2316TIP3    H128439   2.083   4.635   3.780  0.8651  0.7262  0.5623
 2316TIP3    H228440   2.208   4.611   3.697  0.6139  0.1124  0.3558
 2317TIP3   OH228441   0.188   6.617  11.346 -0.7314  0.0566 -0.3348
 2317TIP3    H128442   0.271   6.648  11.312 -0.4620 -0.5230 -0.2195
 2317TIP3    H228443   0.193   6.522  11.340  0.0770 -0.2471  2.9214
 2318TIP3   OH228444   0.916   4.612  12.145 -0.5981 -0.3555 -0.1749
 2318TIP3    H128445   0.874   4.527  12.160  2.1301 -1.4638  2.0497
 2318TIP3    H228446   0.882   4.668  12.214 -1.2574 -0.0900 -0.7109
 2319TIP3   OH228447   2.749   5.680  15.205  0.0370  0.4191 -0.0661
 2319TIP3    H128448   2.748   5.756  15.147  0.6760 -0.0848 -0.7472
 2319TIP3    H228449   2.813   5.702  15.272  0.1201  0.5377 -0.1850
 2320TIP3   OH228450   5.255   3.011   2.968  0.8625  0.1281  0.2450
 2320TIP3    H128451   5.206   3.092   2.954  0.1840  0.1264  2.3182
 2320TIP3    H228452   5.295   2.992   2.883  0.0453  1.9699 -0.5966
 2321TIP3   OH228453   1.907   2.799  15.142 -0.4210  0.2912 -0.3562
 2321TIP3    H128454   1.856   2.860  15.195 -0.2450 -0.1185  0.3046
 2321TIP3    H228455   1.846   2.768  15.076 -2.1284 -2.6315  2.3027
 2322TIP3   OH228456   6.296   1.424   2.501 -0.1822 -0.1268  0.3846
 2322TIP3    H128457   6.279   1.337   2.537  0.2269  0.1756  1.3272
 2322TIP3    H228458   6.347   1.408   2.422 -1.2467 -0.8092 -0.1836
 2323TIP3   OH228459   1.812   5.597   4.599  0.1691  0.3663  0.7812
 2323TIP3    H128460   1.866   5.674   4.616  1.3165 -0.1571 -0.3723
 2323TIP3    H228461   1.776   5.573   4.685  1.4694  0.9430  1.5069
 2324TIP3   OH228462   0.849   2.567  17.096  0.3935 -0.1691 -0.3793
 2324TIP3    H128463   0.906   2.583  17.171 -0.2085 -1.6421  0.4507
 2324TIP3    H228464   0.770   2.529  17.134 -1.0626  1.5586 -1.5169
 2325TIP3   OH228465   1.183   0.957   2.947  0.2057 -0.2778 -0.1572
 2325TIP3    H128466   1.124   0.932   2.876  0.4440  1.3387 -0.9683
 2325TIP3    H228467   1.231   1.032   2.913  0.7195  0.2038  1.5364
 2326TIP3   OH228468   1.517   3.334   0.050  0.2529 -0.5234  0.1138
 2326TIP3    H128469   1.523   3.394   0.124  1.6596 -1.5283  0.8735
 2326TIP3    H228470   1.440   3.281   0.068  0.7311 -0.9427  1.0502
 2327TIP3   OH228471   0.524   3.662   1.795  0.2865  0.1272  0.4964
 2327TIP3    H128472   0.614   3.676   1.826  0.1242  0.0169  1.0342
 2327TIP3    H228473   0.510   3.568   1.807 -0.3161  0.3394  1.5862
 2328TIP3   OH228474   2.268   0.799   6.320 -0.4478 -0.7757 -0.5712
 2328TIP3    H128475   2.234   0.887   6.336 -1.8999 -1.5177  0.6439
 2328TIP3    H228476   2.322   0.779   6.396 -2.5379 -2.0291  0.6653
 2329TIP3   OH228477   3.242   3.982   4.321 -0.0897  0.2617 -0.1246
 2329TIP3    H128478   3.259   4.063   4.368  0.4319 -0.5396  1.1240
 2329TIP3    H228479   3.259   3.913   4.385 -2.0721 -0.8082 -0.6480
 2330TIP3   OH228480   6.032   3.142   2.295 -0.0309 -0.3749 -0.2343
 2330TIP3    H128481   6.107   3.192   2.263 -0.4143  1.2525  1.2768
 2330TIP3    H228482   5.976   3.130   2.217  1.7475 -1.6541 -1.3911
 2331TIP3   OH228483   0.692   6.463   0.020 -0.1452  0.4528  0.2806
 2331TIP3    H128484   0.763   6.508   0.066 -1.2385  1.2364  1.2690
 2331TIP3    H228485   0.637   6.534  -0.014 -1.1926 -0.1165  0.7330
 2332TIP3   OH228486   5.515   0.084  17.243  0.3601  0.0941 -0.1160
 2332TIP3    H128487   5.578   0.039  17.300 -0.9431 -1.9710 -0.1936
 2332TIP3    H228488   5.448   0.117  17.303 -1.0301 -2.1095 -0.3376
 2333TIP3   OH228489   0.115   0.349  15.887  0.0601 -0.0441  0.2891
 2333TIP3    H128490   0.034   0.360  15.937  1.0179 -1.9297  2.4136
 2333TIP3    H228491   0.091   0.293  15.814 -1.0275  1.4044 -0.5073
 2334TIP3   OH228492   4.220   2.331   0.968 -0.1615 -0.0735 -0.3511
 2334TIP3    H128493   4.155   2.268   0.937  1.3828 -2.0028  0.1630
 2334TIP3    H228494   4.287   2.331   0.900  1.1728 -1.0878  0.9224
 2335TIP3   OH228495   4.995   6.792  13.914 -0.2009  0.1402 -0.1148
 2335TIP3    H128496   5.059   6.862  13.915  0.4053 -0.4032 -0.5312
 2335TIP3    H228497   5.044   6.713  13.937 -0.8033 -0.2112  0.0067
 2336TIP3   OH228498   4.718   5.195   2.322  0.3235  0.1376 -0.8283
 2336TIP3    H128499   4.678   5.230   2.401  0.7727  0.5485 -0.7746
 2336TIP3    H228500   4.679   5.108   2.311  0.4988 -0.0547  0.0224
 2337TIP3   OH228501   0.810   2.801  16.942 -0.1754 -0.0024 -0.0497
 2337TIP3    H128502   0.849   2.722  16.980 -2.2483 -2.0467 -1.8691
 2337TIP3    H228503   0.772   2.846  17.017  1.2625 -0.5586  1.0790
 2338TIP3   OH228504   1.829   6.743  17.082 -0.6519 -0.4767 -0.7611
 2338TIP3    H128505   1.873   6.806  17.140  0.3558  0.6035 -2.6168
 2338TIP3    H228506   1.900   6.689  17.048 -1.3830 -1.9057 -0.1028
 2339TIP3   OH228507   3.964   5.916   2.540 -0.1577 -0.3492 -0.0306
 2339TIP3    H128508   4.044   5.925   2.592 -0.5405  1.2479  0.3387
 2339TIP3    H228509   3.960   5.823   2.519  0.8958 -0.7591  1.3786
 2340TIP3   OH228510   3.771   3.609   0.091 -0.2464 -0.2474  0.1606
 2340TIP3    H128511   3.860   3.573   0.091 -0.3731 -0.5719  0.0333
 2340TIP3    H228512   3.781   3.699   0.063  0.1066 -0.1143  0.6879
 2341TIP3   OH228513   3.206   4.391   5.989  0.4561  0.1828 -0.0301
 2341TIP3    H128514   3.254   4.310   5.975  0.7152 -0.0964  2.0991
 2341TIP3    H228515   3.235   4.422   6.075 -2.1551  0.7015  0.7640
 2342TIP3   OH228516   1.861   1.875  14.782 -0.6218  0.1510  0.2181
 2342TIP3    H128517   1.914   1.828  14.718 -1.3284  0.7418 -0.8324
 2342TIP3    H228518   1.806   1.808  14.822  0.7944 -0.4527  1.2450
 2343TIP3   OH228519   0.513   6.008  15.898  0.3428 -0.1984  0.1535
 2343TIP3    H128520   0.584   5.961  15.942  1.2061 -1.9313 -2.7844
 2343TIP3    H228521   0.548   6.095  15.882  0.2270  0.2831  2.1773
 2344TIP3   OH228522   5.497   4.509  13.518  0.2415 -0.3019 -0.0599
 2344TIP3    H128523   5.408   4.485  13.490  0.0640 -0.1479  0.3571
 2344TIP3    H228524   5.546   4.517  13.437 -0.1914 -0.1466 -0.3119
 2345TIP3   OH228525   0.319   2.957   3.891  0.4676  0.4848 -0.1111
 2345TIP3    H128526   0.228   2.964   3.863  0.6164  0.5115 -0.5944
 2345TIP3    H228527   0.338   3.042   3.931  0.5620  0.8209 -0.8607
 2346TIP3   OH228528   1.933   2.658  11.594 -0.2587  0.0695  0.1870
 2346TIP3    H128529   1.849   2.659  11.641  0.2985 -1.0278  1.2906
 2346TIP3    H228530   1.938   2.743  11.552 -1.1468  0.8322  1.5339
 2347TIP3   OH228531   3.991   1.298   2.066  0.4636 -0.0248 -0.2303
 2347TIP3    H128532   3.973   1.248   2.146 -0.3563 -0.3536 -0.6113
 2347TIP3    H228533   3.994   1.232   1.997  0.8449  0.2950 -0.5234
 2348TIP3   OH228534   2.882   5.884   0.134 -0.6913 -0.3048  0.2711
 2348TIP3    H128535   2.812   5.851   0.191 -1.5263 -0.3453 -0.7356
 2348TIP3    H228536   2.956   5.825   0.149 -0.7881 -0.1101  1.5451
 2349TIP3   OH228537   1.628   2.430   0.154 -0.6623  0.0712  1.2999
 2349TIP3    H128538   1.546   2.417   0.201 -1.3634  1.1089  0.4171
 2349TIP3    H228539   1.685   2.476   0.216 -1.0095  0.0130  1.6619
 2350TIP3   OH228540   4.395   5.405  11.795 -0.1216  0.3459 -0.4126
 2350TIP3    H128541   4.456   5.473  11.768  1.1625 -0.3728  0.5254
 2350TIP3    H228542   4.388   5.416  11.890  0.6693 -1.2202 -0.1340
 2351TIP3   OH228543   0.418   0.166   4.249  0.2526  0.1060 -0.2868
 2351TIP3    H128544   0.460   0.186   4.165  2.3924 -0.0209  0.6960
 2351TIP3    H228545   0.443   0.239   4.306 -1.0736  0.1313  0.3000
 2352TIP3   OH228546   6.069   4.027   4.877 -0.6942 -0.5516 -0.1835
 2352TIP3    H128547   6.034   4.114   4.859  0.4406  0.0620  0.3986
 2352TIP3    H228548   6.104   3.997   4.794 -1.7093 -0.7637 -0.5465
 2353TIP3   OH228549   5.673   5.628  15.194 -0.7067  0.9078  0.8568
 2353TIP3    H128550   5.610   5.699  15.189 -1.6556  0.0597  0.5554
 2353TIP3    H228551   5.633   5.564  15.253 -0.4560  0.0482  0.1168
 2354TIP3   OH228552   4.132   0.590  15.638 -0.0010 -0.0928 -0.2085
 2354TIP3    H128553   4.085   0.558  15.561 -0.2235  0.7695 -0.4465
 2354TIP3    H228554   4.221   0.556  15.628  0.0511  0.2527 -1.0052
 2355TIP3   OH228555   0.652   1.177  11.903 -0.0042  0.1476 -0.0913
 2355TIP3    H128556   0.612   1.130  11.831 -1.3027 -0.1926  0.8132
 2355TIP3    H228557   0.612   1.140  11.982  1.1763  0.6807  0.7984
 2356TIP3   OH228558   2.143   0.103  16.365 -0.0080  1.0917  0.0080
 2356TIP3    H128559   2.214   0.040  16.375 -1.5675 -0.9115 -0.8722
 2356TIP3    H228560   2.134   0.114  16.270 -1.3967  0.6607  0.0687
 2357TIP3   OH228561   2.637   4.141  14.612  0.2870  0.3424 -0.1576
 2357TIP3    H128562   2.692   4.215  14.638 -0.4020 -0.1613  3.2325
 2357TIP3    H228563   2.549   4.165  14.642 -1.2261  0.5230 -4.1604
 2358TIP3   OH228564   2.349   3.193   4.189  0.1588 -0.9720  0.0009
 2358TIP3    H128565   2.320   3.238   4.268  0.7698  0.3589 -0.4866
 2358TIP3    H228566   2.269   3.181   4.138  0.1119  0.6928 -0.3766
 2359TIP3   OH228567   0.233   4.314   6.437  0.2793  0.1816 -0.2170
 2359TIP3    H128568   0.254   4.222   6.449 -0.5155  0.0557  0.3202
 2359TIP3    H228569   0.280   4.359   6.508 -1.4058 -0.1308  1.1606
 2360TIP3   OH228570   1.415   4.076   0.393 -0.2548 -0.1879 -0.2185
 2360TIP3    H128571   1.360   4.018   0.446  0.8366  0.6497  1.9608
 2360TIP3    H228572   1.371   4.161   0.397  0.2411  0.0654  0.0524
 2361TIP3   OH228573   4.952   2.192   5.090 -0.4170 -0.9953 -0.5283
 2361TIP3    H128574   4.957   2.247   5.012  0.8569  0.4971  0.5498
 2361TIP3    H228575   5.013   2.120   5.074 -0.9249 -1.2717 -1.2913
 2362TIP3   OH228576   6.131   1.718   1.475  0.1336  0.0103  0.1949
 2362TIP3    H128577   6.137   1.811   1.458 -2.2944  0.0908 -0.5912
 2362TIP3    H228578   6.037   1.700   1.481  0.5501 -2.1426  1.7574
 2363TIP3   OH228579   4.160   2.985  10.950 -0.5689 -0.3914 -0.2791
 2363TIP3    H128580   4.194   2.902  10.986  1.1782  0.5536  0.3903
 2363TIP3    H228581   4.072   2.992  10.986  0.0287 -0.9589  1.4066
 2364TIP3   OH228582   3.931   3.275   1.275 -0.1459  0.1519 -0.6775
 2364TIP3    H128583   3.957   3.256   1.185  0.3418  0.2428 -0.5583
 2364TIP3    H228584   4.013   3.284   1.323 -0.3843 -1.2235  0.0577
 2365TIP3   OH228585   6.802   2.818  11.709 -0.3682  0.3150  0.2766
 2365TIP3    H128586   6.793   2.763  11.631 -0.9201  0.7975 -0.0026
 2365TIP3    H228587   6.872   2.776  11.759 -0.6424 -0.5323 -0.0311
 2366TIP3   OH228588   6.339   3.946   1.418  0.2300 -0.0222 -0.1899
 2366TIP3    H128589   6.432   3.939   1.440  0.5309  0.6629 -1.1896
 2366TIP3    H228590   6.307   3.856   1.417  0.6593 -0.2141  1.0420
 2367TIP3   OH228591   0.989   0.735   1.070 -0.0322  0.5727  0.4547
 2367TIP3    H128592   1.015   0.823   1.098  0.7618 -0.1619  2.1606
 2367TIP3    H228593   1.063   0.703   1.020 -1.2699  1.7099 -2.3375
 2368TIP3   OH228594   3.549   6.399   1.567  0.5221 -0.2137 -0.0291
 2368TIP3    H128595   3.549   6.469   1.633  0.8661  0.0502 -0.3031
 2368TIP3    H228596   3.457   6.378   1.555  0.3265  0.9305 -0.7081
 2369TIP3   OH228597   1.299   4.610   2.119  0.4473  0.1262  0.7601
 2369TIP3    H128598   1.250   4.655   2.051 -1.6908 -1.1919  1.3368
 2369TIP3    H228599   1.349   4.542   2.073  0.4811  0.4350  0.3355
 2370TIP3   OH228600   0.072   4.199  14.001  0.1849 -0.7090 -0.2798
 2370TIP3    H128601   0.043   4.113  14.030 -0.1791 -0.8177 -0.9666
 2370TIP3    H228602   0.003   4.230  13.942 -1.0398  1.1732  1.9252
 2371TIP3   OH228603   4.617   3.431   1.436  0.0618  0.1312  0.1521
 2371TIP3    H128604   4.612   3.337   1.416  1.5999  0.3382 -1.3777
 2371TIP3    H228605   4.549   3.470   1.381  0.8537  0.1325 -0.8434
 2372TIP3   OH228606   1.927   1.076  11.001 -0.6380 -0.3838 -0.3531
 2372TIP3    H128607   1.967   1.020  11.068 -0.3960  0.9139  0.6158
 2372TIP3    H228608   1.833   1.062  11.012 -0.5607 -1.5500 -0.9846
 2373TIP3   OH228609   2.942   1.132  12.420 -0.4059  0.6258  0.2012
 2373TIP3    H128610   3.026   1.116  12.464  0.7186 -0.8504 -2.2438
 2373TIP3    H228611   2.877   1.089  12.475  0.9947 -1.5752  0.2838
 2374TIP3   OH228612   5.642   5.909  17.290  0.2034 -0.7352 -0.5546
 2374TIP3    H128613   5.596   5.827  17.273  0.1102 -0.7895 -0.0489
 2374TIP3    H228614   5.614   5.935  17.378 -0.9505  0.6118 -1.2728
 2375TIP3   OH228615   0.444   5.724   1.175 -0.1087 -0.3972 -0.1917
 2375TIP3    H128616   0.393   5.644   1.164  0.9176 -0.8350 -2.2091
 2375TIP3    H228617   0.383   5.786   1.214 -1.7422 -1.3277 -1.1528
 2376TIP3   OH228618   3.456   1.113  12.084 -0.0725 -0.8098 -0.2470
 2376TIP3    H128619   3.370   1.075  12.066 -0.4923 -0.6811  1.2900
 2376TIP3    H228620   3.440   1.208  12.085  0.5669 -0.6498 -2.1445
 2377TIP3   OH228621   5.997   5.633   4.649 -0.3133  0.1078  0.3679
 2377TIP3    H128622   5.907   5.619   4.678 -0.4167  3.1641  1.8276
 2377TIP3    H228623   5.993   5.624   4.554 -2.0412 -0.2949  0.4466
 2378TIP3   OH228624   5.814   4.812  11.180 -0.3786  0.2999  0.6870
 2378TIP3    H128625   5.764   4.883  11.140  0.2994 -0.4329 -1.5728
 2378TIP3    H228626   5.774   4.732  11.145  0.7284 -0.3521  0.8720
 2379TIP3   OH228627   3.137   1.414   1.654 -0.3798  0.0878  0.6041
 2379TIP3    H128628   3.225   1.441   1.680 -1.4910  3.4748  1.4889
 2379TIP3    H228629   3.145   1.392   1.561  1.4412  0.0293  0.7379
 2380TIP3   OH228630   3.035   5.696   0.982 -0.2535  0.2271 -0.0279
 2380TIP3    H128631   2.995   5.783   0.985 -0.1881  0.2312  1.8655
 2380TIP3    H228632   3.123   5.712   0.947  0.3154  1.2133  1.6990
 2381TIP3   OH228633   5.899   5.837  11.717 -0.0837 -0.2829  0.2765
 2381TIP3    H128634   5.884   5.926  11.687  0.0963 -0.7437 -1.2585
 2381TIP3    H228635   5.835   5.825  11.788 -1.3524  0.4815 -0.6894
 2382TIP3   OH228636   5.462   1.815   2.748 -0.4944 -1.3407 -0.2376
 2382TIP3    H128637   5.465   1.733   2.797 -1.6469 -1.5793 -0.5566
 2382TIP3    H228638   5.407   1.873   2.800 -0.9671 -1.2888 -0.7826
 2383TIP3   OH228639   0.543   6.439  11.895  0.1912 -0.8502  0.5241
 2383TIP3    H128640   0.589   6.394  11.966 -0.2256 -2.5224 -0.2128
 2383TIP3    H228641   0.452   6.411  11.904 -0.0122 -0.4460 -0.2079
 2384TIP3   OH228642   6.273   3.463   2.745 -0.3870 -0.2804 -0.3651
 2384TIP3    H128643   6.191   3.472   2.794 -1.3641 -0.4455 -1.8895
 2384TIP3    H228644   6.262   3.523   2.671  0.6126 -0.7837 -0.9278
 2385TIP3   OH228645   2.558   3.948   1.210 -0.5789 -0.3072  0.0701
 2385TIP3    H128646   2.480   3.952   1.155 -1.8426 -0.9889  1.7148
 2385TIP3    H228647   2.630   3.936   1.149 -1.8833 -0.8339 -1.4375
 2386TIP3   OH228648   6.322   1.742  12.200 -0.8982 -0.1635  0.0607
 2386TIP3    H128649   6.328   1.676  12.130 -0.6656 -0.1072  0.0251
 2386TIP3    H228650   6.234   1.778  12.192 -1.3900 -1.1601  0.7003
 2387TIP3   OH228651   4.543   6.277   2.248  0.0741  0.0141 -0.5128
 2387TIP3    H128652   4.469   6.304   2.193 -0.0530  0.5011 -0.1064
 2387TIP3    H228653   4.613   6.339   2.227 -0.0240  0.2995 -0.0216
 2388TIP3   OH228654   0.143   6.505  12.377 -0.1603  0.6045 -0.1105
 2388TIP3    H128655   0.138   6.414  12.348  0.7357  1.1437 -2.2024
 2388TIP3    H228656   0.224   6.511  12.427  0.2729  0.4368 -0.7841
 2389TIP3   OH228657   0.309   2.819  16.887 -0.0263  0.7176  0.8090
 2389TIP3    H128658   0.241   2.801  16.822  0.9540  2.5527 -0.8160
 2389TIP3    H228659   0.387   2.776  16.853 -0.1275 -0.7920  2.3187
 2390TIP3   OH228660   4.823   0.879   0.152 -0.2541  0.5228  0.0397
 2390TIP3    H128661   4.778   0.948   0.103 -1.7045 -0.3112  0.1350
 2390TIP3    H228662   4.752   0.829   0.193  0.8079 -0.4463  0.7491
 2391TIP3   OH228663   3.060   2.157   3.024 -0.4299 -0.1938 -0.2191
 2391TIP3    H128664   3.101   2.168   2.939  0.4276 -1.0118  0.0737
 2391TIP3    H228665   3.060   2.063   3.040 -3.7155 -0.4127 -0.7915
 2392TIP3   OH228666   3.309   5.860  15.132  0.4581  0.2429 -0.0418
 2392TIP3    H128667   3.334   5.788  15.190 -1.8211 -1.5899 -1.1556
 2392TIP3    H228668   3.369   5.853  15.058  1.7733  1.0230  0.9253
 2393TIP3   OH228669   5.407   1.229  16.859  0.1067 -0.2026 -0.3384
 2393TIP3    H128670   5.431   1.245  16.768 -0.2266  1.2191 -0.1939
 2393TIP3    H228671   5.335   1.166  16.854 -0.6336  0.6828 -1.1221
 2394TIP3   OH228672   4.261   5.432   0.633  0.1965  0.2978  0.3618
 2394TIP3    H128673   4.277   5.339   0.651  0.0052  0.4959  1.6290
 2394TIP3    H228674   4.168   5.436   0.612 -1.0719  0.7927  5.0724
 2395TIP3   OH228675   0.756   6.490  16.391  0.0899 -0.0124  0.5158
 2395TIP3    H128676   0.783   6.400  16.412  1.3724  0.0133 -0.8500
 2395TIP3    H228677   0.665   6.495  16.421  0.0562 -1.7014  0.8074
 2396TIP3   OH228678   1.443   0.017   3.422  0.0062  0.0239  0.1472
 2396TIP3    H128679   1.500  -0.059   3.407 -1.4121 -0.9448 -0.6004
 2396TIP3    H228680   1.445   0.065   3.339 -1.2558 -0.7447 -0.3634
 2397TIP3   OH228681   2.843   3.060   2.493 -0.6667 -0.4338 -0.0379
 2397TIP3    H128682   2.797   3.083   2.412  0.1054  0.6837 -0.1801
 2397TIP3    H228683   2.773   3.052   2.558 -1.0799  1.5966 -0.1677
 2398TIP3   OH228684   3.396   2.215   6.016 -0.6854  0.5251 -0.6201
 2398TIP3    H128685   3.486   2.206   6.047 -0.3966 -1.7161 -1.8671
 2398TIP3    H228686   3.398   2.295   5.962  1.1129 -0.4570 -2.1712
 2399TIP3   OH228687   6.694   1.246   2.209 -0.5694 -0.2660 -0.4976
 2399TIP3    H128688   6.705   1.266   2.116  3.0444  1.1606  0.0588
 2399TIP3    H228689   6.778   1.209   2.235 -1.6165 -1.0053  2.1479
 2400TIP3   OH228690   4.012   0.308  14.825 -0.2210  0.0848  0.1585
 2400TIP3    H128691   3.982   0.337  14.911 -1.5322  1.0368 -0.5830
 2400TIP3    H228692   3.934   0.312  14.769  1.2691  3.0740 -1.9995
 2401TIP3   OH228693   4.544   3.806  15.897 -0.0099 -0.2757  0.0365
 2401TIP3    H128694   4.563   3.725  15.945  0.2384  0.1416  0.6519
 2401TIP3    H228695   4.453   3.796  15.868 -0.1062 -0.6028  0.4500
 2402TIP3   OH228696   3.349   0.669  16.664  0.6375  0.1003  0.1763
 2402TIP3    H128697   3.360   0.723  16.743  1.9898 -0.8330  0.6770
 2402TIP3    H228698   3.420   0.696  16.607  0.7441 -0.4789  0.0340
 2403TIP3   OH228699   4.352   6.090  15.614  0.5827  0.4062 -0.0253
 2403TIP3    H128700   4.345   6.002  15.576 -1.1916  1.3192 -2.0211
 2403TIP3    H228701   4.430   6.086  15.669  3.1066 -1.2394 -3.3367
 2404TIP3   OH228702   4.559   2.751   5.685  0.0231  0.1224 -0.6242
 2404TIP3    H128703   4.654   2.737   5.693  0.0692  0.8135  0.2711
 2404TIP3    H228704   4.525   2.670   5.649  1.0771  0.1973 -1.8612
 2405TIP3   OH228705   1.519   2.145  15.570 -0.1358 -0.7635  0.6003
 2405TIP3    H128706   1.457   2.092  15.521 -0.7776  2.5201 -2.5293
 2405TIP3    H228707   1.604   2.127  15.529  0.2181 -1.6576  1.6735
 2406TIP3   OH228708   6.210   3.615  14.391  0.0780 -0.5496  0.1977
 2406TIP3    H128709   6.162   3.613  14.308 -1.0835 -0.9522  0.8508
 2406TIP3    H228710   6.302   3.607  14.366 -0.2985 -1.3003 -1.0230
 2407TIP3   OH228711   3.323   2.647  16.762 -0.1440  0.3426 -0.2713
 2407TIP3    H128712   3.253   2.711  16.769  0.5715  1.0823  0.3256
 2407TIP3    H228713   3.279   2.562  16.762 -0.9738  0.7436  1.3684
 2408TIP3   OH228714   2.090   0.722   6.574  0.0425 -0.0420  0.1041
 2408TIP3    H128715   2.151   0.657   6.541 -0.3680  0.7934 -2.5524
 2408TIP3    H228716   2.145   0.790   6.612  0.5735 -0.8178  0.7553
 2409TIP3   OH228717   1.522   5.187   1.318  0.4595 -0.4425  0.4710
 2409TIP3    H128718   1.440   5.232   1.340  0.2034 -0.0124 -1.2217
 2409TIP3    H228719   1.494   5.100   1.289  0.5892 -0.3271 -0.0169
 2410TIP3   OH228720   2.768   1.752   0.082 -0.1037 -0.0723 -0.0487
 2410TIP3    H128721   2.692   1.694   0.092  0.7591 -0.9970  1.6546
 2410TIP3    H228722   2.843   1.693   0.083  0.7856  1.0189  1.4252
 2411TIP3   OH228723   6.169   5.730   4.138 -0.2949  0.1754  0.4321
 2411TIP3    H128724   6.173   5.719   4.043 -0.0335 -1.1630  0.5858
 2411TIP3    H228725   6.258   5.755   4.164 -0.2474  0.0677  0.3738
 2412TIP3   OH228726   5.386   3.842  17.013  0.0383 -0.1666  0.3818
 2412TIP3    H128727   5.344   3.808  17.091 -0.0909  1.2804  0.9768
 2412TIP3    H228728   5.450   3.905  17.046 -0.0857  0.5366 -0.6629
 2413TIP3   OH228729   2.835   5.261  12.364 -0.5087 -0.8799  0.1874
 2413TIP3    H128730   2.847   5.268  12.458 -2.2017 -2.6583  0.5782
 2413TIP3    H228731   2.786   5.180  12.351 -0.9629 -0.3092 -2.1719
 2414TIP3   OH228732   0.670   4.255  15.458 -1.0892  0.0784  0.4359
 2414TIP3    H128733   0.578   4.281  15.462 -1.1087  0.5924 -1.8932
 2414TIP3    H228734   0.700   4.285  15.372  0.8182 -1.5345  0.4603
 2415TIP3   OH228735   3.500   2.017   0.215  0.4827 -0.6984  0.3938
 2415TIP3    H128736   3.544   2.099   0.238  0.1223  0.0678 -1.4208
 2415TIP3    H228737   3.567   1.965   0.173  0.3328 -0.6787  0.1292
 2416TIP3   OH228738   5.348   3.032  14.407  0.1576  0.3509 -0.3501
 2416TIP3    H128739   5.343   2.954  14.462  0.0510  1.2147  0.9037
 2416TIP3    H228740   5.257   3.055  14.389  0.0916  1.4679  1.2036
 2417TIP3   OH228741   0.404   0.003   3.294 -0.0296 -0.8853  0.6044
 2417TIP3    H128742   0.493  -0.022   3.271  0.1219 -0.1211  0.3537
 2417TIP3    H228743   0.396   0.095   3.268 -0.1837 -0.2753  2.6360
 2418TIP3   OH228744   6.438   3.850   5.455  0.0171 -1.2958  0.0058
 2418TIP3    H128745   6.454   3.918   5.390  1.2237 -4.3763 -3.2331
 2418TIP3    H228746   6.345   3.857   5.475 -0.4673 -0.3274 -2.2849
 2419TIP3   OH228747   0.782   4.561  14.597  0.0763  0.0531 -0.1939
 2419TIP3    H128748   0.796   4.619  14.672  0.4969 -0.5249  0.1809
 2419TIP3    H228749   0.852   4.496  14.604 -0.3666 -0.4773 -0.6295
 2420TIP3   OH228750   3.253   3.324   3.998 -0.4071  0.0043  0.3438
 2420TIP3    H128751   3.190   3.313   3.926  0.8139  1.0320 -0.9613
 2420TIP3    H228752   3.199   3.337   4.076 -1.8154  0.7142 -0.7010
 2421TIP3   OH228753   6.800   1.614   1.361  0.0910  0.8382 -0.1935
 2421TIP3    H128754   6.892   1.610   1.332  0.1048 -0.6509 -0.0502
 2421TIP3    H228755   6.804   1.589   1.453 -0.4470  0.9851 -0.1320
 2422TIP3   OH228756   5.843   1.044  12.030  0.0108  0.5807  0.2460
 2422TIP3    H128757   5.827   1.133  11.999  0.4687  0.8617  0.7824
 2422TIP3    H228758   5.924   1.051  12.080 -0.1550 -0.0629  0.6139
 2423TIP3   OH228759   2.456   3.838  11.607  0.1832 -0.1828  0.3629
 2423TIP3    H128760   2.420   3.842  11.695  0.6076  0.6566  0.5096
 2423TIP3    H228761   2.422   3.917  11.564 -1.6204 -1.5624 -0.8660
 2424TIP3   OH228762   4.419   1.374   5.778  0.3319  0.0969 -0.0162
 2424TIP3    H128763   4.417   1.464   5.745  1.6115  0.0056 -0.3727
 2424TIP3    H228764   4.452   1.322   5.705 -0.9148 -0.7665 -0.0027
 2425TIP3   OH228765   5.407   6.281  14.729  0.0366  0.0481 -0.1797
 2425TIP3    H128766   5.346   6.238  14.789  1.2260  1.0929  1.8973
 2425TIP3    H228767   5.424   6.216  14.661 -1.7886 -0.9908  0.2977
 2426TIP3   OH228768   5.255   2.539   4.398  0.2300 -0.4502 -0.3959
 2426TIP3    H128769   5.215   2.454   4.412  2.2288 -1.1519  1.8326
 2426TIP3    H228770   5.230   2.590   4.476 -0.1805  0.7117 -1.2579
 2427TIP3   OH228771   0.519   5.660   2.771  0.2021  0.1854  0.2234
 2427TIP3    H128772   0.591   5.722   2.758 -1.4862  2.4891  1.0896
 2427TIP3    H228773   0.440   5.713   2.759 -1.4124 -2.4244 -1.5971
 2428TIP3   OH228774   0.828   3.803   2.093 -0.1612  0.9527  0.5603
 2428TIP3    H128775   0.803   3.810   2.185 -1.3202 -0.2458  0.3740
 2428TIP3    H228776   0.771   3.864   2.047  0.7201  1.8772  0.6659
 2429TIP3   OH228777   3.680   1.857  16.862  0.2256  0.4280  0.2320
 2429TIP3    H128778   3.608   1.911  16.893 -1.3814 -0.7860 -1.1789
 2429TIP3    H228779   3.709   1.808  16.939 -0.5403  0.8399  0.7889
 2430TIP3   OH228780   3.983   1.194  15.651  0.2907  0.0663 -0.2410
 2430TIP3    H128781   4.033   1.115  15.629  0.5577 -0.1721  1.1670
 2430TIP3    H228782   3.929   1.210  15.573  1.0363 -0.8660 -0.9716
 2431TIP3   OH228783   2.560   4.104   2.005  0.1518  1.1081 -0.0238
 2431TIP3    H128784   2.581   4.188   1.965  0.7421 -0.4681 -3.3522
 2431TIP3    H228785   2.492   4.067   1.948  0.5453 -1.0494  0.8122
 2432TIP3   OH228786   5.023   5.175   2.396  0.4841 -0.3656 -0.2123
 2432TIP3    H128787   5.034   5.270   2.404  1.1295 -0.2323 -2.1412
 2432TIP3    H228788   5.083   5.150   2.325 -1.5708 -1.8141 -1.5392
 2433TIP3   OH228789   6.386   2.894   5.872  0.2970  0.1603 -0.8437
 2433TIP3    H128790   6.405   2.845   5.952  0.6272  1.7184  0.0684
 2433TIP3    H228791   6.329   2.836   5.821 -1.5627 -0.0958  1.4004
 2434TIP3   OH228792   2.872   0.130   4.343  0.2214  0.3454  0.2480
 2434TIP3    H128793   2.927   0.151   4.267  0.1941 -0.1937  0.0711
 2434TIP3    H228794   2.891   0.038   4.361  0.6404  0.6148  1.2471
 2435TIP3   OH228795   4.380   1.185   4.288  0.5473  0.5658  0.0675
 2435TIP3    H128796   4.429   1.193   4.206  0.9637  1.0392  0.3586
 2435TIP3    H228797   4.325   1.107   4.275 -0.2889  1.3215 -1.1118
 2436TIP3   OH228798   5.065   6.373   0.989  0.4365  0.0478  0.8929
 2436TIP3    H128799   5.056   6.371   0.894 -0.5674  0.9514  0.9408
 2436TIP3    H228800   5.140   6.431   1.004  0.6936 -0.2197  0.6450
 2437TIP3   OH228801   5.602   2.519   6.066  0.6971 -0.0266  0.3407
 2437TIP3    H128802   5.620   2.561   6.150 -0.2917 -0.2538  0.6746
 2437TIP3    H228803   5.512   2.545   6.045  0.8327 -0.2226 -0.4999
 2438TIP3   OH228804   4.686   6.439  12.782  0.2650 -0.2949 -0.0656
 2438TIP3    H128805   4.777   6.460  12.766  1.6436 -4.6660  0.6122
 2438TIP3    H228806   4.648   6.426  12.695  0.6154  0.3176 -0.3128
 2439TIP3   OH228807   5.626   0.419  12.604  0.1155  0.2932 -0.1150
 2439TIP3    H128808   5.607   0.344  12.548 -1.0853 -0.5269  1.3299
 2439TIP3    H228809   5.713   0.402  12.638  1.3105  1.3087 -2.4531
 2440TIP3   OH228810   2.632   0.747  10.783 -0.7961 -0.2951 -0.2609
 2440TIP3    H128811   2.563   0.696  10.826 -1.1634  0.5033  0.1139
 2440TIP3    H228812   2.695   0.681  10.753 -0.2993 -0.9016  1.8685
 2441TIP3   OH228813   5.911   2.483   0.196  1.0194  0.2386 -0.1906
 2441TIP3    H128814   5.818   2.496   0.177  0.9238  0.3017  0.3065
 2441TIP3    H228815   5.919   2.391   0.220  0.7608  0.6215  1.5173
 2442TIP3   OH228816   6.618   0.778  15.131  0.4419  0.7200 -0.0535
 2442TIP3    H128817   6.680   0.754  15.200  0.0889 -0.0219  0.0106
 2442TIP3    H228818   6.535   0.742  15.159  0.5409 -0.7240 -1.4678
 2443TIP3   OH228819   5.040   4.149   5.915  0.2645  0.5723  0.0736
 2443TIP3    H128820   5.076   4.177   5.831  0.5259  1.0490  0.3430
 2443TIP3    H228821   4.952   4.185   5.917  0.9704  2.4080  0.9007
 2444TIP3   OH228822   1.990   3.905   6.025  0.0438 -0.2019 -0.0670
 2444TIP3    H128823   1.915   3.945   6.068 -0.1362 -1.0792  0.4616
 2444TIP3    H228824   1.975   3.922   5.932 -0.1187  0.7754  0.1243
 2445TIP3   OH228825   2.840   0.781   5.597 -0.7838  0.0143  0.0925
 2445TIP3    H128826   2.899   0.846   5.558 -0.6540 -0.2386 -0.1338
 2445TIP3    H228827   2.819   0.722   5.525 -1.9418  0.5447 -0.0410
 2446TIP3   OH228828   2.425   3.044  11.663  0.4827 -0.6427 -0.1858
 2446TIP3    H128829   2.417   3.124  11.715 -0.9121  0.5605 -2.1362
 2446TIP3    H228830   2.509   3.006  11.690  0.5898  0.7869  1.6820
 2447TIP3   OH228831   1.884   1.345  17.176 -0.1219  0.5672  0.1563
 2447TIP3    H128832   1.875   1.276  17.242  0.2999  1.0477  0.7298
 2447TIP3    H228833   1.974   1.338  17.146  0.0816  1.1955  0.6004
 2448TIP3   OH228834   5.031   3.456   1.892  0.0269 -0.2752  0.3921
 2448TIP3    H128835   5.093   3.512   1.847  1.3622 -1.1536  1.0647
 2448TIP3    H228836   4.949   3.466   1.843  0.2072  2.1947  0.4756
 2449TIP3   OH228837   6.307   1.238  11.173  0.0705  0.2545  0.4777
 2449TIP3    H128838   6.391   1.211  11.211 -0.1514 -1.7517 -0.3748
 2449TIP3    H228839   6.319   1.331  11.153  1.9195  0.1229  0.8113
 2450TIP3   OH228840   3.469   1.544   1.143 -0.3671 -1.0445 -0.6239
 2450TIP3    H128841   3.563   1.525   1.142 -0.3174 -1.1967  1.9404
 2450TIP3    H228842   3.464   1.638   1.126  0.4629 -0.5832  1.3632
 2451TIP3   OH228843   0.628   0.809   0.983  0.1441  0.3484 -0.3018
 2451TIP3    H128844   0.719   0.834   0.969  0.4875  0.0499  1.2274
 2451TIP3    H228845   0.620   0.722   0.944  1.1943 -0.6718  1.5916
 2452TIP3   OH228846   4.810   1.170  13.996 -0.0862  0.4903 -0.3247
 2452TIP3    H128847   4.870   1.244  13.990 -0.1704  0.5019 -1.3234
 2452TIP3    H228848   4.735   1.204  14.045 -0.5847  1.4205 -1.6524
 2453TIP3   OH228849   5.603   4.788  13.160 -0.2417  0.3565 -0.8040
 2453TIP3    H128850   5.622   4.756  13.072  1.3733  0.8222 -0.6631
 2453TIP3    H228851   5.659   4.865  13.169  0.5906 -0.4269  1.0841
 2454TIP3   OH228852   4.037   0.047   3.406 -0.2763  0.1843 -0.7670
 2454TIP3    H128853   4.115   0.046   3.461 -0.7051 -0.8260 -0.1543
 2454TIP3    H228854   3.987   0.123   3.437 -0.2355 -0.0323 -0.1561
 2455TIP3   OH228855   4.085   2.199   4.432  0.4871 -0.2334  0.5834
 2455TIP3    H128856   4.091   2.293   4.415  0.7479 -0.6300 -1.8532
 2455TIP3    H228857   4.025   2.166   4.366  2.2194 -2.1175 -0.1424
 2456TIP3   OH228858   4.018   2.088   6.275  0.2621  0.4192 -0.0879
 2456TIP3    H128859   3.961   2.014   6.299  0.6597  0.6208  1.5894
 2456TIP3    H228860   3.960   2.164   6.280 -0.0622  0.2949 -1.4824
 2457TIP3   OH228861   3.417   1.306  14.069 -0.5090 -0.0049  0.0358
 2457TIP3    H128862   3.390   1.300  13.977  0.5165 -0.4482 -0.2426
 2457TIP3    H228863   3.511   1.323  14.066 -0.2242 -1.2535  1.0075
 2458TIP3   OH228864   5.949   5.571  14.997 -0.1295 -0.0581 -0.1316
 2458TIP3    H128865   5.892   5.644  15.017 -0.6193 -0.6971  0.9052
 2458TIP3    H228866   6.036   5.610  14.988 -0.1466  0.5113  1.7501
 2459TIP3   OH228867   1.976   1.755   3.634 -0.3881  0.2808 -0.1768
 2459TIP3    H128868   2.051   1.761   3.693 -1.1595  1.0201  0.7646
 2459TIP3    H228869   1.953   1.846   3.615 -1.2270  0.0695 -0.2039
 2460TIP3   OH228870   0.344   3.948   3.228 -0.4677 -0.0696 -0.4488
 2460TIP3    H128871   0.278   4.009   3.195  0.1142  0.9591  0.2061
 2460TIP3    H228872   0.326   3.941   3.322  0.4959  0.4723 -0.1964
 2461TIP3   OH228873   5.675   4.281   1.082 -0.1473  0.5632 -0.4327
 2461TIP3    H128874   5.618   4.254   1.010 -2.8792  4.3251  0.0368
 2461TIP3    H228875   5.620   4.273   1.160  2.2701 -1.9606  1.2153
 2462TIP3   OH228876   4.718   0.197   2.912 -0.1146 -0.8209 -0.2262
 2462TIP3    H128877   4.623   0.211   2.917 -0.1925 -1.3101 -0.3543
 2462TIP3    H228878   4.745   0.180   3.002 -0.0526 -0.1016 -0.0983
 2463TIP3   OH228879   2.776   2.505  13.723 -0.7031 -0.1584  0.3756
 2463TIP3    H128880   2.846   2.499  13.788  0.8647 -0.8613 -1.2873
 2463TIP3    H228881   2.796   2.584  13.672 -0.9343 -0.5242 -0.3046
 2464TIP3   OH228882   2.509   1.123   3.029 -0.1638 -0.2384  0.2174
 2464TIP3    H128883   2.540   1.081   2.949  0.5500  1.1943 -0.2878
 2464TIP3    H228884   2.564   1.201   3.039 -1.4798  0.6343  1.0716
 2465TIP3   OH228885   4.317   4.361  13.771  0.3808  0.7181 -0.2986
 2465TIP3    H128886   4.355   4.343  13.685 -1.5868 -0.6144 -0.9406
 2465TIP3    H228887   4.263   4.285  13.791  0.4878  1.1563  1.9824
 2466TIP3   OH228888   4.186   0.947   0.771 -0.3248  0.0559 -0.7621
 2466TIP3    H128889   4.191   1.037   0.737 -0.7148  1.1799  1.9252
 2466TIP3    H228890   4.276   0.924   0.793 -0.2623 -0.1034 -1.1817
 2467TIP3   OH228891   4.798   3.402  15.389  0.1135  1.0804 -0.7179
 2467TIP3    H128892   4.826   3.493  15.397 -1.1175  1.4464 -0.5088
 2467TIP3    H228893   4.877   3.356  15.361  0.8559  2.1364 -0.4290
 2468TIP3   OH228894   5.236   6.445  12.911  0.0627 -0.1578  0.2548
 2468TIP3    H128895   5.262   6.409  12.826  0.1082  0.2942  0.0731
 2468TIP3    H228896   5.147   6.413  12.924 -1.2303  2.3305 -1.5000
 2469TIP3   OH228897   5.604   2.807   1.232  0.0612 -0.2954 -0.1667
 2469TIP3    H128898   5.521   2.797   1.278 -0.1848  0.4392 -0.4293
 2469TIP3    H228899   5.618   2.902   1.229  0.1706 -0.3347 -1.4369
 2470TIP3   OH228900   4.491   6.304  14.617 -0.5852 -0.3620  0.2999
 2470TIP3    H128901   4.549   6.325  14.543 -0.8528  0.4830  0.3244
 2470TIP3    H228902   4.551   6.273  14.685 -0.1258  0.7479  0.4145
 2471TIP3   OH228903   5.037   5.720   0.720 -0.0307 -0.6486  0.3228
 2471TIP3    H128904   5.062   5.681   0.804 -0.4526 -2.0507 -0.1667
 2471TIP3    H228905   5.050   5.814   0.732 -2.0291 -0.5616  2.6368
 2472TIP3   OH228906   2.593   2.587  17.254 -0.2830 -0.5072 -0.0807
 2472TIP3    H128907   2.614   2.673  17.218 -1.0293 -0.5104 -0.5295
 2472TIP3    H228908   2.545   2.606  17.335 -1.2947 -0.4959 -0.6768
 2473TIP3   OH228909   3.767   6.024   3.456 -0.4539  0.3512 -0.2093
 2473TIP3    H128910   3.826   5.999   3.384  1.4673 -1.0569  1.7150
 2473TIP3    H228911   3.806   6.104   3.491 -0.7035  0.3829 -0.0100
 2474TIP3   OH228912   6.275   4.249   4.559 -0.2660 -0.0121 -0.0568
 2474TIP3    H128913   6.284   4.330   4.609  0.7137  1.8297 -2.9920
 2474TIP3    H228914   6.208   4.268   4.494  1.8164 -0.5231 -2.5069
 2475TIP3   OH228915   0.075   5.779  14.326  0.3007 -0.7632 -0.4021
 2475TIP3    H128916   0.129   5.810  14.399 -1.9918  1.1422  0.6131
 2475TIP3    H228917   0.131   5.787  14.249  1.6906  0.4128  0.6791
 2476TIP3   OH228918   3.118   2.243  12.155 -0.5806 -0.1795 -0.1193
 2476TIP3    H128919   3.175   2.319  12.165 -1.7503  0.6897  0.2897
 2476TIP3    H228920   3.087   2.224  12.243 -2.9339  1.0379 -0.5880
 2477TIP3   OH228921   4.676   0.494   6.299 -0.2637 -0.2637  0.2697
 2477TIP3    H128922   4.758   0.459   6.335 -0.5933 -0.7151  0.5854
 2477TIP3    H228923   4.655   0.435   6.227  0.2970  0.5307 -0.5666
 2478TIP3   OH228924   5.201   0.594  14.523  0.3142 -0.0052  0.1797
 2478TIP3    H128925   5.226   0.649  14.597 -1.3374  0.2640  0.5707
 2478TIP3    H228926   5.215   0.504  14.555 -1.0362  0.0850  1.0985
 2479TIP3   OH228927   6.243   0.523   1.401 -0.6942  0.3642 -0.0098
 2479TIP3    H128928   6.194   0.485   1.328 -1.0078  2.0677 -0.7312
 2479TIP3    H228929   6.237   0.617   1.388  1.1991  0.6697  0.9504
 2480TIP3   OH228930   6.545   4.254  15.698 -0.5175  0.1332 -0.1351
 2480TIP3    H128931   6.498   4.337  15.698 -1.9966 -0.6760 -0.1457
 2480TIP3    H228932   6.534   4.219  15.786 -1.1262 -0.6959 -0.5220
 2481TIP3   OH228933   6.778   2.922   5.663 -0.3347  0.1964  0.2859
 2481TIP3    H128934   6.732   2.924   5.579  1.6495  1.1148 -0.8523
 2481TIP3    H228935   6.855   2.868   5.647  0.6625  1.2954  1.1586
 2482TIP3   OH228936   2.882   0.998  11.189 -0.0723 -0.2710  0.3368
 2482TIP3    H128937   2.900   1.034  11.102 -1.1120 -0.2270  0.1154
 2482TIP3    H228938   2.939   1.047  11.248 -0.4047  0.7295 -0.1460
 2483TIP3   OH228939   0.070   0.887  14.345 -0.1539  0.0422 -0.0712
 2483TIP3    H128940   0.004   0.897  14.414  0.1287 -0.3026  0.2523
 2483TIP3    H228941   0.154   0.887  14.392  0.0955  0.7095 -0.4981
 2484TIP3   OH228942   0.807   1.982  16.384 -0.9615  0.2052  0.0359
 2484TIP3    H128943   0.779   2.021  16.467 -0.0432  0.9863  0.0066
 2484TIP3    H228944   0.767   2.038  16.317 -0.4457  0.5149 -0.0193
 2485TIP3   OH228945   6.141   0.590   1.975  0.5140  0.0824  0.5376
 2485TIP3    H128946   6.122   0.496   1.970 -0.0575  0.2682 -2.2884
 2485TIP3    H228947   6.225   0.599   1.931 -0.8632  1.1733 -2.0830
 2486TIP3   OH228948   2.553   2.799   2.622 -0.3368  0.1278  0.4698
 2486TIP3    H128949   2.580   2.761   2.538 -1.5580  1.3214 -0.5112
 2486TIP3    H228950   2.547   2.724   2.681 -1.3843 -1.0440 -1.0408
 2487TIP3   OH228951   1.331   2.098  13.659 -0.8796  0.3557 -0.3951
 2487TIP3    H128952   1.264   2.123  13.723  0.2644  2.5138  0.0634
 2487TIP3    H228953   1.300   2.133  13.576 -2.4780 -2.6476 -1.1929
 2488TIP3   OH228954   4.675   2.460   2.172 -0.2860 -0.0848  0.4755
 2488TIP3    H128955   4.723   2.387   2.212  0.6383 -0.0508 -0.5214
 2488TIP3    H228956   4.636   2.507   2.246 -0.3980 -1.2390  1.1749
 2489TIP3   OH228957   2.940   2.829  16.960 -0.1447 -0.4573 -0.1778
 2489TIP3    H128958   2.937   2.825  17.056 -1.0850 -0.3061 -0.1918
 2489TIP3    H228959   2.858   2.788  16.932 -0.3203  0.3542 -0.8901
 2490TIP3   OH228960   4.425   4.411  15.336  0.0876  0.8575  0.1486
 2490TIP3    H128961   4.337   4.404  15.373  0.3491 -0.5095  0.5676
 2490TIP3    H228962   4.411   4.438  15.246 -0.8488 -0.2399 -0.0634
 2491TIP3   OH228963   2.215   3.076  13.434 -0.1243 -0.1769  0.0951
 2491TIP3    H128964   2.277   3.130  13.385 -0.6929  0.5413  0.1417
 2491TIP3    H228965   2.229   2.988  13.402 -0.7948  0.3348 -1.7137
 2492TIP3   OH228966   5.985   5.077  15.332  0.6332  0.2235 -0.1687
 2492TIP3    H128967   6.043   5.023  15.387  1.2731  0.1598 -0.8924
 2492TIP3    H228968   6.031   5.161  15.325  0.7694  0.0896 -0.9579
 2493TIP3   OH228969   4.124   5.464  16.616 -0.0140 -0.8588 -0.5369
 2493TIP3    H128970   4.193   5.408  16.581  2.8113  0.0478  2.9967
 2493TIP3    H228971   4.127   5.542  16.561  2.4981 -0.4665  0.0368
 2494TIP3   OH228972   3.789   1.031  15.861 -0.3568 -0.4103 -0.1426
 2494TIP3    H128973   3.808   1.019  15.768  1.4239  0.3816  0.0687
 2494TIP3    H228974   3.869   1.000  15.905 -0.3367  1.1543  0.9950
 2495TIP3   OH228975   5.050   1.718  16.152  0.0245 -0.0422 -0.5741
 2495TIP3    H128976   5.064   1.675  16.068 -0.0565 -2.7470  0.7158
 2495TIP3    H228977   4.955   1.726  16.159 -0.2120 -2.7867  0.5519
 2496TIP3   OH228978   4.928   6.579  12.773 -0.1515 -0.3935  0.2589
 2496TIP3    H128979   4.967   6.604  12.857  0.6953  1.6612 -0.6855
 2496TIP3    H228980   4.871   6.652  12.750  0.6272 -0.3004 -1.5330
 2497TIP3   OH228981   2.901   1.194   5.275 -0.0668 -0.8466 -0.0501
 2497TIP3    H128982   2.819   1.176   5.230  0.7430  0.5680 -2.2646
 2497TIP3    H228983   2.919   1.115   5.326 -1.2210 -2.4685 -2.0149
 2498TIP3   OH228984   1.167   1.297   0.715 -0.5264 -0.0689 -0.3764
 2498TIP3    H128985   1.100   1.355   0.752 -1.2149 -0.7826 -0.4869
 2498TIP3    H228986   1.204   1.346   0.642  0.2702  1.0208  0.7140
 2499TIP3   OH228987   6.092   2.029   4.656  0.3748  0.6553  0.4536
 2499TIP3    H128988   6.122   1.949   4.614  2.4273  1.4430  0.3189
 2499TIP3    H228989   6.031   2.068   4.593  1.2613  0.4155 -0.5838
 2500TIP3   OH228990   1.731   5.820  16.844  0.2347  0.1396  0.4552
 2500TIP3    H128991   1.821   5.795  16.823  0.4718 -1.1884  2.8116
 2500TIP3    H228992   1.739   5.885  16.914 -0.6333  1.2962 -0.4688
 2501TIP3   OH228993   5.392   6.193   2.530  0.0312 -0.1011  0.1852
 2501TIP3    H128994   5.336   6.220   2.457 -0.7901 -0.9996  0.4687
 2501TIP3    H228995   5.336   6.199   2.607  1.2665  2.1222  0.9891
 2502TIP3   OH228996   2.993   6.310  13.646 -0.5095  0.1793  0.3260
 2502TIP3    H128997   3.069   6.344  13.599  0.5674 -0.6204  1.4245
 2502TIP3    H228998   2.958   6.242  13.588  0.0154  0.0924  0.1008
 2503TIP3   OH228999   4.526   1.942  16.955 -0.0061  0.3564 -0.3915
 2503TIP3    H129000   4.561   2.015  16.904  0.1406 -0.5212 -1.6162
 2503TIP3    H229001   4.589   1.930  17.026 -0.6516  2.1348  0.5352
 2504TIP3   OH229002   5.904   5.159   3.662  0.2036 -0.2017 -0.2963
 2504TIP3    H129003   5.836   5.092   3.659 -0.4699  0.4292  0.3731
 2504TIP3    H229004   5.959   5.141   3.586 -1.7253  0.3056 -1.9213
 2505TIP3   OH229005   3.024   0.135   1.415  0.2202 -0.1410 -0.0650
 2505TIP3    H129006   3.068   0.100   1.492  0.9478  0.6090 -0.1303
 2505TIP3    H229007   3.028   0.064   1.350 -1.7226 -1.3447  1.0411
 2506TIP3   OH229008   1.494   5.315   5.255  0.4804  0.2436 -0.7418
 2506TIP3    H129009   1.571   5.322   5.312  1.2338  0.2932 -1.7396
 2506TIP3    H229010   1.433   5.380   5.289  1.2640  0.8723 -0.5176
 2507TIP3   OH229011   6.710   2.268  16.762 -0.5688  0.4374  0.0012
 2507TIP3    H129012   6.695   2.181  16.724 -1.4039 -0.7321  2.7208
 2507TIP3    H229013   6.700   2.328  16.689  1.0159 -1.7745 -2.2185
 2508TIP3   OH229014   5.344   4.057   5.734  0.5955 -0.0788  0.3333
 2508TIP3    H129015   5.254   4.088   5.729  0.6838  0.2256  0.5229
 2508TIP3    H229016   5.393   4.134   5.764  0.8118 -0.4210  0.8852
 2509TIP3   OH229017   3.079   4.101   0.397  0.1299  0.6164 -0.3473
 2509TIP3    H129018   3.005   4.106   0.458  0.5487 -0.1306  0.2382
 2509TIP3    H229019   3.054   4.032   0.336 -0.3405  1.4440 -1.1049
 2510TIP3   OH229020   4.258   3.662  10.195  0.6471 -0.1117  0.3893
 2510TIP3    H129021   4.238   3.755  10.183  0.2055 -0.3196 -0.5515
 2510TIP3    H229022   4.211   3.637  10.274 -0.5653  0.0774 -0.2576
 2511TIP3   OH229023   0.624   6.072   5.057  0.0677 -0.8410  0.0362
 2511TIP3    H129024   0.545   6.031   5.022 -0.1095 -1.3889  1.0518
 2511TIP3    H229025   0.627   6.045   5.148  1.0446 -0.2296  0.2009
 2512TIP3   OH229026   6.084   4.537  12.970 -0.8245 -0.4109 -0.2203
 2512TIP3    H129027   6.161   4.559  12.919 -1.3710  1.6074 -0.2884
 2512TIP3    H229028   6.011   4.574  12.920 -1.4569  0.8821  1.5396
 2513TIP3   OH229029   0.622   0.868   1.468 -0.2454 -0.0375 -0.0767
 2513TIP3    H129030   0.645   0.955   1.433 -0.2769  0.4377  1.0577
 2513TIP3    H229031   0.650   0.807   1.399  1.7333  0.7154 -0.0260
 2514TIP3   OH229032   0.213   5.994  14.747  0.4935  0.3981  0.2666
 2514TIP3    H129033   0.289   6.005  14.805 -0.2174 -0.3457  1.3554
 2514TIP3    H229034   0.155   6.067  14.769 -0.9035 -1.2226  2.3161
 2515TIP3   OH229035   4.815   4.573  14.580 -0.6214 -0.1272  0.1414
 2515TIP3    H129036   4.746   4.630  14.547  0.1782  1.0569  0.4661
 2515TIP3    H229037   4.895   4.624  14.570 -0.1310 -0.3745  2.3354
 2516TIP3   OH229038   6.044   1.804   0.384  0.6708  0.2942  0.2742
 2516TIP3    H129039   6.031   1.867   0.456  0.9604  1.3072 -0.5294
 2516TIP3    H229040   6.128   1.829   0.345  0.0953  0.3476 -0.9721
 2517TIP3   OH229041   0.948   1.811   1.753 -0.5010 -0.3016  0.2727
 2517TIP3    H129042   0.940   1.813   1.849  0.5697  3.0241  0.4265
 2517TIP3    H229043   0.913   1.895   1.725  1.0656 -0.3506 -2.0794
 2518TIP3   OH229044   4.359   1.384  13.206  0.6915 -0.4065  0.7326
 2518TIP3    H129045   4.404   1.339  13.277 -2.5633 -1.5193  2.3112
 2518TIP3    H229046   4.320   1.314  13.154  2.3678  0.4199 -1.8038
 2519TIP3   OH229047   3.984   0.614  17.042  0.2167 -0.1059 -0.3095
 2519TIP3    H129048   4.034   0.532  17.050  1.0521  0.6000  2.9559
 2519TIP3    H229049   3.893   0.587  17.048  0.2718 -1.0325 -2.5306
 2520TIP3   OH229050   0.455   5.919  14.023  0.0315 -0.1367 -0.5035
 2520TIP3    H129051   0.364   5.950  14.018  0.4319  0.8322 -2.3105
 2520TIP3    H229052   0.507   5.998  14.034  0.7599 -0.5590 -0.8547
 2521TIP3   OH229053   4.381   1.136   1.504 -0.2806  0.3618  0.2528
 2521TIP3    H129054   4.346   1.048   1.515  1.6008 -0.6783 -1.3643
 2521TIP3    H229055   4.305   1.191   1.486 -1.5367 -0.8105  1.7050
 2522TIP3   OH229056   0.684   5.739   0.863 -0.4002  0.5486  0.0755
 2522TIP3    H129057   0.597   5.745   0.902  0.6310 -0.7415  2.8527
 2522TIP3    H229058   0.727   5.820   0.887 -0.9548  1.4563 -1.8194
 2523TIP3   OH229059   4.150   1.473   2.965 -0.1778 -0.0484 -0.5545
 2523TIP3    H129060   4.199   1.503   2.889 -0.0859  1.2571  0.0058
 2523TIP3    H229061   4.080   1.418   2.929  1.0472 -1.1014 -1.4305
 2524TIP3   OH229062   1.592   6.096   5.680  0.0732 -0.0981 -0.7310
 2524TIP3    H129063   1.575   6.141   5.763 -0.3538 -1.8587  0.2029
 2524TIP3    H229064   1.511   6.050   5.660  0.9999 -1.8803 -0.6582
 2525TIP3   OH229065   1.324   3.710  14.872  0.0562 -0.0492 -0.0118
 2525TIP3    H129066   1.355   3.626  14.836 -0.9820 -0.8615  0.9369
 2525TIP3    H229067   1.304   3.691  14.964  1.0117  1.5667  0.5744
 2526TIP3   OH229068   1.164   6.391   3.009  0.1824 -0.0086  0.0330
 2526TIP3    H129069   1.241   6.443   2.986  1.1423 -0.8393  1.2546
 2526TIP3    H229070   1.090   6.449   2.992  1.0982  0.9980 -0.6527
 2527TIP3   OH229071   3.659   3.779   3.022  0.1118 -0.2293  0.2431
 2527TIP3    H129072   3.578   3.810   3.062 -1.1631 -3.4640  0.4646
 2527TIP3    H229073   3.729   3.818   3.075 -1.3517  0.5134  1.7130
 2528TIP3   OH229074   6.629   0.508  13.231 -0.0491 -0.5286  0.0330
 2528TIP3    H129075   6.683   0.543  13.160 -3.2019  0.7252 -1.9189
 2528TIP3    H229076   6.626   0.414  13.214  0.4588 -0.4479 -0.5502
 2529TIP3   OH229077   5.037   1.022  15.681 -0.3953  0.3430  0.3747
 2529TIP3    H129078   4.949   1.059  15.685 -0.6046 -0.1991  0.9252
 2529TIP3    H229079   5.038   0.953  15.748  0.4702  0.3980  0.4392
 2530TIP3   OH229080   2.560   6.037   4.348 -0.2838 -0.2717 -0.5948
 2530TIP3    H129081   2.551   6.118   4.296 -1.3265  0.5252  0.7573
 2530TIP3    H229082   2.474   6.025   4.387  0.2974 -1.2248  0.4229
 2531TIP3   OH229083   2.039   1.197   1.611  0.2878 -0.3402 -0.4171
 2531TIP3    H129084   2.002   1.281   1.640  1.1766 -0.4123  1.0240
 2531TIP3    H229085   2.103   1.221   1.543  0.3335  0.1289 -0.2150
 2532TIP3   OH229086   1.871   2.460   2.128 -0.0730 -0.1254 -0.7219
 2532TIP3    H129087   1.883   2.553   2.149 -0.7189 -0.2920  0.4910
 2532TIP3    H229088   1.920   2.413   2.196  1.2672 -0.6877 -2.0248
 2533TIP3   OH229089   0.491   1.981  12.009  0.5153  0.3191 -0.1420
 2533TIP3    H129090   0.552   1.910  12.028  0.2227 -0.1970 -1.0842
 2533TIP3    H229091   0.529   2.027  11.934  0.8408  1.3411  0.6225
 2534TIP3   OH229092   6.732   0.478  15.075  0.8067 -0.1179 -0.1092
 2534TIP3    H129093   6.695   0.440  15.155  0.6731  0.4032  0.0808
 2534TIP3    H229094   6.658   0.482  15.015  1.2016 -1.8216 -0.7702
 2535TIP3   OH229095   3.096   6.271   4.087  0.1403 -0.0102 -0.1495
 2535TIP3    H129096   3.044   6.277   4.006  0.0307 -0.9280 -0.1588
 2535TIP3    H229097   3.162   6.340   4.078 -0.7997  0.8877 -0.3375
 2536TIP3   OH229098   2.739   4.742  14.947 -0.5340  0.3359  0.4976
 2536TIP3    H129099   2.833   4.727  14.959 -0.5963  0.9709  2.0365
 2536TIP3    H229100   2.721   4.712  14.858  0.7539 -1.5854  0.8154
 2537TIP3   OH229101   0.068   4.519  16.891 -0.4537 -0.0527 -0.5622
 2537TIP3    H129102  -0.003   4.521  16.827 -0.5345  1.3710 -0.4642
 2537TIP3    H229103   0.093   4.427  16.897 -1.5607 -0.4255 -1.3997
 2538TIP3   OH229104   5.012   6.056  17.181 -0.3307 -0.1401  0.4083
 2538TIP3    H129105   4.948   6.056  17.252 -1.8475  0.8916 -0.8688
 2538TIP3    H229106   5.007   5.968  17.144 -2.3900  0.3629 -0.7394
 2539TIP3   OH229107   3.380   6.615  10.475  0.7631 -0.0184 -0.6403
 2539TIP3    H129108   3.304   6.655  10.517  1.7432 -0.9748  2.3113
 2539TIP3    H229109   3.345   6.576  10.395 -1.3945  1.4127 -0.4806
 2540TIP3   OH229110   5.240   0.335   4.421 -0.3093  0.4783  0.5208
 2540TIP3    H129111   5.225   0.422   4.385 -1.7140  0.1079  0.1800
 2540TIP3    H229112   5.252   0.279   4.344 -2.6876 -0.2022  0.5796
 2541TIP3   OH229113   4.723   5.172  13.610 -0.1227  0.0271  0.2828
 2541TIP3    H129114   4.640   5.159  13.656 -0.9612  0.2366 -1.1362
 2541TIP3    H229115   4.708   5.138  13.522  1.1469  0.5261 -0.1573
 2542TIP3   OH229116   3.010   1.073  13.135 -0.2988  0.6690  0.3629
 2542TIP3    H129117   3.036   0.981  13.123 -1.2682  0.4821 -0.4526
 2542TIP3    H229118   2.932   1.069  13.191 -0.6201  0.9487 -0.0565
 2543TIP3   OH229119   3.943   5.821   1.691  0.2012  0.3238  0.0830
 2543TIP3    H129120   4.011   5.840   1.627  0.7712  1.2754  0.9404
 2543TIP3    H229121   3.924   5.728   1.678  1.9826 -0.0881  0.0961
 2544TIP3   OH229122   0.610   5.115   4.327 -0.4400 -0.0057  0.3190
 2544TIP3    H129123   0.695   5.138   4.290 -0.9645 -2.3292 -2.6629
 2544TIP3    H229124   0.630   5.078   4.413  1.1944  2.1577  0.9702
 2545TIP3   OH229125   5.450   5.773   4.116 -0.0550 -0.0545 -0.1626
 2545TIP3    H129126   5.451   5.862   4.079 -1.0784 -0.1578 -0.4612
 2545TIP3    H229127   5.448   5.787   4.211  0.1150  0.2304 -0.1977
 2546TIP3   OH229128   1.881   1.867  12.163 -0.2463  0.1445 -0.0228
 2546TIP3    H129129   1.970   1.852  12.129  0.1341 -2.3818  1.8003
 2546TIP3    H229130   1.885   1.955  12.201  1.5130  0.0542  0.1071
 2547TIP3   OH229131   5.521   4.218   6.465  0.0858 -0.1510 -0.5192
 2547TIP3    H129132   5.486   4.195   6.379  0.7029 -0.8660 -0.5888
 2547TIP3    H229133   5.575   4.143   6.490  3.8809  1.9307 -1.6586
 2548TIP3   OH229134   0.920   5.892   5.214  0.0762 -0.0090 -0.5331
 2548TIP3    H129135   0.892   5.803   5.194  1.7328 -0.7376  0.2019
 2548TIP3    H229136   0.991   5.909   5.153  0.2714  0.5119 -0.1695
 2549TIP3   OH229137   6.078   2.035   4.930  0.2586 -0.4383 -0.5204
 2549TIP3    H129138   6.064   2.116   4.979  0.1013 -1.1340  0.6201
 2549TIP3    H229139   6.139   2.060   4.860 -0.1446  0.7558 -0.4638
 2550TIP3   OH229140   2.677   4.126   0.361 -0.1070  1.0027  0.0423
 2550TIP3    H129141   2.600   4.093   0.315  0.0638 -0.2636  0.6294
 2550TIP3    H229142   2.720   4.183   0.298 -0.7909  0.6305 -0.7748
 2551TIP3   OH229143   5.115   4.956  11.618  0.0132 -0.4506  0.0458
 2551TIP3    H129144   5.113   4.940  11.523  0.9435 -1.8175  0.2291
 2551TIP3    H229145   5.163   4.882  11.654 -0.1468  0.1522  1.5860
 2552TIP3   OH229146   5.821   0.051   3.231  0.2050  0.3388 -0.8680
 2552TIP3    H129147   5.751   0.102   3.189  0.3195 -0.5289 -2.1450
 2552TIP3    H229148   5.891   0.047   3.166  0.6243 -0.5440 -0.3823
 2553TIP3   OH229149   1.867   4.025  16.292 -0.3496  0.0265 -0.1598
 2553TIP3    H129150   1.932   4.076  16.244 -0.5094  0.4996  0.1268
 2553TIP3    H229151   1.912   3.944  16.315  0.8328  1.1817  1.8635
 2554TIP3   OH229152   1.571   3.966  11.577  0.2753 -0.0525 -0.0524
 2554TIP3    H129153   1.529   3.950  11.492 -1.5200 -0.1238  0.8125
 2554TIP3    H229154   1.607   4.054  11.569  0.7437 -0.3110 -1.1084
 2555TIP3   OH229155   4.194   4.949   3.587 -0.1323 -0.4169  0.2912
 2555TIP3    H129156   4.259   4.993   3.533 -0.8031  2.5363  1.6885
 2555TIP3    H229157   4.110   4.976   3.552 -0.6150 -1.4214  0.6125
 2556TIP3   OH229158   5.847   1.579   3.281 -0.2645  0.2709  0.4908
 2556TIP3    H129159   5.888   1.665   3.282  0.8991 -0.2685  0.1940
 2556TIP3    H229160   5.760   1.595   3.244 -0.3574  1.4259  1.1296
 2557TIP3   OH229161   1.634   5.248  14.488  0.6481 -0.0700 -0.5224
 2557TIP3    H129162   1.662   5.158  14.501 -0.8964 -0.6470 -1.0624
 2557TIP3    H229163   1.562   5.261  14.549  0.3490  0.5564 -0.9877
 2558TIP3   OH229164   1.375   3.453  16.562  0.4534 -0.3864  1.0273
 2558TIP3    H129165   1.423   3.533  16.542  0.0195 -0.3935 -0.1258
 2558TIP3    H229166   1.400   3.431  16.651  0.9312  0.7841  1.1935
 2559TIP3   OH229167   3.437   2.488   6.812  0.1916  0.5742  0.0428
 2559TIP3    H129168   3.522   2.445   6.824  0.2244  0.7476  0.4843
 2559TIP3    H229169   3.455   2.561   6.754  0.5053  1.0634  0.7399
 2560TIP3   OH229170   6.713   0.983   2.860 -0.8455 -0.3298  0.2030
 2560TIP3    H129171   6.767   1.046   2.812  0.0331 -1.0808  0.1792
 2560TIP3    H229172   6.692   1.028   2.942 -1.7374  0.6713 -0.5383
 2561TIP3   OH229173   4.347   3.704   4.965  0.7879 -0.3509 -0.0248
 2561TIP3    H129174   4.410   3.648   4.920  1.4838  1.0484 -0.8841
 2561TIP3    H229175   4.400   3.777   4.998 -0.3125  0.6711 -0.4321
 2562TIP3   OH229176   3.263   0.968   2.877  0.1569 -0.2320 -0.3079
 2562TIP3    H129177   3.194   1.026   2.846  1.0870  1.2306  0.2882
 2562TIP3    H229178   3.226   0.880   2.865 -0.6470  0.3427 -2.8323
 2563TIP3   OH229179   0.760   6.057  14.570 -0.1097 -0.0346 -0.1622
 2563TIP3    H129180   0.835   6.028  14.518  0.0592 -2.1094  1.1148
 2563TIP3    H229181   0.747   5.987  14.634  0.0665  2.6031  3.0465
 2564TIP3   OH229182   3.592   5.709   2.434 -0.0536 -0.3749  0.0753
 2564TIP3    H129183   3.595   5.679   2.524 -1.2089 -1.4538 -0.2206
 2564TIP3    H229184   3.554   5.636   2.385 -1.1688  0.8642 -0.9865
 2565TIP3   OH229185   3.561   3.932  13.280  0.0011  0.4326  0.4464
 2565TIP3    H129186   3.568   3.889  13.194 -0.0923 -0.0940  0.6984
 2565TIP3    H229187   3.550   3.860  13.342  2.8184  0.6155  1.2489
 2566TIP3   OH229188   5.513   0.777  11.683  0.0529  0.0911 -0.2863
 2566TIP3    H129189   5.488   0.685  11.680  2.0830 -0.5736  1.4117
 2566TIP3    H229190   5.586   0.785  11.622  1.1720  0.0955  1.0116
 2567TIP3   OH229191   2.713   3.620  12.240 -0.4282 -0.6651  0.3620
 2567TIP3    H129192   2.676   3.543  12.283 -2.1901 -0.3625 -0.5414
 2567TIP3    H229193   2.717   3.597  12.148  0.0932 -0.0825  0.2346
 2568TIP3   OH229194   6.367   1.412   2.885 -0.1394  0.7940  0.3917
 2568TIP3    H129195   6.273   1.391   2.893 -0.6440  3.0940  1.1313
 2568TIP3    H229196   6.369   1.498   2.843  1.5703  1.4405  1.6962
 2569TIP3   OH229197   3.468   5.060  13.183  0.1723  0.1803  0.3131
 2569TIP3    H129198   3.373   5.071  13.189  0.0513 -0.4960 -0.2462
 2569TIP3    H229199   3.479   4.984  13.125  1.0411 -0.2144  0.9942
 2570TIP3   OH229200   3.432   3.125  17.056  0.2271  0.3123  0.3639
 2570TIP3    H129201   3.403   3.177  17.131 -0.8011 -0.0447  0.2245
 2570TIP3    H229202   3.472   3.047  17.095  0.7644  0.6758  0.5509
 2571TIP3   OH229203   2.158   2.845   0.610 -0.0513  0.2890 -0.0731
 2571TIP3    H129204   2.110   2.926   0.595 -1.1376 -0.4640 -0.7445
 2571TIP3    H229205   2.237   2.873   0.657 -0.9879  1.5818  0.8105
 2572TIP3   OH229206   3.416   2.730  17.012  0.0591 -0.8250  0.3256
 2572TIP3    H129207   3.343   2.668  17.025 -0.8826  0.0083 -0.7790
 2572TIP3    H229208   3.442   2.717  16.921  0.8919 -0.6754  0.5380
 2573TIP3   OH229209   6.305   1.900   4.360  0.0146  0.6367 -0.3830
 2573TIP3    H129210   6.333   1.971   4.301 -1.0338 -0.8255 -2.7676
 2573TIP3    H229211   6.210   1.895   4.348 -0.4106  0.9271  2.2771
 2574TIP3   OH229212   5.249   1.128  15.861  0.2867 -0.0315 -0.5378
 2574TIP3    H129213   5.192   1.065  15.818  0.4627 -0.4924 -0.0988
 2574TIP3    H229214   5.336   1.111  15.825  0.3625 -0.1448 -0.3006
 2575TIP3   OH229215   5.089   1.926   2.710  0.1375 -0.0764  0.8222
 2575TIP3    H129216   5.100   1.841   2.667  4.0546  1.5890 -2.1005
 2575TIP3    H229217   5.145   1.922   2.787  1.3476  0.1763 -0.0161
 2576TIP3   OH229218   2.577   2.937  12.830  0.0713 -0.5565 -0.1379
 2576TIP3    H129219   2.558   3.030  12.817  0.6167 -0.2543  1.1002
 2576TIP3    H229220   2.672   2.931  12.824  0.8668  0.1370  5.7624
 2577TIP3   OH229221   3.008   5.034   2.796 -0.4411  0.1251 -0.4474
 2577TIP3    H129222   3.031   4.941   2.791 -1.8316 -0.1644 -3.0127
 2577TIP3    H229223   3.068   5.070   2.861  1.4451 -2.1822 -0.7862
 2578TIP3   OH229224   4.566   1.069  16.882 -0.5572 -0.4672 -0.1230
 2578TIP3    H129225   4.647   1.038  16.923 -2.5010 -2.7228  2.3426
 2578TIP3    H229226   4.572   1.164  16.887  2.0388 -0.5414 -0.3128
 2579TIP3   OH229227   5.810   6.178  12.799 -0.7189  0.7253  0.1343
 2579TIP3    H129228   5.715   6.178  12.792 -0.9395 -2.1875  1.4648
 2579TIP3    H229229   5.836   6.094  12.761  1.2021  0.9647  0.8236
 2580TIP3   OH229230   5.479   4.152   1.533  0.1926  0.1660 -0.7351
 2580TIP3    H129231   5.479   4.199   1.450 -0.8496 -0.6830 -1.2344
 2580TIP3    H229232   5.392   4.112   1.538  0.8048 -1.1186 -0.0074
 2581TIP3   OH229233   1.876   3.271   0.066 -0.0250  0.0170  0.2167
 2581TIP3    H129234   1.794   3.287   0.113  0.9312  2.3273  1.2658
 2581TIP3    H229235   1.905   3.186   0.098 -0.9309  0.1597  1.5258
 2582TIP3   OH229236   4.215   3.959   4.833  0.0815  0.4221  0.2202
 2582TIP3    H129237   4.289   3.906   4.861  1.8840  0.8617 -3.0783
 2582TIP3    H229238   4.164   3.901   4.777 -0.2864  0.9579 -0.0119
 2583TIP3   OH229239   5.949   4.140  15.137 -0.6197 -0.6064  0.5248
 2583TIP3    H129240   5.947   4.061  15.082  1.4773  1.0824 -2.2858
 2583TIP3    H229241   5.872   4.190  15.111  0.6246  0.4179 -1.4676
 2584TIP3   OH229242   0.586   5.513  14.766 -0.4657 -0.4895  0.5809
 2584TIP3    H129243   0.553   5.425  14.787 -1.9465  0.1044  0.8684
 2584TIP3    H229244   0.582   5.561  14.849  0.4629 -0.1786  0.4557
 2585TIP3   OH229245   6.250   3.362   0.696  0.6342 -0.7132  0.5557
 2585TIP3    H129246   6.343   3.376   0.714  0.0630  1.9103  1.9390
 2585TIP3    H229247   6.232   3.274   0.731  2.8303 -1.9597 -1.1225
 2586TIP3   OH229248   4.664   6.034   3.233 -0.1836 -0.0175 -0.0670
 2586TIP3    H129249   4.636   6.123   3.250 -0.0904  0.1598 -0.7834
 2586TIP3    H229250   4.750   6.043   3.191  0.3059 -0.4899  0.8138
 2587TIP3   OH229251   4.851   2.741  13.086 -0.1106 -0.0530  0.4573
 2587TIP3    H129252   4.894   2.754  13.170 -0.4953  3.6184  0.2224
 2587TIP3    H229253   4.838   2.829  13.051 -2.7945 -1.2553 -2.0290
 2588TIP3   OH229254   3.509   0.055  15.305  0.0269  0.0983 -0.5196
 2588TIP3    H129255   3.497   0.025  15.215  1.5126 -1.1382 -0.3587
 2588TIP3    H229256   3.588   0.009  15.335  0.3017  1.4707  0.9945
 2589TIP3   OH229257   1.632   4.891   4.360 -0.2827 -0.6144  0.2418
 2589TIP3    H129258   1.576   4.893   4.283 -0.2080 -0.3035  0.1934
 2589TIP3    H229259   1.718   4.864   4.328 -0.1864 -0.2325  0.1713
 2590TIP3   OH229260   4.973   6.470   1.808 -0.8090  0.7527  0.3565
 2590TIP3    H129261   5.047   6.530   1.813 -1.3257  1.3232  1.7470
 2590TIP3    H229262   4.925   6.496   1.730  0.4471  0.3735 -0.5632
 2591TIP3   OH229263   3.845   4.396   2.266 -0.0773 -0.5379 -0.4392
 2591TIP3    H129264   3.807   4.475   2.227  1.0466 -0.3905 -1.3211
 2591TIP3    H229265   3.792   4.325   2.230 -1.7371 -0.1717  1.1454
 2592TIP3   OH229266   4.719   1.809  13.514 -0.4928  0.5788  0.1076
 2592TIP3    H129267   4.766   1.727  13.528  0.0255  0.8960  0.2821
 2592TIP3    H229268   4.769   1.854  13.446  0.5551  1.7350  1.5853
 2593TIP3   OH229269   3.151   1.783  17.033  0.0155 -0.2676 -0.0704
 2593TIP3    H129270   3.151   1.732  16.952 -2.4399 -2.6764  1.2964
 2593TIP3    H229271   3.194   1.727  17.097 -1.1892  0.0728  1.0863
 2594TIP3   OH229272   4.174   5.849   5.113  0.1660 -0.8134 -0.3950
 2594TIP3    H129273   4.234   5.897   5.057 -2.1141  2.3255 -0.4041
 2594TIP3    H229274   4.172   5.898   5.195 -0.9033 -1.9706  0.3105
 2595TIP3   OH229275   0.436   5.670  11.797 -0.6286 -0.3693 -0.7209
 2595TIP3    H129276   0.462   5.744  11.743  0.9580 -0.4594 -0.1366
 2595TIP3    H229277   0.391   5.710  11.872 -2.2539 -0.2085 -1.7332
 2596TIP3   OH229278   4.554   4.880   5.101 -0.4518 -0.0169  0.3337
 2596TIP3    H129279   4.604   4.843   5.174  1.7477  0.6812 -0.7349
 2596TIP3    H229280   4.559   4.975   5.115  0.9383  0.1895 -1.2450
 2597TIP3   OH229281   3.333   0.048  15.498  0.1710 -0.2090 -0.2877
 2597TIP3    H129282   3.261  -0.011  15.478 -0.3642  0.1547  0.5238
 2597TIP3    H229283   3.387   0.048  15.419 -0.9376 -0.1691 -1.0595
 2598TIP3   OH229284   5.313   4.131  13.531  0.5084  0.0377  0.4429
 2598TIP3    H129285   5.233   4.174  13.500  0.5723  0.0049  0.2321
 2598TIP3    H229286   5.283   4.047  13.565  0.8400 -1.5212 -2.7907
 2599TIP3   OH229287   0.092   5.258  17.229 -0.0752 -0.0634 -0.9955
 2599TIP3    H129288   0.173   5.308  17.224 -0.5915  0.7330 -1.9809
 2599TIP3    H229289   0.045   5.281  17.148 -2.2231  1.1656  0.4863
 2600TIP3   OH229290   0.602   3.560  16.014  0.9954 -0.4736 -0.1925
 2600TIP3    H129291   0.659   3.628  15.975  0.5880 -0.3875 -0.6522
 2600TIP3    H229292   0.536   3.543  15.946 -0.1319  0.1551  0.7129
 2601TIP3   OH229293   6.541   5.301   4.679 -0.5516  0.4677  0.1036
 2601TIP3    H129294   6.485   5.317   4.603 -1.2147 -1.4278  0.1298
 2601TIP3    H229295   6.536   5.206   4.693  0.4757  0.6163  1.8128
 2602TIP3   OH229296   2.845   3.527  14.359  0.4285  0.7799  0.3172
 2602TIP3    H129297   2.760   3.491  14.333  0.4041 -0.7547  2.3130
 2602TIP3    H229298   2.824   3.604  14.410  0.1361 -0.1843  1.7051
 2603TIP3   OH229299   4.328   5.520  17.116  0.5928  0.7530 -0.0938
 2603TIP3    H129300   4.278   5.505  17.196  2.0682 -0.5445  0.6627
 2603TIP3    H229301   4.266   5.505  17.045 -1.1830  3.4704  0.7102
 2604TIP3   OH229302   4.254   5.690  12.761  0.5389  0.0955 -0.4712
 2604TIP3    H129303   4.233   5.599  12.780 -2.3738  0.4893 -1.3468
 2604TIP3    H229304   4.227   5.737  12.841  1.3949  0.2717 -0.2817
 2605TIP3   OH229305   1.442   2.936  17.207 -0.1883  0.4027 -0.5640
 2605TIP3    H129306   1.441   2.863  17.144  2.0339 -0.5160  0.3711
 2605TIP3    H229307   1.429   2.894  17.292  0.9633  1.1168 -0.0240
 2606TIP3   OH229308   1.133   0.416   3.981 -0.5130 -1.0471 -0.0500
 2606TIP3    H129309   1.063   0.414   4.046 -0.3153  0.2798  0.2175
 2606TIP3    H229310   1.173   0.329   3.986 -1.4848 -1.4732  0.5036
 2607TIP3   OH229311   6.489   2.654  12.480  0.2872  0.1264  0.1279
 2607TIP3    H129312   6.567   2.710  12.479  1.9272 -2.0414 -0.7698
 2607TIP3    H229313   6.500   2.598  12.403 -2.3591 -0.0438 -0.1893
 2608TIP3   OH229314   5.685   6.615  17.127 -0.0507  0.1118  0.9375
 2608TIP3    H129315   5.672   6.698  17.081  2.3247 -0.3140 -0.6689
 2608TIP3    H229316   5.779   6.611  17.142 -0.3563 -1.4083  2.8087
 2609TIP3   OH229317   1.327   2.295  13.447 -0.3763 -0.2487  0.7602
 2609TIP3    H129318   1.315   2.365  13.512  0.0298 -0.4109  1.0127
 2609TIP3    H229319   1.253   2.305  13.387 -0.3292  0.3948  0.8000
 2610TIP3   OH229320   3.253   3.899  17.097  0.1477  0.3392 -0.6134
 2610TIP3    H129321   3.276   3.832  17.033 -0.7326 -0.4439 -0.1508
 2610TIP3    H229322   3.323   3.964  17.091  0.4863 -0.1166 -1.7922
 2611TIP3   OH229323   1.764   1.262  16.920  0.2702 -0.1378  0.2470
 2611TIP3    H129324   1.687   1.207  16.935 -0.3015  0.8903  1.1813
 2611TIP3    H229325   1.815   1.254  17.001  0.3430  0.4491  0.2619
 2612TIP3   OH229326   0.624   4.340  14.638  0.5773 -0.7541  0.0597
 2612TIP3    H129327   0.532   4.364  14.649  0.4087 -0.7350 -1.3032
 2612TIP3    H229328   0.671   4.424  14.640  0.5411 -0.7386  0.4148
 2613TIP3   OH229329   3.546   0.455   2.750 -0.2207  0.0862  0.0643
 2613TIP3    H129330   3.471   0.508   2.721 -0.4365 -0.5601 -0.5910
 2613TIP3    H229331   3.517   0.414   2.831 -0.7602 -0.5363 -0.4350
 2614TIP3   OH229332   1.655   2.243  11.304 -1.0184 -0.0289 -0.0401
 2614TIP3    H129333   1.618   2.266  11.219  2.8226  0.7445 -1.6908
 2614TIP3    H229334   1.682   2.327  11.342 -0.1080 -0.6072  0.6237
 2615TIP3   OH229335   3.846   5.163   5.858 -0.7127  0.0863  0.0751
 2615TIP3    H129336   3.839   5.205   5.772  2.2386 -2.1796 -1.4721
 2615TIP3    H229337   3.894   5.226   5.912 -2.4139  1.4480  0.0790
 2616TIP3   OH229338   6.322   2.715   1.529  0.0709  0.3182 -0.0849
 2616TIP3    H129339   6.323   2.777   1.601 -1.3219  0.8800 -0.5055
 2616TIP3    H229340   6.239   2.732   1.484  0.9944  0.1670 -1.9679
 2617TIP3   OH229341   1.364   5.021   3.164 -0.0782 -0.2974 -0.0669
 2617TIP3    H129342   1.419   5.100   3.165 -0.6209  0.0922 -0.5096
 2617TIP3    H229343   1.274   5.054   3.162 -0.3687 -0.9244  1.2044
 2618TIP3   OH229344   1.348   3.048   2.414 -0.0913 -0.5123 -0.0525
 2618TIP3    H129345   1.278   3.073   2.355 -0.7291 -0.6212  0.6403
 2618TIP3    H229346   1.315   2.970   2.458  0.7349 -0.9453 -0.1846
 2619TIP3   OH229347   5.001   2.366  13.093  0.1193  0.1759 -0.9725
 2619TIP3    H129348   5.068   2.434  13.086 -0.9003  1.1714 -1.3600
 2619TIP3    H229349   4.924   2.404  13.050 -0.5532 -1.1276 -0.9596
 2620TIP3   OH229350   4.800   6.042   4.593 -0.1895 -0.2332 -0.1644
 2620TIP3    H129351   4.751   6.121   4.569 -0.7741 -0.1601  1.2016
 2620TIP3    H229352   4.734   5.980   4.623  0.3202 -1.0624 -0.7196
 2621TIP3   OH229353   5.048   1.568  15.578 -0.6929 -0.2612 -0.2490
 2621TIP3    H129354   4.991   1.640  15.550  0.1748 -0.1963 -2.0085
 2621TIP3    H229355   5.135   1.593  15.547 -0.3801 -2.0849 -1.0142
 2622TIP3   OH229356   2.209   5.971  13.662  0.3413  0.3353  0.2099
 2622TIP3    H129357   2.206   5.955  13.756 -2.7834 -1.5843 -0.0493
 2622TIP3    H229358   2.261   5.898  13.627 -2.3145 -1.7258  0.2076
 2623TIP3   OH229359   2.650   6.496  16.973 -0.1035  0.7812 -0.1239
 2623TIP3    H129360   2.588   6.510  16.901 -1.3812  0.0501  0.7726
 2623TIP3    H229361   2.695   6.415  16.950 -2.2131 -0.8154  0.9427
 2624TIP3   OH229362   4.591   3.255  13.207 -0.2206  0.1553 -0.4241
 2624TIP3    H129363   4.585   3.167  13.244 -0.1398  0.1183 -0.5008
 2624TIP3    H229364   4.640   3.244  13.125  1.0320  0.4891  0.2592
 2625TIP3   OH229365   0.489   2.541  11.844 -0.0031  0.1665  0.2429
 2625TIP3    H129366   0.457   2.573  11.928  0.5523  2.1759 -0.2632
 2625TIP3    H229367   0.451   2.601  11.779 -0.9171 -1.6870 -1.0463
 2626TIP3   OH229368   3.518   2.806   0.461 -0.2765  0.4971 -0.0352
 2626TIP3    H129369   3.548   2.894   0.484 -0.5298  0.7102 -0.5039
 2626TIP3    H229370   3.439   2.794   0.513 -1.5116  1.4364 -1.5917
 2627TIP3   OH229371   0.976   6.216  17.266 -0.5991  0.0603  0.1137
 2627TIP3    H129372   0.927   6.266  17.332  0.1930  1.0538 -0.0115
 2627TIP3    H229373   0.932   6.234  17.184 -0.9588 -0.3227  0.2216
 2628TIP3   OH229374   0.765   2.394   2.700 -0.0435  0.2763  0.0614
 2628TIP3    H129375   0.688   2.409   2.755  0.2132  2.9512 -0.1817
 2628TIP3    H229376   0.729   2.379   2.612 -0.3413 -1.4185  0.4323
 2629TIP3   OH229377   2.324   0.511  12.975 -0.3619 -0.4494 -0.0289
 2629TIP3    H129378   2.331   0.493  12.882 -0.0296  0.7354 -0.2518
 2629TIP3    H229379   2.367   0.437  13.018  3.1100  0.8309 -0.9630
 2630TIP3   OH229380   6.365   5.207  14.277  0.4693 -0.0955  1.1427
 2630TIP3    H129381   6.351   5.151  14.200  1.4977  0.5245  0.4896
 2630TIP3    H229382   6.363   5.296  14.243 -0.6770  0.2766  2.1106
 2631TIP3   OH229383   3.162   4.268  16.195  0.1347 -0.0954 -0.1152
 2631TIP3    H129384   3.242   4.218  16.179  0.1367 -0.5675  1.2457
 2631TIP3    H229385   3.190   4.359  16.193  0.6787 -0.2538  0.1960
 2632TIP3   OH229386   3.288   4.757  17.067  0.2885  0.4824 -0.0322
 2632TIP3    H129387   3.349   4.826  17.040  2.0990 -0.6537  0.8783
 2632TIP3    H229388   3.309   4.744  17.160 -0.4471 -0.8458 -0.0412
 2633TIP3   OH229389   0.261   4.744  14.637 -0.1848 -0.1981  0.3975
 2633TIP3    H129390   0.217   4.695  14.706  1.1487  1.5624  2.6342
 2633TIP3    H229391   0.197   4.748  14.566 -1.9502 -1.3864  1.8422
 2634TIP3   OH229392   2.684   0.184   2.138  0.1454 -0.2515 -0.0963
 2634TIP3    H129393   2.707   0.214   2.227  0.8530 -2.3242  0.4718
 2634TIP3    H229394   2.589   0.189   2.136  0.1384  0.2350  0.6097
 2635TIP3   OH229395   6.163   1.536  12.785 -0.2814 -0.5887  0.1230
 2635TIP3    H129396   6.198   1.593  12.717 -1.5209  0.6421  0.4739
 2635TIP3    H229397   6.113   1.470  12.737  1.0939 -1.3738 -0.2805
 2636TIP3   OH229398   1.090   5.687  16.914 -0.1762 -0.3963  0.3807
 2636TIP3    H129399   1.026   5.638  16.862 -0.7082  1.3170 -0.6620
 2636TIP3    H229400   1.104   5.768  16.865  1.0262  0.3091  1.7991
 2637TIP3   OH229401   4.578   4.237   0.211  0.4679 -0.1682  0.4895
 2637TIP3    H129402   4.659   4.285   0.230  0.2729  0.6197 -0.5402
 2637TIP3    H229403   4.522   4.302   0.167 -0.6165 -0.7798  0.9347
 2638TIP3   OH229404   3.414   4.715  15.748  0.2493 -0.5359  0.3905
 2638TIP3    H129405   3.388   4.802  15.779  0.0774 -0.1528 -0.7526
 2638TIP3    H229406   3.331   4.672  15.724  0.2910 -1.2196  1.4314
 2639TIP3   OH229407   3.872   6.357  16.220 -0.2801 -0.7702 -0.0030
 2639TIP3    H129408   3.850   6.423  16.154 -0.9941 -1.0195 -0.0165
 2639TIP3    H229409   3.964   6.337  16.203  0.2919  1.0324  0.7219
 2640TIP3   OH229410   1.326   0.940  11.958  0.3427  0.5580 -0.1175
 2640TIP3    H129411   1.407   0.974  11.921  0.5084 -0.5250 -0.7847
 2640TIP3    H229412   1.334   0.954  12.052  2.0918 -1.1302  0.0394
 2641TIP3   OH229413   1.313   2.384   5.246 -0.3940 -0.6552  0.4157
 2641TIP3    H129414   1.250   2.415   5.180  0.0393 -0.5665  0.0427
 2641TIP3    H229415   1.382   2.342   5.195 -0.0982 -0.6630  0.8230
 2642TIP3   OH229416   6.106   2.344  13.289 -0.0352  0.2289  0.1310
 2642TIP3    H129417   6.088   2.437  13.297  1.7659  0.6946 -0.8752
 2642TIP3    H229418   6.035   2.302  13.338 -1.4478  2.0619 -0.2255
 2643TIP3   OH229419   3.387   3.279  12.502  0.2613 -0.2067 -0.1002
 2643TIP3    H129420   3.345   3.328  12.573  2.2391  1.5912 -0.0466
 2643TIP3    H229421   3.344   3.311  12.423  0.2684  0.2448  0.0741
 2644TIP3   OH229422   4.435   4.701  16.154 -0.2139  0.1770  0.8750
 2644TIP3    H129423   4.467   4.637  16.090 -0.1767  0.8427  0.2106
 2644TIP3    H229424   4.340   4.700  16.143 -0.2689 -0.3000  1.3880
 2645TIP3   OH229425   2.491   2.021  12.818  0.1248  0.2611 -0.4391
 2645TIP3    H129426   2.474   1.943  12.871  2.5673 -0.8628 -1.1698
 2645TIP3    H229427   2.515   2.088  12.882  0.6684 -0.3683  0.0342
 2646TIP3   OH229428   2.124   3.161  15.016 -0.3283  0.6471 -0.5068
 2646TIP3    H129429   2.062   3.161  15.089  1.5566 -0.6565  1.1632
 2646TIP3    H229430   2.176   3.240  15.028 -0.1805  0.5651 -0.6039
 2647TIP3   OH229431   1.168   3.541   2.733  0.5253 -0.1701  0.0579
 2647TIP3    H129432   1.195   3.531   2.642  0.0923  1.7120 -0.3193
 2647TIP3    H229433   1.246   3.518   2.784  1.3707  0.5758 -0.8612
 2648TIP3   OH229434   0.067   3.005  16.022  0.0985  0.2576  0.1607
 2648TIP3    H129435   0.061   2.984  15.929  3.1856 -0.1121 -0.0818
 2648TIP3    H229436   0.149   3.054  16.029 -0.5297  1.0656  2.5835
 2649TIP3   OH229437   1.986   4.043  12.539 -0.2354 -0.0563 -0.5721
 2649TIP3    H129438   1.946   4.026  12.624  2.6999  0.3732  1.0470
 2649TIP3    H229439   2.006   3.955  12.504  0.5049 -0.2394  0.2618
 2650TIP3   OH229440   3.726   6.391  13.981 -0.0526 -0.1418  0.3049
 2650TIP3    H129441   3.755   6.393  14.072  2.1275  0.8750 -0.3368
 2650TIP3    H229442   3.787   6.330  13.939  1.6408  2.4453 -1.2216
 2651TIP3   OH229443   2.627   1.355   2.648 -0.4242  0.1819 -0.2827
 2651TIP3    H129444   2.602   1.300   2.574 -1.7563  1.3028 -0.7220
 2651TIP3    H229445   2.696   1.412   2.613 -0.4030  0.0905 -0.3906
 2652TIP3   OH229446   0.835   5.292  14.069 -0.0643 -0.6571  0.1179
 2652TIP3    H129447   0.920   5.266  14.034 -0.3880 -1.5139 -0.0367
 2652TIP3    H229448   0.800   5.353  14.004  0.5585 -0.0642  0.3298
 2653TIP3   OH229449   0.111   0.852  15.272 -0.0372  0.0963 -0.6796
 2653TIP3    H129450   0.042   0.798  15.311  0.7305  0.1813  0.8847
 2653TIP3    H229451   0.128   0.919  15.338 -0.8224  2.1952 -2.4730
 2654TIP3   OH229452   6.110   1.706   5.494  0.2085 -0.1758  0.2186
 2654TIP3    H129453   6.145   1.683   5.581  0.8297 -2.9193 -0.6567
 2654TIP3    H229454   6.188   1.720   5.440 -0.1739  1.0230 -0.0496
 2655TIP3   OH229455   1.540   4.780  15.130 -0.4764  0.0485  0.5952
 2655TIP3    H129456   1.512   4.784  15.221 -0.0320 -0.3516  0.7514
 2655TIP3    H229457   1.488   4.710  15.091 -1.7839  1.2179  0.1336
 2656TIP3   OH229458   0.699   3.338  13.426  0.2424 -0.5016 -0.0735
 2656TIP3    H129459   0.656   3.312  13.508 -0.5959 -0.7691 -0.5859
 2656TIP3    H229460   0.726   3.256  13.386 -0.2870 -0.4464 -0.5599
 2657TIP3   OH229461   3.123   0.296   3.605 -0.3413  0.1077  1.2296
 2657TIP3    H129462   3.115   0.207   3.639 -4.5821 -0.8449 -1.3639
 2657TIP3    H229463   3.050   0.344   3.645 -0.2223  1.3802  0.0230
 2658TIP3   OH229464   4.954   3.844  11.306 -1.1112 -0.6577  0.5220
 2658TIP3    H129465   4.986   3.926  11.270  0.5072 -0.9520  1.2167
 2658TIP3    H229466   4.897   3.808  11.238 -0.0488 -0.0525 -0.7293
 2659TIP3   OH229467   2.630   4.032   3.278 -0.0975  0.3796  0.0204
 2659TIP3    H129468   2.601   3.983   3.201  1.6910 -2.7541  1.1321
 2659TIP3    H229469   2.721   4.054   3.259  0.0274  0.5447  0.7940
 2660TIP3   OH229470   5.298   6.292   5.011  0.1648 -0.9185  0.3420
 2660TIP3    H129471   5.244   6.363   5.047 -1.9071 -2.2487  0.0005
 2660TIP3    H229472   5.354   6.336   4.947 -0.1979  0.5857  0.9959
 2661TIP3   OH229473   3.856   0.417   0.251  0.6582  0.0687  0.4327
 2661TIP3    H129474   3.803   0.487   0.287  1.0949 -0.0085  1.2626
 2661TIP3    H229475   3.856   0.349   0.319  1.9156  0.1299  0.5204
 2662TIP3   OH229476   2.717   4.015  12.553 -0.4122 -0.1234 -0.0875
 2662TIP3    H129477   2.628   3.999  12.585  0.4452 -1.7759  1.6619
 2662TIP3    H229478   2.744   3.931  12.515  0.5518  0.2209 -0.1802
 2663TIP3   OH229479   3.681   3.411  13.316  0.4694  0.5728 -0.2466
 2663TIP3    H129480   3.608   3.412  13.377 -1.2079 -3.0327 -1.9305
 2663TIP3    H229481   3.666   3.486  13.259 -0.2956  1.4845  1.1040
 2664TIP3   OH229482   5.703   3.766   2.708  0.6208  0.3733 -0.5202
 2664TIP3    H129483   5.715   3.698   2.642  1.2894  0.3599 -0.3942
 2664TIP3    H229484   5.617   3.803   2.689 -0.9477 -2.1961  0.9495
 2665TIP3   OH229485   5.910   6.430   1.891 -0.4709  0.5695  0.3167
 2665TIP3    H129486   5.912   6.519   1.925 -1.5976  0.5974  0.3441
 2665TIP3    H229487   5.865   6.379   1.958  0.9215 -0.2044  0.6877
 2666TIP3   OH229488   3.083   6.236   2.670 -0.3263 -0.1707  1.1205
 2666TIP3    H129489   3.129   6.168   2.621  1.5523  2.5232 -1.1518
 2666TIP3    H229490   3.001   6.248   2.623 -0.2743 -0.2420  1.0121
 2667TIP3   OH229491   3.500   2.982   6.089 -0.3036  0.1410  0.3049
 2667TIP3    H129492   3.486   3.043   6.162  3.2119  1.6618 -0.0961
 2667TIP3    H229493   3.556   2.913   6.126 -0.6557 -0.5035 -0.3378
 2668TIP3   OH229494   3.032   3.564  12.056  0.6267 -0.2863 -0.7217
 2668TIP3    H129495   3.081   3.498  12.007 -0.2090 -1.2720 -0.2517
 2668TIP3    H229496   2.943   3.558  12.023  0.2304 -0.4011  0.3511
 2669TIP3   OH229497   3.449   2.159   0.808  0.2870  0.2381 -0.3708
 2669TIP3    H129498   3.382   2.103   0.769  0.5658  0.5428 -1.3133
 2669TIP3    H229499   3.480   2.214   0.736  2.6078 -0.9151 -0.3316
 2670TIP3   OH229500   4.655   2.264   6.455  0.1877  0.0922 -0.1764
 2670TIP3    H129501   4.600   2.188   6.438  0.6402 -0.3144  0.1210
 2670TIP3    H229502   4.625   2.297   6.540  0.6625 -0.3799  0.1856
 2671TIP3   OH229503   3.614   6.504   2.211 -0.3293 -0.5378 -0.4614
 2671TIP3    H129504   3.601   6.598   2.224 -1.0508 -0.3363 -2.2130
 2671TIP3    H229505   3.530   6.465   2.237  0.1679 -0.7840  0.8227
 2672TIP3   OH229506   3.560   1.616  12.970  0.4742  0.6910 -0.2279
 2672TIP3    H129507   3.554   1.640  12.878 -1.6317 -0.9896 -0.6363
 2672TIP3    H229508   3.624   1.544  12.973  0.3217  0.5455 -0.4483
 2673TIP3   OH229509   1.842   3.423   2.230  0.1094  0.0444 -0.0681
 2673TIP3    H129510   1.846   3.518   2.246  3.2350  0.1532 -0.9991
 2673TIP3    H229511   1.863   3.413   2.138  0.7377 -1.6060  0.2264
 2674TIP3   OH229512   5.145   5.995  14.359 -0.3896  0.1024  0.0104
 2674TIP3    H129513   5.090   6.063  14.319  1.5548  1.5901 -0.2870
 2674TIP3    H229514   5.120   5.914  14.314 -2.8845  0.5464  0.4735
 2675TIP3   OH229515   6.196   2.238  12.237 -0.2166  0.3170 -0.4229
 2675TIP3    H129516   6.281   2.213  12.202  1.1244  0.3284  2.5154
 2675TIP3    H229517   6.216   2.298  12.308 -2.8139  1.5116 -0.6039
 2676TIP3   OH229518   1.647   0.459  11.238 -0.3605 -0.0390 -0.1895
 2676TIP3    H129519   1.597   0.473  11.158  1.4057  2.0480 -1.0386
 2676TIP3    H229520   1.671   0.366  11.237  0.0824  0.0561 -2.3973
 2677TIP3   OH229521   4.957   2.186   3.032 -0.1792 -0.6060 -0.1912
 2677TIP3    H129522   4.950   2.164   3.125 -0.8365  1.6303  0.3587
 2677TIP3    H229523   4.872   2.226   3.012  0.7339  0.9230 -1.1569
 2678TIP3   OH229524   0.349   2.126  13.957 -0.3274 -0.2121 -0.2028
 2678TIP3    H129525   0.376   2.113  13.866 -0.9501  1.1669 -0.6046
 2678TIP3    H229526   0.295   2.205  13.956  1.5363  1.2124  1.7117
 2679TIP3   OH229527   3.506   4.816  14.182  0.0308  0.3311  0.6048
 2679TIP3    H129528   3.412   4.832  14.196 -0.0034  0.2470  0.4672
 2679TIP3    H229529   3.510   4.762  14.104  0.2949  1.9879 -0.5739
 2680TIP3   OH229530   2.973   4.489  11.813  0.0906 -0.4567 -0.7711
 2680TIP3    H129531   2.920   4.520  11.739  1.2622 -0.9642 -1.8611
 2680TIP3    H229532   2.910   4.451  11.874 -0.8682 -0.3435 -1.6698
 2681TIP3   OH229533   2.882   2.440  14.220 -0.1609 -0.0737 -0.3050
 2681TIP3    H129534   2.789   2.451  14.239 -0.3602 -0.4052 -1.0407
 2681TIP3    H229535   2.902   2.511  14.159  1.1865  2.8948  3.2550
 2682TIP3   OH229536   3.632   3.621  14.134  0.0176 -0.0108  0.1896
 2682TIP3    H129537   3.543   3.651  14.119 -0.6005 -1.1236  1.4522
 2682TIP3    H229538   3.664   3.675  14.206  1.2184  1.9219 -1.6523
 2683TIP3   OH229539   0.855   1.705   3.057 -0.1388 -0.4581 -0.3194
 2683TIP3    H129540   0.866   1.746   3.143  1.0520 -0.8349 -0.2711
 2683TIP3    H229541   0.943   1.675   3.034 -0.6164 -1.1821 -1.2532
 2684TIP3   OH229542   4.529   6.501  12.567  0.4709  0.3160 -0.2869
 2684TIP3    H129543   4.545   6.580  12.515 -0.7216  1.5187  1.1105
 2684TIP3    H229544   4.462   6.527  12.630  1.3152 -1.3206  1.3477
 2685TIP3   OH229545   1.299   5.364  15.797 -0.1193  0.0018  0.0590
 2685TIP3    H129546   1.303   5.410  15.713  1.1321 -1.3396 -0.6413
 2685TIP3    H229547   1.366   5.405  15.850  2.2801 -2.0576 -1.1720
 2686TIP3   OH229548   1.541   5.740  11.659 -0.6027 -0.4013 -0.1300
 2686TIP3    H129549   1.465   5.792  11.632  0.3646  2.1981  1.7314
 2686TIP3    H229550   1.609   5.761  11.595 -0.8005 -0.9872 -0.5354
 2687TIP3   OH229551   2.522   0.322  15.618  0.0353  0.1584  0.0659
 2687TIP3    H129552   2.604   0.281  15.591 -0.0992  0.1681 -0.3632
 2687TIP3    H229553   2.498   0.379  15.545  0.6002  1.5846  0.9536
 2688TIP3   OH229554   3.943   6.218  12.664 -0.1462  0.4898  0.0325
 2688TIP3    H129555   3.922   6.124  12.671  2.0214 -0.0092  0.6474
 2688TIP3    H229556   3.919   6.255  12.749 -1.1327  0.5358 -0.2580
 2689TIP3   OH229557   4.627   3.699   2.476 -0.1735 -0.3939  0.3542
 2689TIP3    H129558   4.569   3.628   2.501  0.1593 -1.5330 -1.8906
 2689TIP3    H229559   4.677   3.665   2.402  1.3550  1.5343  0.4092
 2690TIP3   OH229560   5.233   2.631   4.659 -0.0728 -0.2961  0.4878
 2690TIP3    H129561   5.324   2.648   4.682 -0.2185  0.8119  0.3317
 2690TIP3    H229562   5.193   2.718   4.654 -1.0727 -0.7488  0.2835
 2691TIP3   OH229563   0.925   0.692  12.520  0.3398 -0.0125 -0.0107
 2691TIP3    H129564   1.010   0.716  12.558  1.1238 -1.3800 -0.8139
 2691TIP3    H229565   0.947   0.662  12.431 -0.9663 -0.6104 -0.1504
 2692TIP3   OH229566   6.190   2.737   5.740 -0.0698 -0.2284 -0.2133
 2692TIP3    H129567   6.130   2.704   5.673  1.3201 -1.4668 -0.8966
 2692TIP3    H229568   6.248   2.664   5.759  0.6753  0.6561  1.0778
 2693TIP3   OH229569   0.388   5.649   3.405 -0.1300 -1.0203 -0.4547
 2693TIP3    H129570   0.480   5.669   3.384  0.3703 -2.7548 -0.0798
 2693TIP3    H229571   0.391   5.620   3.496 -1.2961  0.2530  0.0163
 2694TIP3   OH229572   0.080   1.238   5.198  0.2154  0.0125 -0.1716
 2694TIP3    H129573   0.006   1.298   5.192  0.4477  0.1838 -1.5516
 2694TIP3    H229574   0.154   1.286   5.163  0.8999 -0.3348  0.7280
 2695TIP3   OH229575   6.006   2.758  12.847 -0.1674  0.4802  0.6331
 2695TIP3    H129576   6.101   2.756  12.857  0.0460  0.6199 -1.0855
 2695TIP3    H229577   5.981   2.848  12.867  0.0705  0.4965  0.8690
 2696TIP3   OH229578   6.617   4.734   1.683 -0.1156  0.1001  0.1357
 2696TIP3    H129579   6.596   4.742   1.776 -0.9894  0.1080 -0.0541
 2696TIP3    H229580   6.538   4.697   1.644  0.3954 -0.3001 -0.5416
 2697TIP3   OH229581   4.164   3.310   1.826  0.1310  0.2306  0.4856
 2697TIP3    H129582   4.205   3.245   1.882  0.3440 -0.5202 -0.5047
 2697TIP3    H229583   4.236   3.369   1.801  0.4070 -0.4237 -0.3327
 2698TIP3   OH229584   5.572   0.968   2.083  0.5218  0.1307  0.2570
 2698TIP3    H129585   5.584   1.004   2.171 -2.6734  0.1853  0.8035
 2698TIP3    H229586   5.650   0.995   2.035  1.9108  0.9674  2.7626
 2699TIP3   OH229587   0.959   6.327  12.226 -0.5386 -0.1381 -0.3007
 2699TIP3    H129588   0.866   6.347  12.217 -0.8730 -1.6638 -0.5016
 2699TIP3    H229589   0.969   6.297  12.316 -0.0802  0.6917 -0.0590
 2700TIP3   OH229590   0.868   3.557  16.142  0.1826 -0.2625  0.4050
 2700TIP3    H129591   0.789   3.518  16.105  0.3949 -1.1189  0.8229
 2700TIP3    H229592   0.839   3.640  16.181 -1.0415 -1.6898  2.7856
 2701TIP3   OH229593   5.034   3.503  15.173  0.2012 -0.1449  0.3550
 2701TIP3    H129594   5.023   3.492  15.079 -0.5488 -2.2135  0.6347
 2701TIP3    H229595   5.116   3.552  15.182  0.0244  0.5095 -1.3672
 2702TIP3   OH229596   2.584   6.374  13.611 -0.2888 -0.5133  0.7082
 2702TIP3    H129597   2.595   6.397  13.704  1.2579 -0.8967  0.6534
 2702TIP3    H229598   2.589   6.279  13.609 -2.8239 -0.7099  0.4814
 2703TIP3   OH229599   3.857   5.704   2.932  0.0506 -0.7231 -0.2511
 2703TIP3    H129600   3.902   5.700   3.017 -1.5291 -0.5130  0.6432
 2703TIP3    H229601   3.782   5.761   2.948 -0.6581 -1.2339 -1.6121
 2704TIP3   OH229602   4.087   6.677  12.494 -0.2855  0.4526  0.0635
 2704TIP3    H129603   4.123   6.715  12.414 -1.5345  0.7517 -0.3777
 2704TIP3    H229604   4.007   6.634  12.466 -0.3841 -0.0337  1.0485
 2705TIP3   OH229605   2.374   5.631   5.329  0.0374 -0.4412 -0.0252
 2705TIP3    H129606   2.419   5.611   5.412 -0.5106  0.1689  0.4247
 2705TIP3    H229607   2.341   5.546   5.299 -2.5972 -0.2809  2.0526
 2706TIP3   OH229608   1.103   1.043   5.223 -0.0745 -0.2870  0.1043
 2706TIP3    H129609   1.105   1.014   5.314  1.9731 -0.2506  0.1185
 2706TIP3    H229610   1.138   1.132   5.225 -2.1240  0.5872 -0.4806
 2707TIP3   OH229611   4.970   0.193   3.656 -0.1427  0.3639  0.0775
 2707TIP3    H129612   4.956   0.259   3.725 -0.6014  0.9052 -0.5273
 2707TIP3    H229613   5.052   0.150   3.681 -0.8931 -0.2579  1.6053
 2708TIP3   OH229614   5.198   4.509  15.377  0.4060  0.0286 -0.1478
 2708TIP3    H129615   5.197   4.564  15.455 -0.1553  1.1748 -0.9459
 2708TIP3    H229616   5.108   4.508  15.346  0.7709  0.2859 -1.2664
 2709TIP3   OH229617   6.538   1.219  10.717  0.3190  0.2350 -0.0246
 2709TIP3    H129618   6.543   1.279  10.642  0.3206 -1.2599 -1.2890
 2709TIP3    H229619   6.453   1.237  10.757 -0.3184  0.1063 -1.2694
 2710TIP3   OH229620   2.388   2.491  12.419 -0.1865 -0.2027  0.1992
 2710TIP3    H129621   2.354   2.458  12.502 -0.8005  0.4987  0.2338
 2710TIP3    H229622   2.416   2.580  12.438  1.1637 -0.5689  0.0327
 2711TIP3   OH229623   6.355   2.983  10.869  0.3728 -0.3867 -0.2542
 2711TIP3    H129624   6.432   3.014  10.822  0.2387 -2.5446 -2.0607
 2711TIP3    H229625   6.301   2.941  10.802 -1.2366 -1.0200  1.3552
 2712TIP3   OH229626   0.242   3.465  14.905  0.8334 -0.0011  0.0342
 2712TIP3    H129627   0.195   3.413  14.839  0.8571 -0.9067  0.7158
 2712TIP3    H229628   0.328   3.480  14.866  0.4473  0.5106 -0.6471
 2713TIP3   OH229629   4.675   0.422   5.049  0.1085 -0.4243  0.1186
 2713TIP3    H129630   4.637   0.351   4.998  0.0029  0.4673 -1.0887
 2713TIP3    H229631   4.765   0.428   5.019  0.0092  0.1925 -0.0720
 2714TIP3   OH229632   1.109   3.210  14.633 -0.4830  0.3867  0.5959
 2714TIP3    H129633   1.104   3.239  14.724 -1.8135  2.2639 -0.0232
 2714TIP3    H229634   1.027   3.162  14.619 -0.9227  1.2735  0.0425
 2715TIP3   OH229635   2.894   1.824  16.862  0.2618  0.5469 -0.0458
 2715TIP3    H129636   2.801   1.843  16.847  0.3210  0.5714 -0.4121
 2715TIP3    H229637   2.895   1.755  16.928  0.0536  2.0848  1.6307
 2716TIP3   OH229638   3.172   3.570   2.453 -0.2154  0.3028 -0.2112
 2716TIP3    H129639   3.197   3.662   2.456  1.7753 -0.2112  2.2908
 2716TIP3    H229640   3.118   3.557   2.531 -2.3004 -0.2615 -1.6642
 2717TIP3   OH229641   3.070   0.645  16.197  0.0463  0.0859  0.1467
 2717TIP3    H129642   3.066   0.697  16.277 -1.0346  1.1407 -0.5620
 2717TIP3    H229643   2.982   0.607  16.189 -0.4567  1.4530 -1.4466
 2718TIP3   OH229644   0.502   0.732   2.482  0.4508 -0.8376  0.2527
 2718TIP3    H129645   0.512   0.744   2.576  2.1143 -2.9071  0.4073
 2718TIP3    H229646   0.569   0.668   2.458 -0.4856 -1.0259 -2.2041
 2719TIP3   OH229647   4.668   6.789  16.476  0.0171  0.1458 -0.5946
 2719TIP3    H129648   4.666   6.757  16.566  1.5044  1.5649 -0.0013
 2719TIP3    H229649   4.742   6.850  16.474 -1.6869  2.3141 -2.0265
 2720TIP3   OH229650   2.683   3.181  14.417 -0.2676  0.1849 -0.8310
 2720TIP3    H129651   2.638   3.265  14.409  1.2115  1.1954  0.6461
 2720TIP3    H229652   2.670   3.156  14.509  0.4755 -0.4685 -0.8960
 2721TIP3   OH229653   5.425   5.256  15.733  0.4903  0.4058 -0.2842
 2721TIP3    H129654   5.512   5.294  15.740  0.1132  1.1509  0.4999
 2721TIP3    H229655   5.425   5.212  15.648  1.1811  1.5502 -0.9023
 2722TIP3   OH229656   4.160   0.333  11.240 -0.4160 -0.2821  0.9418
 2722TIP3    H129657   4.159   0.313  11.334 -1.3012 -1.0138  0.7947
 2722TIP3    H229658   4.074   0.305  11.209  0.0524 -0.5328 -0.1875
 2723TIP3   OH229659   5.022   4.392  11.238 -0.3587  0.9751 -0.1282
 2723TIP3    H129660   5.107   4.435  11.227  0.0487  0.0187 -0.9245
 2723TIP3    H229661   4.971   4.421  11.163  1.0678 -2.4333 -2.7248
 2724TIP3   OH229662   2.955   3.588  13.859 -0.2884  0.2567 -0.2516
 2724TIP3    H129663   2.934   3.677  13.886 -0.4776 -0.1523  1.0490
 2724TIP3    H229664   2.878   3.559  13.811 -0.4426  0.6266 -0.2317
 2725TIP3   OH229665   1.672   5.053   5.316  0.3038 -0.2442 -0.0902
 2725TIP3    H129666   1.647   5.116   5.383  1.2885  1.2866 -1.1086
 2725TIP3    H229667   1.600   4.990   5.314 -1.7316  1.9667 -0.4284
 2726TIP3   OH229668   6.608   0.746   3.978 -0.1865  0.2141  0.0114
 2726TIP3    H129669   6.629   0.827   4.024  0.9763  0.4358 -0.8625
 2726TIP3    H229670   6.544   0.771   3.912  0.1603  0.4326 -0.2474
 2727TIP3   OH229671   1.021   2.715   4.597 -0.4581  0.3752 -0.3072
 2727TIP3    H129672   1.022   2.691   4.504  0.1609 -0.2403 -0.1471
 2727TIP3    H229673   1.043   2.634   4.643  3.2684  1.5041  0.1744
 2728TIP3   OH229674   1.941   4.949   2.860  0.4468  0.3684  0.2057
 2728TIP3    H129675   2.028   4.937   2.899 -0.5721 -0.9603  2.2334
 2728TIP3    H229676   1.917   5.039   2.882  1.0689  0.5654  0.1114
 2729TIP3   OH229677   5.394   5.548   2.702  0.1623  0.3372  0.0915
 2729TIP3    H129678   5.381   5.641   2.718 -0.6536 -0.0031  1.6663
 2729TIP3    H229679   5.427   5.515   2.786  2.5239 -0.4416 -1.0588
 2730TIP3   OH229680   2.748   3.499  11.922 -0.2255 -0.1947 -0.7106
 2730TIP3    H129681   2.662   3.482  11.961 -0.6004  1.1054 -0.9096
 2730TIP3    H229682   2.753   3.438  11.849  0.6399 -2.9559  1.4649
 2731TIP3   OH229683   1.762   1.294   2.819 -0.0647  0.0166 -0.1394
 2731TIP3    H129684   1.737   1.221   2.764  0.6017 -0.4388  0.1525
 2731TIP3    H229685   1.754   1.371   2.763 -0.9870 -0.2416 -0.3792
 2732TIP3   OH229686   4.984   1.838  11.420  0.1691 -0.0679 -0.1925
 2732TIP3    H129687   5.067   1.886  11.426  0.4761 -0.1935 -2.5415
 2732TIP3    H229688   4.922   1.902  11.385 -0.3784 -0.3738  0.2032
 2733TIP3   OH229689   6.482   0.851  16.257  0.3583  0.1465  0.0762
 2733TIP3    H129690   6.386   0.845  16.265  0.4948 -2.1309  0.7444
 2733TIP3    H229691   6.496   0.881  16.168 -0.9728  1.2640  0.1986
 2734TIP3   OH229692   1.141   4.197   1.546  0.2541  0.0780  0.2754
 2734TIP3    H129693   1.058   4.158   1.574 -0.0076  1.2198  1.1514
 2734TIP3    H229694   1.159   4.156   1.461 -1.6973  0.5229 -0.3948
 2735TIP3   OH229695   6.663   1.405  15.507  0.0082 -0.2008  0.1986
 2735TIP3    H129696   6.598   1.334  15.504  0.2027 -0.5176  2.1038
 2735TIP3    H229697   6.626   1.473  15.451  0.1263 -2.0149 -2.2130
 2736TIP3   OH229698   2.587   6.323   5.612 -0.1042 -0.0409  0.0829
 2736TIP3    H129699   2.513   6.378   5.637  0.2187  0.9561 -1.0339
 2736TIP3    H229700   2.652   6.337   5.680 -0.6917 -0.4298  0.7348
 2737TIP3   OH229701   4.587   2.524  12.456 -0.0135  0.1489  0.4853
 2737TIP3    H129702   4.587   2.617  12.433 -1.3114  0.2300  0.6947
 2737TIP3    H229703   4.510   2.489  12.410  0.6349 -0.8889  0.1698
 2738TIP3   OH229704   0.092   1.950   3.458 -0.0356 -0.6139  0.3573
 2738TIP3    H129705   0.141   1.868   3.458  0.7553 -0.1412  0.8364
 2738TIP3    H229706   0.014   1.931   3.511 -0.4622 -1.4021 -0.5167
 2739TIP3   OH229707   6.598   4.585  12.812 -0.5118  0.1105  0.1292
 2739TIP3    H129708   6.652   4.572  12.733  0.7324  1.1580  0.7630
 2739TIP3    H229709   6.651   4.549  12.883 -1.1341  0.1812  0.6338
 2740TIP3   OH229710   4.707   5.793   5.645  0.4246 -0.1138 -0.8345
 2740TIP3    H129711   4.757   5.864   5.686 -0.6887 -0.1733  0.7122
 2740TIP3    H229712   4.670   5.744   5.719 -1.0304 -0.7153 -1.9213
 2741TIP3   OH229713   3.812   2.463  13.674 -0.1394 -0.2288  0.2576
 2741TIP3    H129714   3.835   2.371  13.657  1.4105  0.0820  0.5104
 2741TIP3    H229715   3.726   2.474  13.633 -0.0982 -1.6403 -0.2718
 2742TIP3   OH229716   5.851   1.613  15.959 -0.4935  0.1579 -0.1328
 2742TIP3    H129717   5.811   1.557  16.026  0.0176 -0.5224 -0.3841
 2742TIP3    H229718   5.882   1.552  15.892  0.2573  0.7275 -0.3170
 2743TIP3   OH229719   4.265   1.423   4.399 -0.5081 -0.0264  0.2529
 2743TIP3    H129720   4.169   1.424   4.397 -0.5087  0.3886 -1.7828
 2743TIP3    H229721   4.289   1.356   4.334  0.6133 -1.6108  2.1807
 2744TIP3   OH229722   3.684   6.082  13.831 -0.3258  0.2188 -0.0846
 2744TIP3    H129723   3.773   6.065  13.863 -0.3536  1.7618  0.9117
 2744TIP3    H229724   3.698   6.119  13.744  0.1191  1.7563  0.6095
 2745TIP3   OH229725   4.978   3.726  16.712  0.3185 -0.2257  0.1757
 2745TIP3    H129726   4.998   3.717  16.805  0.6896 -0.6117  0.0581
 2745TIP3    H229727   4.933   3.645  16.689  1.2342 -0.6291 -0.2423
 2746TIP3   OH229728   2.178   6.450  10.642 -0.1845  0.1656 -0.8628
 2746TIP3    H129729   2.160   6.513  10.572 -0.0301 -0.2535 -1.2893
 2746TIP3    H229730   2.245   6.493  10.695  0.3311  0.1337 -1.4723
 2747TIP3   OH229731   3.868   6.429   2.328  0.3037  0.3296 -0.6647
 2747TIP3    H129732   3.854   6.345   2.371  0.5054 -0.4576 -2.1007
 2747TIP3    H229733   3.780   6.461   2.310  0.2251  0.4781 -0.0386
 2748TIP3   OH229734   1.548   3.625   4.327 -0.7151 -0.6278 -0.0198
 2748TIP3    H129735   1.578   3.560   4.391  2.3952 -0.1371 -0.8011
 2748TIP3    H229736   1.593   3.601   4.246 -1.1347  1.2698 -0.8700
 2749TIP3   OH229737   1.059   5.684   4.767  0.4982  0.5099 -0.1172
 2749TIP3    H129738   1.039   5.597   4.801 -0.4846  1.1170  0.9070
 2749TIP3    H229739   1.066   5.671   4.672 -0.1724 -0.5927 -0.0358
 2750TIP3   OH229740   3.594   1.564   2.400  0.8124  0.0243  0.2333
 2750TIP3    H129741   3.652   1.510   2.347  0.2096 -0.7342  0.3276
 2750TIP3    H229742   3.653   1.616   2.455  1.4100 -0.1911 -0.1992
 2751TIP3   OH229743   5.775   5.856   4.181 -0.3948 -0.1479  0.4342
 2751TIP3    H129744   5.689   5.895   4.165  0.0929  0.0256 -2.4046
 2751TIP3    H229745   5.757   5.782   4.239 -2.7002 -0.8013 -0.9440
 2752TIP3   OH229746   6.673   2.279   2.046  0.1129 -0.6856 -0.1148
 2752TIP3    H129747   6.598   2.318   2.092  1.2037  1.6554 -0.1673
 2752TIP3    H229748   6.746   2.288   2.108  1.6285  2.5313 -2.0829
 2753TIP3   OH229749   5.815   6.068   5.123 -0.2233 -0.0984  0.1296
 2753TIP3    H129750   5.721   6.072   5.139 -0.3044 -1.1862  0.0054
 2753TIP3    H229751   5.835   6.148   5.075 -0.9345  0.5465  0.8617
 2754TIP3   OH229752   3.910   2.473  10.974 -0.1498  0.3677 -0.3268
 2754TIP3    H129753   3.994   2.448  10.934 -0.3557  1.3535 -1.4350
 2754TIP3    H229754   3.861   2.513  10.902 -1.0056  1.1139  0.6501
 2755TIP3   OH229755   5.492   6.606   0.536 -0.2590  0.0400 -0.1890
 2755TIP3    H129756   5.474   6.604   0.442 -0.2376  2.8905 -0.3224
 2755TIP3    H229757   5.436   6.676   0.570 -0.8276 -1.4174  2.0910
 2756TIP3   OH229758   3.422   5.561   1.880  0.6936  0.0633 -0.9917
 2756TIP3    H129759   3.451   5.629   1.942 -1.3508 -0.4708  0.6637
 2756TIP3    H229760   3.333   5.541   1.907  0.8235 -2.4699 -2.1945
 2757TIP3   OH229761   1.140   2.745   1.365  0.3589 -0.3894  0.4032
 2757TIP3    H129762   1.180   2.671   1.410  0.1223 -0.9041 -0.2243
 2757TIP3    H229763   1.069   2.774   1.424  0.8665 -0.2386  0.9505
 2758TIP3   OH229764   4.151   1.934   2.706  0.1082 -0.1835 -0.2388
 2758TIP3    H129765   4.151   1.896   2.618 -2.4767  0.9722 -0.8269
 2758TIP3    H229766   4.243   1.946   2.727  0.9324 -3.4307 -1.4313
 2759TIP3   OH229767   5.654   3.091  10.355 -0.0509 -0.0057 -0.2614
 2759TIP3    H129768   5.642   3.029  10.427 -0.2882  0.2419 -0.0859
 2759TIP3    H229769   5.566   3.108  10.323 -0.2068  1.7095  0.9381
 2760TIP3   OH229770   4.301   5.534  12.392  0.3969 -0.0016  0.4696
 2760TIP3    H129771   4.260   5.516  12.308 -0.0115 -1.4691  0.9689
 2760TIP3    H229772   4.331   5.625  12.384  1.0520 -0.3338 -1.5272
 2761TIP3   OH229773   2.908   2.303   1.511  0.6909 -0.1098 -0.4394
 2761TIP3    H129774   2.864   2.335   1.590 -1.1384 -1.2358 -0.9221
 2761TIP3    H229775   2.972   2.371   1.490  0.1726  0.9391  1.1488
 2762TIP3   OH229776   3.522   6.410   0.593 -0.2701 -0.4236  0.2607
 2762TIP3    H129777   3.596   6.385   0.648 -0.3081 -0.0295  0.4960
 2762TIP3    H229778   3.468   6.465   0.650 -0.0135  0.4796 -0.3399
 2763TIP3   OH229779   4.469   2.517  13.233  0.0418  0.4942  1.1616
 2763TIP3    H129780   4.460   2.500  13.326  0.1203 -2.6837  0.6798
 2763TIP3    H229781   4.502   2.435  13.196  1.0339  1.9741 -1.5302
 2764TIP3   OH229782   5.155   6.806   2.161  0.6307 -0.2536 -0.3774
 2764TIP3    H129783   5.183   6.733   2.106 -0.6254  0.7830 -2.5076
 2764TIP3    H229784   5.185   6.885   2.115 -0.9293  0.6687  0.1082
 2765TIP3   OH229785   0.943   6.610  16.959  0.0299 -0.4406 -0.0952
 2765TIP3    H129786   0.911   6.681  17.013  0.7090 -0.3358  0.1794
 2765TIP3    H229787   0.872   6.592  16.898 -0.2569  0.2802  0.0177
 2766TIP3   OH229788   0.422   2.859  14.816 -0.6734  0.0045 -0.2313
 2766TIP3    H129789   0.415   2.949  14.845 -2.5004  0.0952 -0.7887
 2766TIP3    H229790   0.445   2.809  14.894  1.0874  1.0083 -0.0710
 2767TIP3   OH229791   4.629   3.638   5.496 -0.1374 -0.6372 -0.0439
 2767TIP3    H129792   4.551   3.591   5.524 -0.3468 -0.1829  0.1380
 2767TIP3    H229793   4.625   3.636   5.401  0.3805 -1.8578 -0.0588
 2768TIP3   OH229794   5.568   0.658  13.567 -0.0836 -0.0262 -0.3995
 2768TIP3    H129795   5.559   0.641  13.473  1.5533  0.4774 -0.6658
 2768TIP3    H229796   5.480   0.641  13.602 -0.9913  0.7452 -2.1553
 2769TIP3   OH229797   2.053   1.336  16.363  0.2234 -0.3686  0.3812
 2769TIP3    H129798   1.965   1.299  16.360 -0.6396  1.5262  0.8777
 2769TIP3    H229799   2.091   1.304  16.445  0.2368 -1.6622 -0.1190
 2770TIP3   OH229800   5.617   3.571  15.747  0.2682  0.4519 -0.0787
 2770TIP3    H129801   5.611   3.662  15.717  0.1753  0.2451 -0.7031
 2770TIP3    H229802   5.577   3.520  15.676 -1.4243  0.0705  1.0972
 2771TIP3   OH229803   6.016   5.215   2.581 -0.0472 -0.0762  0.2973
 2771TIP3    H129804   6.032   5.128   2.618 -0.5582 -1.6425 -2.8200
 2771TIP3    H229805   5.956   5.256   2.644  1.0599 -1.4788  2.4169
 2772TIP3   OH229806   4.589   1.381   1.290 -0.1847  0.0392 -0.1652
 2772TIP3    H129807   4.547   1.342   1.214  0.2758  0.6997 -0.7795
 2772TIP3    H229808   4.601   1.473   1.265  1.3546 -0.0710  0.0830
 2773TIP3   OH229809   5.072   4.937  12.091  0.0193  0.8399 -0.0184
 2773TIP3    H129810   5.101   5.028  12.088 -0.1290  0.8707 -1.6721
 2773TIP3    H229811   5.136   4.893  12.146  0.3636  1.8452  0.4198
 2774TIP3   OH229812   4.562   2.260  16.050  0.0548  0.0221  0.0488
 2774TIP3    H129813   4.541   2.170  16.025 -0.7859 -0.4613  2.3082
 2774TIP3    H229814   4.637   2.253  16.108  0.9680  0.9711 -0.9485
 2775TIP3   OH229815   6.005   6.233  11.420 -0.5320 -0.1817  0.3537
 2775TIP3    H129816   5.930   6.294  11.417 -0.8122 -0.3964  2.1053
 2775TIP3    H229817   6.040   6.235  11.331 -1.9360  0.7878 -0.2253
 2776TIP3   OH229818   6.319   1.883   0.392 -0.4980 -0.5600 -0.0878
 2776TIP3    H129819   6.326   1.831   0.472 -2.0594 -0.9300 -0.1512
 2776TIP3    H229820   6.397   1.861   0.342 -0.3062 -1.5720  0.6194
 2777TIP3   OH229821   5.363   2.224   2.828 -0.7458 -0.0789  0.6870
 2777TIP3    H129822   5.310   2.265   2.759 -2.2112 -1.1835  1.1016
 2777TIP3    H229823   5.451   2.258   2.813 -1.0207 -0.1953 -1.6913
 2778TIP3   OH229824   1.082   3.131  12.508 -0.0366  0.1202 -0.7661
 2778TIP3    H129825   1.117   3.146  12.596 -1.0995 -2.8471  0.2949
 2778TIP3    H229826   1.104   3.040  12.489 -0.2277  0.5618 -3.4463
 2779TIP3   OH229827   2.048   3.055   0.003  0.1290  0.3183  0.5536
 2779TIP3    H129828   2.134   3.030  -0.031  1.1774 -0.2588  3.3625
 2779TIP3    H229829   1.991   3.054  -0.074  2.5818  0.6610 -1.4109
 2780TIP3   OH229830   3.956   5.763  14.123 -0.0627  0.0526  0.1221
 2780TIP3    H129831   3.941   5.669  14.131  0.2720  0.1109  1.6805
 2780TIP3    H229832   4.022   5.783  14.189 -0.4698  1.4574  0.1374
 2781TIP3   OH229833   3.497   1.907   1.459  0.5726 -0.6895  0.8715
 2781TIP3    H129834   3.570   1.872   1.407  0.7768  1.4320 -0.4190
 2781TIP3    H229835   3.438   1.833   1.471  0.1188 -1.2302 -3.1675
 2782TIP3   OH229836   5.144   4.287   6.134 -0.0390  0.5838 -0.1177
 2782TIP3    H129837   5.158   4.223   6.205 -2.2629  1.8659  1.6304
 2782TIP3    H229838   5.094   4.239   6.069  1.4369 -0.4227 -0.5704
 2783TIP3   OH229839   5.371   1.712  15.281 -0.1484  0.2333  0.4694
 2783TIP3    H129840   5.413   1.779  15.227 -0.7377 -0.1551 -0.4968
 2783TIP3    H229841   5.279   1.713  15.254 -0.4104 -0.1309  1.3096
 2784TIP3   OH229842   2.284   3.639  13.932  0.3699  0.6115  0.0235
 2784TIP3    H129843   2.279   3.725  13.975  2.2771  0.2480  1.0600
 2784TIP3    H229844   2.221   3.585  13.980 -0.3878  1.2532 -0.2297
 2785TIP3   OH229845   5.430   3.965   3.598 -0.2854 -0.5856  0.4894
 2785TIP3    H129846   5.487   4.040   3.581  0.5594 -1.1794  0.6286
 2785TIP3    H229847   5.490   3.895   3.624 -1.1718 -0.8949  1.8233
 2786TIP3   OH229848   3.299   6.773  12.742  0.1386 -0.1206  0.9168
 2786TIP3    H129849   3.371   6.783  12.680 -1.0666 -2.2571 -0.9814
 2786TIP3    H229850   3.276   6.863  12.766  0.1763  0.9279 -2.4211
 2787TIP3   OH229851   4.615   1.251  14.188  0.1485  0.0066 -0.0633
 2787TIP3    H129852   4.675   1.312  14.231 -1.4824  1.6754 -0.0132
 2787TIP3    H229853   4.556   1.223  14.259  0.9738 -1.8294 -0.0459
 2788TIP3   OH229854   2.706   1.184  10.382  0.1048 -0.0123  0.0527
 2788TIP3    H129855   2.695   1.247  10.311 -1.6036  0.6235  0.8091
 2788TIP3    H229856   2.657   1.107  10.353  1.8996 -0.9020 -0.7182
 2789TIP3   OH229857   4.853   5.475   2.580 -0.4768  0.1756  0.3592
 2789TIP3    H129858   4.876   5.520   2.499  0.1169 -2.8070 -1.2981
 2789TIP3    H229859   4.765   5.440   2.563  0.5544 -2.4287 -0.0237
 2790TIP3   OH229860   4.803   1.966   6.400  0.0546  0.2368 -0.3753
 2790TIP3    H129861   4.814   1.905   6.472  0.8486  0.9195  0.0925
 2790TIP3    H229862   4.715   2.002   6.412  0.6539  1.2970  1.0096
 2791TIP3   OH229863   5.686   3.133   2.666 -0.3907 -0.0506  0.6708
 2791TIP3    H129864   5.727   3.074   2.602 -1.4865  0.1137 -0.2162
 2791TIP3    H229865   5.653   3.206   2.614 -0.6193  0.4696  1.5292
 2792TIP3   OH229866   1.792   1.929   5.787  0.0007  0.4164  0.6205
 2792TIP3    H129867   1.849   1.895   5.718 -0.6757  0.7169 -0.0973
 2792TIP3    H229868   1.808   1.872   5.862 -0.8999 -1.3207 -0.4517
 2793TIP3   OH229869   4.439   1.925   2.678  0.2412 -0.1739  0.5656
 2793TIP3    H129870   4.441   1.829   2.677 -0.6964 -0.2285  1.7978
 2793TIP3    H229871   4.528   1.951   2.701  0.2443 -0.7763  1.2560
 2794TIP3   OH229872   4.830   6.312  16.826  0.3699  0.4461 -0.0493
 2794TIP3    H129873   4.873   6.392  16.797  0.9118  0.5053  0.8867
 2794TIP3    H229874   4.748   6.310  16.777  0.0461  1.9019  0.3792
 2795TIP3   OH229875   4.109   3.042   2.222 -0.2142 -0.5188 -0.1970
 2795TIP3    H129876   4.065   2.975   2.275 -1.2449  0.9350  0.8520
 2795TIP3    H229877   4.085   3.125   2.263  1.9850  0.4659 -0.7232
 2796TIP3   OH229878   6.058   2.172  14.665  0.4739  0.1108  0.0647
 2796TIP3    H129879   6.132   2.232  14.678 -0.2875  1.2129 -0.5261
 2796TIP3    H229880   6.079   2.127  14.583 -1.2062  3.1798 -2.2630
 2797TIP3   OH229881   5.174   4.808   1.611  0.3952  0.1761 -0.1568
 2797TIP3    H129882   5.217   4.873   1.556  0.2591  1.2938  0.9996
 2797TIP3    H229883   5.222   4.811   1.693 -0.7427  0.1416  0.5343
 2798TIP3   OH229884   5.548   3.088  16.413 -0.0862 -1.6359  0.3659
 2798TIP3    H129885   5.501   3.083  16.496 -1.4280  0.3079 -0.2108
 2798TIP3    H229886   5.596   3.171  16.418  0.7161 -2.0388 -0.3685
 2799TIP3   OH229887   3.762   5.316  12.583 -0.3800 -0.1330 -0.2546
 2799TIP3    H129888   3.792   5.334  12.673  0.6770 -1.7404 -0.2387
 2799TIP3    H229889   3.690   5.377  12.569 -1.4036 -0.6919  2.1516
 2800TIP3   OH229890   0.932   3.278   0.741 -0.5289  0.5976  0.0085
 2800TIP3    H129891   0.848   3.325   0.737  0.0046  1.5261 -0.5332
 2800TIP3    H229892   0.976   3.316   0.817 -0.0485  1.0687 -0.4985
 2801TIP3   OH229893   3.051   5.045  10.677  0.0756  0.1153 -0.4971
 2801TIP3    H129894   3.051   5.120  10.617  1.1571  0.3512 -0.2182
 2801TIP3    H229895   3.042   4.969  10.620  0.5498  0.3711 -0.9201
 2802TIP3   OH229896   4.073   5.814   4.541  0.2194  0.0975 -0.1619
 2802TIP3    H129897   3.995   5.858   4.576 -1.8251 -3.1904 -0.1185
 2802TIP3    H229898   4.119   5.782   4.618 -0.7905 -1.6005 -0.2065
 2803TIP3   OH229899   0.196   2.229  11.944 -0.7146 -0.5846 -0.0581
 2803TIP3    H129900   0.282   2.221  11.903 -0.5882 -0.0948  0.1002
 2803TIP3    H229901   0.212   2.216  12.037 -0.5229  1.1752  0.1888
 2804TIP3   OH229902   4.416   5.696   4.534  0.5359 -0.3577  0.2793
 2804TIP3    H129903   4.501   5.692   4.579  0.8017 -0.6540 -0.2345
 2804TIP3    H229904   4.353   5.709   4.604  1.1135  1.1110  0.5649
 2805TIP3   OH229905   0.586   3.377  12.057 -0.5562  0.1842  0.5339
 2805TIP3    H129906   0.595   3.463  12.017 -0.2231 -0.2634 -0.3972
 2805TIP3    H229907   0.518   3.387  12.123 -0.1372  1.2876  0.8126
 2806TIP3   OH229908   6.677   3.325  16.790  0.1119 -0.2287  0.6855
 2806TIP3    H129909   6.602   3.344  16.734  0.1537 -2.2384 -0.1522
 2806TIP3    H229910   6.639   3.318  16.878 -0.1174  1.9370  0.8016
 2807TIP3   OH229911   4.964   3.783  14.068  0.1368 -0.1510  0.5394
 2807TIP3    H129912   4.877   3.816  14.043  0.4450  0.1929 -0.1081
 2807TIP3    H229913   5.007   3.858  14.108  0.1989 -0.2715  0.6961
 2808TIP3   OH229914   6.347   0.956  15.241  0.1755 -0.1163 -0.2963
 2808TIP3    H129915   6.404   0.995  15.175 -0.8948 -1.5007 -2.1267
 2808TIP3    H229916   6.258   0.980  15.214 -0.2588  0.1848  1.2777
 2809TIP3   OH229917   4.449   5.018   1.424 -0.3718 -0.4959  0.4694
 2809TIP3    H129918   4.372   5.017   1.366  1.2187 -1.2973 -1.7661
 2809TIP3    H229919   4.518   4.975   1.373  1.9682  1.3782  1.8534
 2810TIP3   OH229920   4.057   0.362  13.707  0.2054 -0.1744 -0.0596
 2810TIP3    H129921   4.149   0.346  13.727  0.4801 -2.3553 -2.5050
 2810TIP3    H229922   4.034   0.294  13.644 -2.2290  2.1764 -1.9505
 2811TIP3   OH229923   3.115   3.875   4.995  0.4275  0.2292  0.2449
 2811TIP3    H129924   3.080   3.789   5.020 -1.9483  0.2210 -2.5196
 2811TIP3    H229925   3.070   3.936   5.054 -1.5186 -0.1237 -0.7719
 2812TIP3   OH229926   3.249   3.687   6.434  0.3478  0.7143  0.5071
 2812TIP3    H129927   3.230   3.712   6.344  0.9379  0.9379  0.4377
 2812TIP3    H229928   3.176   3.722   6.485 -0.2522  0.1320  0.0517
 2813TIP3   OH229929   1.458   0.413  15.509 -0.7172 -0.3150  0.3790
 2813TIP3    H129930   1.427   0.408  15.418 -0.8730 -2.8309  0.4837
 2813TIP3    H229931   1.551   0.391  15.503 -0.3402  1.0873  0.7071
 2814TIP3   OH229932   4.497   4.206   6.040 -0.5305  0.2289  0.0241
 2814TIP3    H129933   4.480   4.188   6.133  1.0051  1.9774  0.7121
 2814TIP3    H229934   4.446   4.140   5.993 -0.0585 -1.7818  2.1470
 2815TIP3   OH229935   4.508   4.118   6.294  0.1996 -0.1035 -0.3696
 2815TIP3    H129936   4.439   4.176   6.327 -2.0233 -1.1589 -2.8408
 2815TIP3    H229937   4.479   4.030   6.319  0.5993 -0.5613 -1.4628
 2816TIP3   OH229938   0.565   0.616  16.230 -0.2070 -0.0582 -0.0197
 2816TIP3    H129939   0.611   0.677  16.172 -0.0534  0.9588  1.1427
 2816TIP3    H229940   0.556   0.663  16.313  0.2808 -1.7572  1.0550
 2817TIP3   OH229941   3.630   1.838  15.467  0.4527 -0.5786 -0.2992
 2817TIP3    H129942   3.542   1.833  15.430 -0.1602 -2.7157  1.2799
 2817TIP3    H229943   3.650   1.748  15.494  3.0309 -0.1113 -0.3580
 2818TIP3   OH229944   6.188   4.444  16.000  0.3919  0.0676 -0.1744
 2818TIP3    H129945   6.140   4.526  16.002  0.0777  0.0414 -3.0888
 2818TIP3    H229946   6.167   4.404  15.916  1.8631 -2.2123  0.4134
 2819TIP3   OH229947   1.625   6.641  14.777 -0.1275  0.4289 -0.4417
 2819TIP3    H129948   1.655   6.552  14.759  0.8871  0.6980 -0.1549
 2819TIP3    H229949   1.555   6.630  14.841 -0.5123 -0.2034 -0.9507
 2820TIP3   OH229950   0.337   1.813  11.681 -0.0257  0.3181  0.3128
 2820TIP3    H129951   0.255   1.785  11.639  0.4024 -1.0120  0.3054
 2820TIP3    H229952   0.311   1.843  11.768 -0.6209  0.7100  0.0047
 2821TIP3   OH229953   1.748   1.039   4.351 -0.6065 -0.7336  0.1407
 2821TIP3    H129954   1.721   1.012   4.263 -0.9016 -0.2944  0.0894
 2821TIP3    H229955   1.695   1.118   4.368 -0.7569 -0.9801  0.8222
 2822TIP3   OH229956   1.932   5.354  11.587 -0.3917 -0.0729 -0.7841
 2822TIP3    H129957   1.988   5.276  11.592  0.3136  0.4912  0.4832
 2822TIP3    H229958   1.963   5.400  11.508 -0.1247 -0.5604 -0.9651
 2823TIP3   OH229959   6.576   5.251   0.508 -0.3649  0.2399  0.3090
 2823TIP3    H129960   6.631   5.327   0.526  1.8034 -1.4464  1.2433
 2823TIP3    H229961   6.578   5.200   0.588 -3.7279  0.2420  0.5354
 2824TIP3   OH229962   4.435   0.882  13.635 -0.7141  0.3549 -0.4219
 2824TIP3    H129963   4.367   0.845  13.692 -1.0842 -0.3795 -1.3137
 2824TIP3    H229964   4.401   0.870  13.547  0.2663  0.6231 -0.8460
 2825TIP3   OH229965   0.023   1.949   4.727 -0.2068  0.0081  0.2506
 2825TIP3    H129966   0.074   2.030   4.722  0.3969 -0.4302 -1.1197
 2825TIP3    H229967   0.007   1.925   4.636  0.8126 -2.1383  0.5765
 2826TIP3   OH229968   1.863   6.649  14.414  1.0582  0.9470  0.7955
 2826TIP3    H129969   1.905   6.581  14.467  0.6074 -0.9007 -1.0705
 2826TIP3    H229970   1.771   6.645  14.438  0.7803 -0.1862 -0.3295
 2827TIP3   OH229971   4.285   0.761  11.854  0.3667 -0.5101  0.3894
 2827TIP3    H129972   4.318   0.818  11.784  0.9141 -0.2851  0.8284
 2827TIP3    H229973   4.266   0.820  11.927 -0.0155 -0.7676  0.5048
 2828TIP3   OH229974   1.699   5.120  15.621  0.0028  0.0286 -0.6977
 2828TIP3    H129975   1.660   5.194  15.574  2.4340  2.0235  0.1851
 2828TIP3    H229976   1.789   5.116  15.588  0.9704 -0.2563  1.7967
 2829TIP3   OH229977   5.152   6.743  12.423 -0.3230 -0.7588 -0.3248
 2829TIP3    H129978   5.093   6.669  12.437 -1.5396  0.1859 -0.3508
 2829TIP3    H229979   5.239   6.708  12.444 -1.1043 -1.6192  1.7414
 2830TIP3   OH229980   5.100   1.766  11.012 -0.1290  0.2577 -0.6359
 2830TIP3    H129981   5.123   1.786  10.921  2.2919  2.0683  0.2565
 2830TIP3    H229982   5.005   1.778  11.016 -0.2682  0.3605 -2.8407
 2831TIP3   OH229983   0.927   0.686  11.145 -0.3165 -0.0238 -0.7676
 2831TIP3    H129984   0.991   0.732  11.199 -0.4299 -0.7913  0.0458
 2831TIP3    H229985   0.880   0.755  11.099 -1.4226  0.8183  1.4487
 2832TIP3   OH229986   5.713   4.010  10.804 -0.1532  0.3532  0.1247
 2832TIP3    H129987   5.639   4.017  10.863  0.6646 -1.3080  1.4306
 2832TIP3    H229988   5.758   4.094  10.810  0.4016 -0.0576  2.5918
 2833TIP3   OH229989   2.761   4.542  11.524 -0.2412 -0.0256  0.3446
 2833TIP3    H129990   2.682   4.490  11.538 -0.2632 -0.5175 -1.3124
 2833TIP3    H229991   2.733   4.632  11.538 -0.7576 -0.2941  1.0854
 2834TIP3   OH229992   5.588   6.557  11.455 -0.4601  0.1949 -0.0696
 2834TIP3    H129993   5.500   6.533  11.482 -0.6322  2.6884  1.8593
 2834TIP3    H229994   5.584   6.651  11.437  1.7141  0.2954 -0.3350
 2835TIP3   OH229995   5.149   3.645  15.927  0.3641 -0.3849 -0.1110
 2835TIP3    H129996   5.058   3.626  15.905  0.4434  0.4636 -1.3082
 2835TIP3    H229997   5.149   3.738  15.951  0.8814 -0.4091  0.0044
 2836TIP3   OH229998   0.670   5.553  15.426 -0.1282 -0.6249  0.2621
 2836TIP3    H129999   0.755   5.515  15.406  0.1758 -0.8757  1.8619
 2836TIP3    H230000   0.609   5.479  15.417  0.0827 -0.8703  0.7884
 2837TIP3   OH230001   1.819   0.195  12.567 -0.6997 -0.2839  0.4740
 2837TIP3    H130002   1.810   0.230  12.478  2.3827 -1.5851 -0.4576
 2837TIP3    H230003   1.759   0.120  12.568 -1.9810  0.6837  0.1103
 2838TIP3   OH230004   5.756   5.878   5.438  0.0495  0.2595  0.4051
 2838TIP3    H130005   5.754   5.803   5.378 -0.2924 -0.0528  0.7959
 2838TIP3    H230006   5.813   5.849   5.509 -2.5682 -0.9429  2.1988
 2839TIP3   OH230007   6.065   5.060   2.839  0.2645  0.1972  0.6597
 2839TIP3    H130008   6.026   4.974   2.856  0.6847 -0.5424 -1.7280
 2839TIP3    H230009   6.154   5.054   2.873  0.2523 -0.2756  0.6107
 2840TIP3   OH230010   6.421   4.416   2.314 -0.2469 -0.1425  0.5087
 2840TIP3    H130011   6.404   4.322   2.313  0.7302 -0.3253 -0.0701
 2840TIP3    H230012   6.478   4.431   2.239  1.6128  0.5130  1.9768
 2841TIP3   OH230013   0.476   4.930   5.188  0.0976  0.2635  0.8675
 2841TIP3    H130014   0.538   4.919   5.116 -3.1433 -2.0110 -1.9167
 2841TIP3    H230015   0.438   5.017   5.174  1.1787  0.8434  1.3992
 2842TIP3   OH230016   4.392   5.152  16.269  0.0112 -0.9018  0.4581
 2842TIP3    H130017   4.336   5.075  16.280  1.5361 -2.1542 -0.1581
 2842TIP3    H230018   4.406   5.158  16.174 -0.2539  0.2821  0.4741
 2843TIP3   OH230019   5.648   3.390   6.368 -0.0957 -0.5001 -0.4205
 2843TIP3    H130020   5.705   3.465   6.385 -0.8603  0.0366 -0.1503
 2843TIP3    H230021   5.640   3.387   6.273  1.8848 -1.7484 -0.6019
 2844TIP3   OH230022   3.675   0.011  15.013 -0.1608  0.2567  0.5981
 2844TIP3    H130023   3.728   0.072  15.065  0.7387 -1.3189  1.6038
 2844TIP3    H230024   3.738  -0.048  14.973 -0.8322  1.3508 -2.3415
 2845TIP3   OH230025   2.748   2.958   3.861  0.2914  0.1023  0.3405
 2845TIP3    H130026   2.807   2.997   3.797  0.5638 -1.0333 -0.1192
 2845TIP3    H230027   2.750   3.019   3.935  0.8972  0.8200 -0.2498
 2846TIP3   OH230028   3.806   1.739  12.355  0.3787  0.4573 -0.2289
 2846TIP3    H130029   3.736   1.787  12.399  0.5964 -0.2967  0.9994
 2846TIP3    H230030   3.782   1.647  12.365  1.4050  0.1979  0.0008
 2847TIP3   OH230031   5.448   4.664  11.584 -0.1605  0.2575 -0.0441
 2847TIP3    H130032   5.365   4.704  11.609 -0.5781 -1.6926  2.0956
 2847TIP3    H230033   5.425   4.573  11.564  1.4190 -0.3012  0.5176
 2848TIP3   OH230034   4.442   3.070   5.082  0.1114 -0.9122 -0.1549
 2848TIP3    H130035   4.446   3.164   5.066  2.3322 -0.6625  1.4728
 2848TIP3    H230036   4.348   3.049   5.078 -0.6647  1.7375  1.4568
 2849TIP3   OH230037   1.183   0.312  12.359 -0.2453  0.0527  0.1998
 2849TIP3    H130038   1.238   0.259  12.301  0.1715  1.8783 -1.1394
 2849TIP3    H230039   1.102   0.324  12.310 -0.9934 -0.6850  1.2011
 2850TIP3   OH230040   2.422   5.873  11.193 -0.0682  0.6849  0.3018
 2850TIP3    H130041   2.498   5.917  11.155 -0.2742  0.5883 -0.2269
 2850TIP3    H230042   2.438   5.780  11.179 -1.0258  0.7237 -1.2614
 2851TIP3   OH230043   4.029   3.819   0.327 -0.6328 -0.2350 -0.0762
 2851TIP3    H130044   4.038   3.912   0.348  1.5149 -0.6058  0.8938
 2851TIP3    H230045   3.947   3.793   0.370  0.5742  0.4237  2.8958
 2852TIP3   OH230046   0.258   4.199  14.694 -0.2994  0.3504 -0.3921
 2852TIP3    H130047   0.197   4.127  14.711 -0.7700  0.9366  0.5120
 2852TIP3    H230048   0.257   4.209  14.598 -1.2889  0.0490 -0.4314
 2853TIP3   OH230049   4.869   2.468   4.883  0.3384  0.3750 -0.6594
 2853TIP3    H130050   4.836   2.420   4.808 -2.5557  0.1530  0.6133
 2853TIP3    H230051   4.817   2.548   4.885  1.6241  1.2414  0.1127
 2854TIP3   OH230052   3.818   5.901  13.266  0.0164  0.4188 -0.2718
 2854TIP3    H130053   3.732   5.881  13.305 -0.0697  0.6537 -0.3377
 2854TIP3    H230054   3.864   5.951  13.334 -0.2705  1.1472 -0.5923
 2855TIP3   OH230055   4.818   0.305  13.120  0.5212 -0.9443  0.4114
 2855TIP3    H130056   4.889   0.364  13.145 -1.1301  0.9863  0.8734
 2855TIP3    H230057   4.807   0.319  13.026 -0.9208  0.8245  0.7884
 2856TIP3   OH230058   1.928   1.579  16.338  0.1367 -0.3025  0.3968
 2856TIP3    H130059   1.995   1.638  16.302 -1.0700 -0.3099 -1.9811
 2856TIP3    H230060   1.978   1.503  16.370  1.4825  0.9133  1.3413
 2857TIP3   OH230061   6.233   4.428  12.397  0.0025 -0.3575  0.5074
 2857TIP3    H130062   6.198   4.377  12.324  1.1888 -0.0766 -0.2948
 2857TIP3    H230063   6.302   4.373  12.434  1.3239  0.6194 -0.3902
 2858TIP3   OH230064   6.636   6.749   2.691  0.0598  0.0224  0.3483
 2858TIP3    H130065   6.594   6.674   2.647  1.1812  0.5057 -1.6798
 2858TIP3    H230066   6.725   6.719   2.709 -0.7048 -0.6582  3.7558
 2859TIP3   OH230067   1.291   1.565   0.856 -0.3572 -0.1864 -0.5919
 2859TIP3    H130068   1.269   1.631   0.921 -1.4375 -0.4983 -0.6193
 2859TIP3    H230069   1.299   1.484   0.905  0.0401 -0.2051 -0.6842
 2860TIP3   OH230070   2.107   5.353  17.139  0.0369  0.2951  0.2275
 2860TIP3    H130071   2.038   5.287  17.132  0.2841  0.1098 -0.5803
 2860TIP3    H230072   2.062   5.436  17.126 -0.1264  0.2151  0.2830
 2861TIP3   OH230073   4.861   2.086  15.860  0.0407 -0.3124 -0.0937
 2861TIP3    H130074   4.819   2.009  15.898 -1.3955 -0.3262 -1.5961
 2861TIP3    H230075   4.950   2.084  15.896 -0.4610 -1.7082  1.2186
 2862TIP3   OH230076   0.889   3.950  15.974 -0.3888  0.3693  0.3117
 2862TIP3    H130077   0.894   4.009  16.050  0.4623  0.5550  0.1228
 2862TIP3    H230078   0.952   3.986  15.912 -1.0254  0.1678 -0.4576
 2863TIP3   OH230079   2.729   5.820   4.911  0.1162 -0.5238  0.0219
 2863TIP3    H130080   2.759   5.849   4.825  0.0551 -0.2234  0.0981
 2863TIP3    H230081   2.807   5.826   4.967  0.5117 -2.0760 -0.3255
 2864TIP3   OH230082   5.999   1.492  13.658 -0.0379 -0.0537 -0.3910
 2864TIP3    H130083   6.086   1.476  13.696  0.3139  1.8848 -0.2844
 2864TIP3    H230084   6.016   1.552  13.585 -1.3698  1.0694  0.1780
 2865TIP3   OH230085   4.416   6.265   4.858  0.3320 -0.1686 -0.2228
 2865TIP3    H130086   4.495   6.228   4.898 -0.0343 -1.1947 -0.4268
 2865TIP3    H230087   4.353   6.193   4.857 -0.4082  0.4650 -0.6250
 2866TIP3   OH230088   6.108   0.596  16.893  0.0126 -0.1347 -0.2448
 2866TIP3    H130089   6.038   0.648  16.852 -2.4272 -2.2010  0.9953
 2866TIP3    H230090   6.186   0.651  16.885 -1.9496  2.8619 -0.6894
 2867TIP3   OH230091   0.966   4.641  13.276  0.2441 -0.3867 -0.5043
 2867TIP3    H130092   0.973   4.559  13.227 -1.0866 -0.0729 -1.2477
 2867TIP3    H230093   0.943   4.706  13.211  0.7029  0.4841  0.1864
 2868TIP3   OH230094   1.893   2.134   1.634  0.5258 -0.5942 -0.1685
 2868TIP3    H130095   1.927   2.205   1.581  0.2537 -0.2961  0.0554
 2868TIP3    H230096   1.947   2.135   1.713 -2.7514  2.8289  2.3274
 2869TIP3   OH230097   3.148   5.459   0.856 -0.0207  0.5081 -0.1234
 2869TIP3    H130098   3.117   5.490   0.941 -1.3885  1.3954 -0.9099
 2869TIP3    H230099   3.073   5.413   0.819  0.3304  0.7293 -1.1348
 2870TIP3   OH230100   6.197   4.218   5.795 -0.1818 -0.7054  0.0214
 2870TIP3    H130101   6.244   4.167   5.729  1.2619  1.2607 -0.5539
 2870TIP3    H230102   6.128   4.264   5.746 -0.0927 -0.4373  0.1428
 2871TIP3   OH230103   5.565   5.461   5.338 -0.4441  0.0732  0.4451
 2871TIP3    H130104   5.594   5.471   5.247  0.7403 -2.3517  0.4739
 2871TIP3    H230105   5.518   5.378   5.339 -1.1589  0.4681  1.8991
 2872TIP3   OH230106   2.478   0.793  11.461 -0.2039 -0.1228 -0.2832
 2872TIP3    H130107   2.509   0.704  11.477 -1.0891 -0.3086  0.4477
 2872TIP3    H230108   2.431   0.788  11.378  1.1813  0.0422 -1.1162
 2873TIP3   OH230109   4.784   0.398  12.251 -0.5098 -0.7384  0.6757
 2873TIP3    H130110   4.821   0.404  12.339 -0.7613  0.7650  0.7144
 2873TIP3    H230111   4.847   0.445  12.196 -1.1862 -0.1885  0.3543
 2874TIP3   OH230112   2.286   5.556   2.583  0.2077 -0.1889 -1.0333
 2874TIP3    H130113   2.204   5.560   2.633  0.7725 -0.7502 -0.0263
 2874TIP3    H230114   2.269   5.491   2.515  0.1046 -0.9630 -0.2774
 2875TIP3   OH230115   5.972   4.324  14.359 -0.0439  0.5634  0.1117
 2875TIP3    H130116   5.968   4.387  14.287  0.3392  2.0204  1.3026
 2875TIP3    H230117   6.021   4.370  14.428 -0.9504 -0.5240  1.5350
 2876TIP3   OH230118   4.431   6.643  15.670 -1.0212 -0.2220  0.4141
 2876TIP3    H130119   4.382   6.715  15.631  1.9001  1.5473 -0.3123
 2876TIP3    H230120   4.463   6.593  15.595  0.3639  0.2001  0.6838
 2877TIP3   OH230121   1.256   3.215   3.863  0.4904  0.0179  0.1171
 2877TIP3    H130122   1.326   3.272   3.896  0.8976 -1.0132  1.1205
 2877TIP3    H230123   1.200   3.200   3.938  1.0788 -1.8743  0.2400
 2878TIP3   OH230124   2.237   1.333  13.256  0.3818 -0.4119  0.4303
 2878TIP3    H130125   2.181   1.409  13.244  0.9608 -0.3046 -2.2287
 2878TIP3    H230126   2.190   1.261  13.214  0.2331 -1.3793  2.1578
 2879TIP3   OH230127   3.088   6.281  15.439 -0.7619 -0.2279  0.4078
 2879TIP3    H130128   3.058   6.229  15.513  0.1795 -0.4574  0.6411
 2879TIP3    H230129   3.149   6.223  15.393  1.5564  1.1655  1.5508
 2880TIP3   OH230130   0.959   4.356  14.598  0.4260  0.5352  0.4303
 2880TIP3    H130131   0.959   4.267  14.634 -0.1228  0.5851  0.5543
 2880TIP3    H230132   0.980   4.343  14.505 -3.1995 -0.1267 -0.4547
 2881TIP3   OH230133   0.046   2.426   5.728 -0.0171  0.3824  0.1825
 2881TIP3    H130134   0.122   2.476   5.697 -1.1719  0.9253 -1.8960
 2881TIP3    H230135   0.068   2.335   5.709  0.6253  0.4129  0.7490
 2882TIP3   OH230136   0.816   2.094   2.124  0.2879 -0.0539 -0.2017
 2882TIP3    H130137   0.759   2.146   2.068  0.5774 -0.1407 -0.5880
 2882TIP3    H230138   0.904   2.113   2.091  0.5305  0.5302  0.7593
 2883TIP3   OH230139   1.669   5.637  16.076 -0.0671  0.8088  0.1485
 2883TIP3    H130140   1.605   5.567  16.083  1.2808 -0.5442 -0.5204
 2883TIP3    H230141   1.670   5.660  15.982 -0.1125  1.3620  0.2760
 2884TIP3   OH230142   2.067   3.391  16.792 -0.2869  0.2456  0.2133
 2884TIP3    H130143   2.060   3.484  16.771 -1.6619  0.1915  0.3512
 2884TIP3    H230144   1.979   3.366  16.821  0.6229 -0.5636  2.4546
 2885TIP3   OH230145   3.001   2.517  11.246 -0.4126  0.1309 -0.4111
 2885TIP3    H130146   2.967   2.429  11.231 -0.3531  0.2660 -1.3419
 2885TIP3    H230147   2.926   2.567  11.277 -0.6354 -0.0292 -0.6958
 2886TIP3   OH230148   0.306   2.845  14.387 -0.5088 -0.3798  0.0868
 2886TIP3    H130149   0.357   2.922  14.410 -1.1379  0.3932 -1.0184
 2886TIP3    H230150   0.305   2.844  14.292 -0.2184 -1.9657  0.0703
 2887TIP3   OH230151   6.394   2.563   5.770 -0.5707  0.1716 -0.0124
 2887TIP3    H130152   6.408   2.531   5.859 -0.7593 -1.8260 -0.6558
 2887TIP3    H230153   6.482   2.581   5.737 -0.2747 -1.5248 -0.2397
 2888TIP3   OH230154   5.019   3.706   4.630  0.2528  0.1478  0.1327
 2888TIP3    H130155   4.977   3.785   4.664 -0.4930 -0.0919 -0.2130
 2888TIP3    H230156   5.039   3.727   4.539  0.5618  0.1297  0.1939
 2889TIP3   OH230157   3.768   0.408  16.877  0.1336  0.4517  0.2434
 2889TIP3    H130158   3.859   0.403  16.848  0.6150  0.4480  1.6974
 2889TIP3    H230159   3.759   0.335  16.939 -1.4401 -0.8211 -1.3571
 2890TIP3   OH230160   1.442   1.853   6.197  0.3096 -0.5661  0.6295
 2890TIP3    H130161   1.478   1.933   6.156  0.6946 -1.2443 -0.4062
 2890TIP3    H230162   1.510   1.788   6.186  0.2346 -0.9039  2.0102
 2891TIP3   OH230163   5.637   3.744   3.870  0.1757  0.0490 -0.3153
 2891TIP3    H130164   5.723   3.713   3.898  0.3525 -0.8163 -1.6921
 2891TIP3    H230165   5.655   3.811   3.805 -0.2173  1.0376  0.5701
 2892TIP3   OH230166   2.016   4.177  12.306 -0.6678  0.1274  0.8309
 2892TIP3    H130167   2.066   4.115  12.253  3.0383  2.8596  0.7380
 2892TIP3    H230168   2.012   4.138  12.393 -0.9181 -1.4288  0.1449
 2893TIP3   OH230169   1.613   6.730  14.513 -0.1471  0.0612 -0.4030
 2893TIP3    H130170   1.528   6.702  14.479 -1.1340  0.9830  1.2198
 2893TIP3    H230171   1.610   6.709  14.606  0.7281  1.6890  0.0208
 2894TIP3   OH230172   1.877   5.349   3.516 -0.1935  0.0538  0.4408
 2894TIP3    H130173   1.834   5.264   3.508 -1.0491  0.5289 -0.1571
 2894TIP3    H230174   1.922   5.361   3.432  0.3993 -0.0589  0.7403
 2895TIP3   OH230175   0.042   5.085   5.942 -0.0364  0.1040 -0.5395
 2895TIP3    H130176   0.037   5.106   6.036  0.4542  2.6522 -1.0132
 2895TIP3    H230177   0.133   5.102   5.918  0.0289 -1.2616 -1.3632
 2896TIP3   OH230178   3.452   5.583   2.213 -0.0548  0.4079  0.4961
 2896TIP3    H130179   3.409   5.497   2.219 -0.6639  0.5846 -0.9492
 2896TIP3    H230180   3.518   5.573   2.144  0.1194  0.9992  0.5688
 2897TIP3   OH230181   0.421   3.255  12.833  0.2372 -0.1871  0.3687
 2897TIP3    H130182   0.423   3.347  12.806 -2.2460 -0.5420 -1.3773
 2897TIP3    H230183   0.446   3.207  12.754  0.8532 -1.0680  1.0802
 2898TIP3   OH230184   2.425   0.139   4.843 -0.4134 -0.0751 -0.7049
 2898TIP3    H130185   2.440   0.049   4.816  0.6795  0.0281 -0.5147
 2898TIP3    H230186   2.486   0.152   4.916 -1.9668  0.2091  0.6138
 2899TIP3   OH230187   2.008   0.830   3.600  0.1528 -0.2742  0.1192
 2899TIP3    H130188   2.026   0.824   3.506  3.0597 -0.9599  0.6019
 2899TIP3    H230189   2.082   0.784   3.641 -0.5792  0.7262  2.7648
 2900TIP3   OH230190   6.180   5.883  15.899 -0.1297  0.7723  0.0149
 2900TIP3    H130191   6.167   5.808  15.841  0.1612  1.0090 -0.3633
 2900TIP3    H230192   6.189   5.958  15.840  0.5655  0.9593  0.3440
 2901TIP3   OH230193   1.678   3.111   0.861 -0.0762 -0.4136 -0.4082
 2901TIP3    H130194   1.586   3.098   0.839  0.2911  0.2989 -2.5595
 2901TIP3    H230195   1.680   3.108   0.957 -2.1824 -1.2908 -0.3344
 2902TIP3   OH230196   6.258   0.206   4.027  0.3016  0.2167  0.3921
 2902TIP3    H130197   6.326   0.181   3.965  0.5230 -1.4537  1.2393
 2902TIP3    H230198   6.227   0.291   3.996  0.1822 -0.6685 -2.1651
 2903TIP3   OH230199   1.205   4.537   5.957 -0.5803  0.4586 -0.2390
 2903TIP3    H130200   1.162   4.478   6.019 -0.1558 -0.3017 -0.6602
 2903TIP3    H230201   1.282   4.570   6.004 -0.8639  0.7549  0.0258
 2904TIP3   OH230202   2.647   6.194   6.309 -0.0302 -0.4761 -0.3474
 2904TIP3    H130203   2.559   6.178   6.345 -1.0012  1.9988 -1.4143
 2904TIP3    H230204   2.695   6.233   6.382 -0.0280 -1.1643  0.0285
 2905TIP3   OH230205   2.733   1.449   4.906  0.2035 -0.1786 -0.2407
 2905TIP3    H130206   2.754   1.387   4.836 -3.5112  0.4350 -2.1511
 2905TIP3    H230207   2.662   1.407   4.955  0.9216  0.5753  1.5373
 2906TIP3   OH230208   6.311   6.110  16.799  0.6060 -0.1398 -0.0558
 2906TIP3    H130209   6.274   6.111  16.887  1.1712  0.3980  0.1802
 2906TIP3    H230210   6.258   6.174  16.750 -0.6314 -1.4425 -0.5140
 2907TIP3   OH230211   0.306   1.568  12.312 -0.3321 -0.2435 -0.0477
 2907TIP3    H130212   0.339   1.658  12.322  0.8138 -0.7502  0.9348
 2907TIP3    H230213   0.211   1.577  12.321 -0.2311  0.8682  0.1095
 2908TIP3   OH230214   3.585   0.696  16.516  0.5003 -0.2325  0.5849
 2908TIP3    H130215   3.626   0.633  16.457  0.7942 -0.1779  0.7272
 2908TIP3    H230216   3.654   0.760  16.534 -0.0602  0.6396 -0.2690
 2909TIP3   OH230217   2.132   2.662  15.177  0.6843  0.5383 -0.1944
 2909TIP3    H130218   2.134   2.591  15.241  0.5264 -0.2380 -1.0285
 2909TIP3    H230219   2.042   2.695  15.181  1.3417  2.3429  1.9053
 2910TIP3   OH230220   1.542   4.206   0.908  0.0355  0.2629  0.0581
 2910TIP3    H130221   1.613   4.272   0.905  1.0993 -0.8408  0.1659
 2910TIP3    H230222   1.513   4.207   0.999 -0.3965  1.0239 -0.0772
 2911TIP3   OH230223   0.545   2.518   1.681 -0.0929 -0.7125 -0.4741
 2911TIP3    H130224   0.495   2.513   1.600  0.3458 -1.2694 -0.7215
 2911TIP3    H230225   0.585   2.605   1.680 -0.3518 -0.5969 -0.6986
 2912TIP3   OH230226   5.442   1.823  12.361  0.5314 -0.0807 -0.1278
 2912TIP3    H130227   5.486   1.740  12.343  0.5134 -0.3391  0.9683
 2912TIP3    H230228   5.390   1.806  12.439 -0.8556  0.4768 -0.9034
 2913TIP3   OH230229   3.123   1.035  12.627  0.2008 -0.0230 -0.3606
 2913TIP3    H130230   3.177   1.088  12.685  1.2055 -1.3893 -0.0050
 2913TIP3    H230231   3.051   1.003  12.682  1.4130 -1.7118  0.3156
 2914TIP3   OH230232   3.332   5.790  17.240 -0.3525 -0.4241  0.4974
 2914TIP3    H130233   3.394   5.733  17.193 -0.3200 -0.2842  0.3691
 2914TIP3    H230234   3.250   5.781  17.190 -0.4512 -0.6492  0.6980
 2915TIP3   OH230235   3.591   2.782  11.711 -0.0243 -0.4495  0.4070
 2915TIP3    H130236   3.646   2.759  11.636  0.6478  1.2523  0.3529
 2915TIP3    H230237   3.646   2.836  11.766 -0.6680 -1.3014  1.9407
 2916TIP3   OH230238   4.450   0.946  14.257 -0.1685 -0.0556  1.0046
 2916TIP3    H130239   4.525   0.962  14.200  0.3075  0.9541  1.8752
 2916TIP3    H230240   4.489   0.923  14.342 -0.8307 -3.1956  0.5966
 2917TIP3   OH230241   3.333   1.784   3.807  0.8685 -0.1587 -0.0819
 2917TIP3    H130242   3.253   1.808   3.855  2.8147  0.7323  2.9784
 2917TIP3    H230243   3.333   1.688   3.808  1.1122 -0.2028  2.3703
 2918TIP3   OH230244   6.593   3.711  15.655 -0.1799  0.3993  0.6825
 2918TIP3    H130245   6.608   3.635  15.599  0.0108  0.7371  0.2745
 2918TIP3    H230246   6.587   3.675  15.744  2.0181  0.1293  0.7710
 2919TIP3   OH230247   6.253   2.431   4.784  0.1290 -0.0796  0.4530
 2919TIP3    H130248   6.321   2.369   4.759 -1.5634 -2.1599  0.6839
 2919TIP3    H230249   6.270   2.509   4.730  1.5145 -1.2518 -0.8845
 2920TIP3   OH230250   6.712   2.047  12.083  0.0674  0.4537  0.1527
 2920TIP3    H130251   6.778   1.979  12.098 -0.4060 -0.1931 -0.6061
 2920TIP3    H230252   6.663   2.016  12.007 -2.0104  0.2240  1.5044
 2921TIP3   OH230253   5.286   0.625  11.128 -0.1608  0.0164 -0.8709
 2921TIP3    H130254   5.294   0.534  11.155  0.8478  0.1158 -0.8139
 2921TIP3    H230255   5.321   0.676  11.201 -1.8900  0.5393 -0.3536
 2922TIP3   OH230256   2.181   6.750   3.671 -0.4537  0.3422 -0.3515
 2922TIP3    H130257   2.267   6.785   3.646  0.9093 -0.8117  2.4144
 2922TIP3    H230258   2.187   6.657   3.653 -1.1531  0.2556 -0.1506
 2923TIP3   OH230259   4.349   5.562  16.409 -0.3138  0.2355 -0.5062
 2923TIP3    H130260   4.270   5.575  16.357  0.4517 -0.8840 -2.0429
 2923TIP3    H230261   4.421   5.568  16.346  0.9012  1.6889  0.9223
 2924TIP3   OH230262   4.904   6.094  12.685  0.5451  0.3527 -0.1093
 2924TIP3    H130263   4.817   6.080  12.723 -0.1190 -0.2049 -1.7288
 2924TIP3    H230264   4.954   6.136  12.754 -1.1931  1.2263  0.6812
 2925TIP3   OH230265   1.200   3.720   0.100 -0.3727  0.0688 -0.3484
 2925TIP3    H130266   1.268   3.702   0.165 -0.7795  0.3872  0.1810
 2925TIP3    H230267   1.122   3.739   0.152 -0.5513  0.9558 -0.9093
 2926TIP3   OH230268   3.857   0.995  12.899  0.5099  0.0700  0.3514
 2926TIP3    H130269   3.822   0.909  12.922  1.0189 -0.0736  0.6136
 2926TIP3    H230270   3.951   0.987  12.914  0.7968  0.1434 -1.2299
 2927TIP3   OH230271   2.857   5.678  13.397 -0.1021  0.3374  0.1627
 2927TIP3    H130272   2.847   5.756  13.341  0.5871 -0.9775 -1.9171
 2927TIP3    H230273   2.944   5.644  13.376 -1.0900 -2.0381 -0.4702
 2928TIP3   OH230274   3.222   3.091   2.247  0.1062 -0.4152  0.4086
 2928TIP3    H130275   3.204   3.169   2.300  1.5203 -0.7007  1.3574
 2928TIP3    H230276   3.163   3.025   2.280  0.8364 -0.5312  1.5324
 2929TIP3   OH230277   0.089   4.081   0.702  0.2896  0.2222 -0.2434
 2929TIP3    H130278   0.040   4.143   0.649  0.7587  0.7457 -0.0757
 2929TIP3    H230279   0.126   4.134   0.773 -0.1096 -0.4171  0.4544
 2930TIP3   OH230280   3.386   1.133   3.071  0.1177  0.5495 -0.3735
 2930TIP3    H130281   3.478   1.158   3.067 -0.4903  2.9937 -2.7375
 2930TIP3    H230282   3.378   1.062   3.006  0.5767 -0.9333  1.1258
 2931TIP3   OH230283   5.539   1.073  11.889 -0.0290  0.0120  0.1246
 2931TIP3    H130284   5.585   1.152  11.917  0.4026  0.2625 -1.1880
 2931TIP3    H230285   5.557   1.067  11.795  0.3234 -1.8998  0.2705
 2932TIP3   OH230286   4.727   0.321  14.642 -0.1020  0.0412 -0.0332
 2932TIP3    H130287   4.709   0.340  14.734  1.7467  1.3481  0.1112
 2932TIP3    H230288   4.654   0.265  14.615 -0.2960 -1.0339  2.4158
 2933TIP3   OH230289   6.593   3.027   5.389 -0.1057  0.0200 -0.4169
 2933TIP3    H130290   6.508   3.000   5.423 -0.5592  0.5916 -1.0529
 2933TIP3    H230291   6.593   3.123   5.398  1.0459 -0.0781  0.8745
 2934TIP3   OH230292   6.621   4.330  13.340  0.1826  0.0727 -0.0712
 2934TIP3    H130293   6.563   4.300  13.410 -0.6367  1.5842 -0.0582
 2934TIP3    H230294   6.646   4.250  13.294 -0.3379 -0.8143  1.1187
 2935TIP3   OH230295   3.180   1.393   4.515  0.1351 -0.0851 -0.4588
 2935TIP3    H130296   3.116   1.419   4.581  0.7145  0.3053 -0.0367
 2935TIP3    H230297   3.183   1.467   4.455 -0.4322 -0.4632 -0.9618
 2936TIP3   OH230298   0.819   1.827   5.667 -0.2773  0.5113  0.1292
 2936TIP3    H130299   0.762   1.867   5.732 -1.4161  1.3505 -1.3479
 2936TIP3    H230300   0.868   1.900   5.629 -2.2163  0.5842 -2.4401
 2937TIP3   OH230301   5.990   2.637   5.552  0.5653 -0.0344  0.3433
 2937TIP3    H130302   5.998   2.705   5.485  1.1542  2.0291  2.3717
 2937TIP3    H230303   5.911   2.589   5.527  1.5242 -0.3241 -2.5638
 2938TIP3   OH230304   1.410   6.116  14.230 -0.0298 -0.1051 -0.3758
 2938TIP3    H130305   1.503   6.122  14.251  0.3830  1.9927 -2.4908
 2938TIP3    H230306   1.390   6.023  14.238  2.0938 -0.5432  0.5933
 2939TIP3   OH230307   5.919   6.781   4.557 -0.2182  0.0492 -0.4766
 2939TIP3    H130308   5.841   6.741   4.518  0.2575 -1.1660 -0.2240
 2939TIP3    H230309   5.973   6.707   4.585  0.2108  0.8729  0.9871
 2940TIP3   OH230310   0.403   4.269   1.386 -0.1184 -0.3997  0.0637
 2940TIP3    H130311   0.397   4.343   1.326 -1.5147 -0.4720  0.0897
 2940TIP3    H230312   0.341   4.204   1.351  2.2240 -2.2825 -0.9127
 2941TIP3   OH230313   2.554   6.719   4.784 -0.1964  0.0946 -0.6603
 2941TIP3    H130314   2.503   6.670   4.719  0.6582 -0.9372 -0.5801
 2941TIP3    H230315   2.629   6.663   4.803  0.1250  0.8602  0.4352
 2942TIP3   OH230316   0.872   4.744   3.152  0.1738  0.3170  1.0761
 2942TIP3    H130317   0.818   4.765   3.229 -0.5401  1.6900  0.2500
 2942TIP3    H230318   0.821   4.678   3.105  1.6486 -2.2519  2.8417
 2943TIP3   OH230319   2.671   6.590  11.688  0.1295 -0.1494  0.2456
 2943TIP3    H130320   2.715   6.591  11.773 -1.3949 -1.5453  1.1078
 2943TIP3    H230321   2.741   6.603  11.625  1.4457 -0.0301  1.6582
 2944TIP3   OH230322   5.928   3.388  15.569  0.3060  0.0520  0.2403
 2944TIP3    H130323   6.017   3.384  15.535  0.5898 -3.5138  1.0500
 2944TIP3    H230324   5.872   3.364  15.495  0.5236 -2.6511  0.8478
 2945TIP3   OH230325   0.200   5.558   4.807 -0.1944  0.2773 -0.1156
 2945TIP3    H130326   0.228   5.488   4.748  0.1831 -2.7624  3.2952
 2945TIP3    H230327   0.106   5.567   4.790 -0.2732 -1.1610 -0.5843
 2946TIP3   OH230328   5.644   2.676   2.852  0.1667  0.0528  0.5783
 2946TIP3    H130329   5.650   2.650   2.761  1.1083 -1.4240  1.0308
 2946TIP3    H230330   5.648   2.771   2.850 -1.3207  0.1379 -1.0048
 2947TIP3   OH230331   1.033   0.869  16.260 -0.0227 -0.1687  0.0088
 2947TIP3    H130332   0.971   0.812  16.304  0.0694  1.2867  2.1610
 2947TIP3    H230333   1.117   0.852  16.302  0.1181  1.0796  0.2815
 2948TIP3   OH230334   2.924   5.778   5.103  0.2043  0.4922  0.0837
 2948TIP3    H130335   2.925   5.708   5.168  0.3625 -0.0850 -0.5318
 2948TIP3    H230336   2.911   5.858   5.154 -1.8380 -0.1524  0.6451
 2949TIP3   OH230337   4.353   0.353  14.131  0.3756  1.1122 -0.1135
 2949TIP3    H130338   4.428   0.342  14.073  0.6744 -0.1342  0.4810
 2949TIP3    H230339   4.392   0.366  14.218 -0.0833  2.2399 -0.0543
 2950TIP3   OH230340   1.439   4.330  14.959 -0.3142 -0.2703 -0.2510
 2950TIP3    H130341   1.455   4.237  14.973  0.5921  0.0835  1.3020
 2950TIP3    H230342   1.523   4.372  14.979 -0.9481  0.9554 -0.0691
 2951TIP3   OH230343   4.354   2.848  14.819 -0.0616 -0.1609 -0.0966
 2951TIP3    H130344   4.448   2.855  14.838 -0.5876  0.8886  2.3711
 2951TIP3    H230345   4.317   2.802  14.894 -1.5183 -0.9409 -1.2226
 2952TIP3   OH230346   1.537   4.661   0.367 -0.0921 -0.2671 -0.5019
 2952TIP3    H130347   1.592   4.665   0.289 -1.3562  1.4796 -1.3721
 2952TIP3    H230348   1.451   4.633   0.335 -0.6588  0.5784  0.2243
 2953TIP3   OH230349   2.135   0.708   4.364  0.1687  0.0050 -0.0438
 2953TIP3    H130350   2.178   0.644   4.306 -0.3292  1.2192 -1.8653
 2953TIP3    H230351   2.194   0.783   4.363  0.1441  0.0513  1.0673
 2954TIP3   OH230352   0.371   4.025  15.674 -0.1369 -0.5384  0.0747
 2954TIP3    H130353   0.288   4.056  15.709  0.8481  2.1635  0.2103
 2954TIP3    H230354   0.381   4.069  15.590  1.4357 -0.3047  0.3450
 2955TIP3   OH230355   6.076   0.421  17.292 -0.5824  0.1851  0.1118
 2955TIP3    H130356   6.148   0.479  17.265 -0.1074 -0.3538  0.2047
 2955TIP3    H230357   6.025   0.407  17.213 -0.4637  0.3958 -0.0024
 2956TIP3   OH230358   6.634   3.032  15.435  0.2336 -0.1475  0.0307
 2956TIP3    H130359   6.704   3.097  15.428  1.1013 -1.0599 -0.1382
 2956TIP3    H230360   6.605   3.019  15.345 -0.5071  0.5802  0.1512
 2957TIP3   OH230361   0.594   1.031   3.467 -0.7726 -0.3436  0.4649
 2957TIP3    H130362   0.604   1.015   3.373 -1.2114  0.7506  0.2120
 2957TIP3    H230363   0.625   0.951   3.509 -1.4517 -1.2107 -0.6415
 2958TIP3   OH230364   1.575   1.977   4.480  0.3073 -0.5019 -0.8065
 2958TIP3    H130365   1.665   1.948   4.465  0.1083 -0.7127 -1.6271
 2958TIP3    H230366   1.528   1.899   4.507  0.3124 -0.4486 -0.6448
 2959TIP3   OH230367   6.143   3.383   6.132  0.0221  0.6440  0.0748
 2959TIP3    H130368   6.232   3.410   6.151  0.6794 -1.1547 -0.2581
 2959TIP3    H230369   6.095   3.399   6.213  0.5564  1.9295  0.1525
 2960TIP3   OH230370   3.771   0.664  10.668 -0.0890 -0.3404 -0.4216
 2960TIP3    H130371   3.681   0.695  10.663  0.1411  0.1756 -1.9759
 2960TIP3    H230372   3.825   0.741  10.651  0.6703 -0.6005  0.6852
 2961TIP3   OH230373   5.956   0.355  14.642  0.2868 -0.1107  1.1907
 2961TIP3    H130374   5.993   0.337  14.556 -1.9504  0.0829  0.1156
 2961TIP3    H230375   5.959   0.451  14.649  0.9894 -0.1555  1.6002
 2962TIP3   OH230376   5.411   6.703   3.767  0.2815 -0.1400 -0.0937
 2962TIP3    H130377   5.473   6.741   3.706 -0.5168  0.5154 -0.5167
 2962TIP3    H230378   5.426   6.608   3.761  0.9600 -0.0148 -0.4755
 2963TIP3   OH230379   5.714   5.579  13.642 -0.3461  0.1325 -0.1840
 2963TIP3    H130380   5.638   5.523  13.659 -1.2061  1.1246 -0.6891
 2963TIP3    H230381   5.730   5.571  13.549 -0.5677  0.8236 -0.2893
 2964TIP3   OH230382   5.105   5.548   0.392 -0.7732 -0.3258  0.2360
 2964TIP3    H130383   5.056   5.497   0.327 -0.2966 -0.2011 -0.2284
 2964TIP3    H230384   5.139   5.483   0.453  0.2954 -0.6375 -0.6577
 2965TIP3   OH230385   1.800   1.568  16.933 -0.6273 -0.1806 -0.2262
 2965TIP3    H130386   1.747   1.492  16.957 -0.6191 -0.4053 -0.8922
 2965TIP3    H230387   1.847   1.541  16.854 -0.2242  0.3342 -0.1704
 2966TIP3   OH230388   3.659   3.277  10.959  0.3483  0.6262 -0.0318
 2966TIP3    H130389   3.571   3.310  10.942 -0.0290  0.2214  1.0790
 2966TIP3    H230390   3.686   3.237  10.877 -1.5705 -1.6619  0.3359
 2967TIP3   OH230391   2.019   4.729   0.302 -0.3353 -0.8384 -0.0749
 2967TIP3    H130392   1.944   4.705   0.247 -1.2508 -0.0383  0.7820
 2967TIP3    H230393   1.990   4.807   0.350  1.2608 -0.1684 -0.1318
 2968TIP3   OH230394   0.669   6.163   0.361  0.1317  0.9635 -0.6033
 2968TIP3    H130395   0.681   6.080   0.407  1.2908  1.0896 -0.6271
 2968TIP3    H230396   0.637   6.138   0.274  0.4624  0.5324 -0.6075
 2969TIP3   OH230397   5.084   5.840   4.599 -0.0965 -0.1813 -1.1761
 2969TIP3    H130398   5.038   5.867   4.679 -0.3242 -0.5172 -1.1933
 2969TIP3    H230399   5.114   5.922   4.560  0.3827 -0.0386 -0.5239
 2970TIP3   OH230400   4.151   1.827   6.432  0.1044 -0.5317 -0.2762
 2970TIP3    H130401   4.138   1.790   6.519  1.2646 -1.4276 -0.4602
 2970TIP3    H230402   4.062   1.846   6.400 -0.5402 -2.8080 -0.0084
 2971TIP3   OH230403   5.918   4.210  10.783 -0.1488  0.6986  0.0202
 2971TIP3    H130404   5.974   4.249  10.716 -0.0486  0.8928  0.2184
 2971TIP3    H230405   5.868   4.284  10.818 -0.5910  0.5178 -0.2122
 2972TIP3   OH230406   6.350   0.539  11.011  0.3069  0.0380 -0.3318
 2972TIP3    H130407   6.361   0.463  11.068 -4.0779  0.4990  1.4901
 2972TIP3    H230408   6.325   0.502  10.926  0.1865 -0.5847 -0.0265
 2973TIP3   OH230409   5.298   4.278   1.906  0.2235 -0.5116 -0.1795
 2973TIP3    H130410   5.337   4.366   1.905 -0.9548  0.0570  0.8121
 2973TIP3    H230411   5.367   4.221   1.875  1.0362  0.7691 -0.8171
 2974TIP3   OH230412   3.889   4.580   5.884 -0.4087  0.3639  0.1869
 2974TIP3    H130413   3.920   4.667   5.859 -2.3738  0.6408 -1.4878
 2974TIP3    H230414   3.894   4.579   5.980  0.6323  1.9028  0.1819
 2975TIP3   OH230415   3.111   3.870   3.715 -0.0669  0.5976  0.3861
 2975TIP3    H130416   3.142   3.935   3.777 -0.4528  1.2523 -0.0977
 2975TIP3    H230417   3.035   3.910   3.673 -1.7244 -1.0264  1.6585
 2976TIP3   OH230418   5.540   3.358  12.217  0.0744  0.1411 -0.2891
 2976TIP3    H130419   5.501   3.423  12.158 -0.4183  0.4747  0.3848
 2976TIP3    H230420   5.632   3.355  12.193  0.0252  0.8255 -0.5785
 2977TIP3   OH230421   4.288   3.939  13.346  0.3102 -0.1202  0.3784
 2977TIP3    H130422   4.210   3.982  13.311  0.2595 -1.4972 -1.3691
 2977TIP3    H230423   4.256   3.857  13.383  0.6284  0.4813  2.0720
 2978TIP3   OH230424   4.663   3.831  16.875 -0.0064 -0.4779  0.0898
 2978TIP3    H130425   4.712   3.831  16.958  0.2235 -2.2966 -0.0013
 2978TIP3    H230426   4.709   3.895  16.821 -1.2458  2.1452  1.9204
 2979TIP3   OH230427   6.244   2.389  12.473 -0.5706  0.1948  0.1000
 2979TIP3    H130428   6.296   2.317  12.508 -1.5923  0.6845  2.8238
 2979TIP3    H230429   6.155   2.372  12.503 -1.0247  2.0606 -0.0667
 2980TIP3   OH230430   1.075   4.551  11.126 -0.8522 -0.1230  0.4513
 2980TIP3    H130431   1.154   4.501  11.147 -0.4200 -0.1990 -1.2253
 2980TIP3    H230432   1.106   4.641  11.113 -1.0703 -0.1141 -0.0200
 2981TIP3   OH230433   2.509   2.541  13.216 -0.1677 -0.4189  0.2625
 2981TIP3    H130434   2.441   2.592  13.171  0.6882  1.5790  1.0863
 2981TIP3    H230435   2.462   2.499  13.289 -1.2224 -2.3083 -1.4207
 2982TIP3   OH230436   2.128   5.390   3.365  0.1262 -0.0695  0.1648
 2982TIP3    H130437   2.190   5.453   3.328  0.6007  0.2640  1.4929
 2982TIP3    H230438   2.164   5.305   3.341  0.2350  0.1373 -0.4364
 2983TIP3   OH230439   6.373   2.503  16.993 -0.1396  0.2349  0.0906
 2983TIP3    H130440   6.458   2.472  17.026  0.6918  2.1081 -0.1445
 2983TIP3    H230441   6.311   2.478  17.061  1.2716  2.4641  2.3906
 2984TIP3   OH230442   2.054   1.688   6.150  0.4686  1.0622  0.8604
 2984TIP3    H130443   2.042   1.597   6.177  0.8834  1.1512  1.3604
 2984TIP3    H230444   2.103   1.728   6.222  1.3276  1.3841  0.1174
 2985TIP3   OH230445   6.273   1.282  11.935  0.2742 -0.6870  0.3044
 2985TIP3    H130446   6.242   1.321  11.853  2.5548  2.4634  0.7585
 2985TIP3    H230447   6.195   1.277  11.990 -0.7617 -0.0264 -1.0368
 2986TIP3   OH230448   5.832   2.420  15.456  0.2330 -0.0115  0.2376
 2986TIP3    H130449   5.887   2.389  15.527  1.5580 -0.9488 -1.1355
 2986TIP3    H230450   5.844   2.515  15.455 -0.0014  0.0389  1.3950
 2987TIP3   OH230451   2.819   2.184  14.433  0.1428  0.2164 -0.3371
 2987TIP3    H130452   2.897   2.141  14.399  1.6429  1.2974  1.5308
 2987TIP3    H230453   2.852   2.260  14.480 -1.9001 -0.1643  1.8955
 2988TIP3   OH230454   6.601   1.681  12.201 -0.1891  0.0455 -0.1083
 2988TIP3    H130455   6.577   1.602  12.152  1.8190  0.3866 -1.8033
 2988TIP3    H230456   6.523   1.702  12.252 -2.6545 -0.1980 -3.3960
 2989TIP3   OH230457   2.445   0.738  15.028 -0.3403  0.3125 -0.5756
 2989TIP3    H130458   2.482   0.762  14.944  1.0918  0.0566 -0.0560
 2989TIP3    H230459   2.382   0.669  15.008  0.8508 -0.5935 -1.3438
 2990TIP3   OH230460   0.010   6.766   4.326  0.5643  0.4646 -0.7690
 2990TIP3    H130461  -0.000   6.674   4.350  0.4349 -0.1189 -2.8894
 2990TIP3    H230462  -0.036   6.814   4.395  0.3575 -1.0564  0.1997
 2991TIP3   OH230463   1.625   6.233  17.289  0.0668 -0.4050 -0.0255
 2991TIP3    H130464   1.583   6.148  17.293  0.5586 -0.6633 -0.2383
 2991TIP3    H230465   1.688   6.225  17.218 -2.1298  1.1787 -2.3107
 2992TIP3   OH230466   4.073   5.379  15.492  0.0447 -0.2993 -0.4383
 2992TIP3    H130467   4.149   5.411  15.539 -0.7577  0.7885  0.1776
 2992TIP3    H230468   4.077   5.423  15.407  0.1731 -0.3281 -0.4468
 2993TIP3   OH230469   2.412   5.730  13.759 -0.2850 -0.2834 -0.2781
 2993TIP3    H130470   2.388   5.644  13.792 -0.9381 -0.3007 -0.7674
 2993TIP3    H230471   2.453   5.712  13.674 -2.4201 -0.0062 -1.4272
 2994TIP3   OH230472   0.416   3.032   3.540  0.2545  0.1084  0.0773
 2994TIP3    H130473   0.437   2.947   3.501  0.2989  0.3087 -0.3304
 2994TIP3    H230474   0.478   3.041   3.612  0.1978 -0.2404  0.1763
 2995TIP3   OH230475   4.542   6.642  16.288  0.2472  0.0398  0.2702
 2995TIP3    H130476   4.576   6.712  16.343  1.0638 -0.8758  0.9740
 2995TIP3    H230477   4.479   6.596  16.344  0.6296 -0.5283  0.2393
 2996TIP3   OH230478   2.503   5.508  15.661 -0.4438 -0.0884 -0.1028
 2996TIP3    H130479   2.575   5.452  15.634 -0.1636  0.3560 -0.2987
 2996TIP3    H230480   2.437   5.496  15.593  0.7527  1.9818 -1.7730
 2997TIP3   OH230481   0.664   0.754   0.212  0.3848 -0.3051  0.2421
 2997TIP3    H130482   0.690   0.661   0.211  1.4004 -0.0387 -0.8832
 2997TIP3    H230483   0.578   0.754   0.254  1.1012 -1.5486  1.8299
 2998TIP3   OH230484   1.146   6.075  16.415 -0.2823 -0.2751 -0.1386
 2998TIP3    H130485   1.202   6.148  16.443  1.4630 -1.6328  0.0880
 2998TIP3    H230486   1.097   6.051  16.494  1.1900 -1.0997  0.5610
 2999TIP3   OH230487   6.033   2.131   2.323  0.2760  0.8145 -0.3160
 2999TIP3    H130488   6.116   2.098   2.288 -0.2545  0.5158 -1.3624
 2999TIP3    H230489   6.015   2.075   2.398 -0.1671 -0.7574 -1.5403
 3000TIP3   OH230490   4.725   6.587  11.732 -0.2998 -0.1183 -0.1374
 3000TIP3    H130491   4.770   6.531  11.796  1.2881 -0.3563 -1.4048
 3000TIP3    H230492   4.640   6.606  11.772  1.3058  1.3254  2.9769
 3001TIP3   OH230493   3.452   4.998  12.431 -0.3905  0.8941  0.5230
 3001TIP3    H130494   3.405   5.079  12.411 -3.1663 -0.2972  1.6133
 3001TIP3    H230495   3.499   5.018  12.512 -0.5913  1.5745  0.4809
 3002TIP3   OH230496   3.678   1.882   4.292 -0.2467 -0.0241 -0.1962
 3002TIP3    H130497   3.714   1.804   4.250 -0.1322 -1.6612  2.7020
 3002TIP3    H230498   3.747   1.948   4.283  0.8642 -1.1606 -0.1818
 3003TIP3   OH230499   2.936   3.731  13.516  0.7655 -0.5751 -0.0137
 3003TIP3    H130500   2.868   3.736  13.448  0.5703 -0.0456  0.2219
 3003TIP3    H230501   2.895   3.682  13.587  0.3101  0.5072  0.4949
 3004TIP3   OH230502   3.548   6.275  13.301  0.2142  0.6273 -0.3828
 3004TIP3    H130503   3.467   6.232  13.274 -0.8199  0.6483  2.3828
 3004TIP3    H230504   3.590   6.213  13.360  2.7728  0.2345 -2.4155
 3005TIP3   OH230505   2.437   4.777   5.580 -0.0767  0.0438  0.3998
 3005TIP3    H130506   2.429   4.860   5.627 -0.1075 -0.5444  1.4546
 3005TIP3    H230507   2.348   4.742   5.578  0.1172 -0.5008  0.9761
 3006TIP3   OH230508   1.307   0.362   5.976  0.4587 -0.3656  0.5017
 3006TIP3    H130509   1.361   0.437   6.000 -1.7802  1.0044  1.4820
 3006TIP3    H230510   1.259   0.340   6.056 -0.3959 -1.5950 -0.3198
 3007TIP3   OH230511   2.329   1.851  15.254 -0.5219  0.0721  0.7557
 3007TIP3    H130512   2.350   1.771  15.301  0.0056 -0.1063  0.2302
 3007TIP3    H230513   2.385   1.849  15.177  1.5904  2.2896  2.0907
 3008TIP3   OH230514   6.624   1.568  10.267 -0.1106 -0.4427  0.1440
 3008TIP3    H130515   6.559   1.556  10.198 -0.0788 -1.7464  0.3033
 3008TIP3    H230516   6.576   1.608  10.339 -0.4657 -0.3184 -0.1598
 3009TIP3   OH230517   1.252   4.480   1.548  0.3891  0.2661  0.2866
 3009TIP3    H130518   1.247   4.386   1.565 -0.9492  0.0600 -1.0029
 3009TIP3    H230519   1.181   4.518   1.600  0.1935  0.3959 -0.0656
 3010TIP3   OH230520   6.245   0.863  15.664  0.3094  0.2220  0.4722
 3010TIP3    H130521   6.180   0.803  15.701  1.0811 -0.8780  0.1059
 3010TIP3    H230522   6.312   0.870  15.731 -0.2086  1.4513  0.8991
 3011TIP3   OH230523   5.153   5.085   2.611 -0.1028  0.0841  0.1929
 3011TIP3    H130524   5.090   5.128   2.553 -1.9845  0.4255  2.3421
 3011TIP3    H230525   5.124   4.994   2.616  1.0492 -0.3506 -0.6521
 3012TIP3   OH230526   5.118   3.851   2.524  0.1525  0.0647 -0.1340
 3012TIP3    H130527   5.040   3.848   2.580 -0.4478 -0.9502 -0.9767
 3012TIP3    H230528   5.191   3.861   2.585 -0.5199 -0.5836  0.8146
 3013TIP3   OH230529   0.194   0.745   0.105 -0.2771  0.0715 -0.1855
 3013TIP3    H130530   0.184   0.651   0.120 -1.5947 -0.0852 -1.7877
 3013TIP3    H230531   0.251   0.751   0.028  0.8601  0.6469  0.6697
 3014TIP3   OH230532   6.632   5.991   0.926  0.0299  0.6458 -0.1341
 3014TIP3    H130533   6.629   6.024   0.836  0.5558 -0.6216 -0.6388
 3014TIP3    H230534   6.543   5.961   0.943  0.3431 -0.8174 -0.9244
 3015TIP3   OH230535   1.969   6.047   3.941 -0.2567  0.0926 -0.0328
 3015TIP3    H130536   1.875   6.037   3.925 -0.2634 -2.1983  1.0857
 3015TIP3    H230537   2.010   6.032   3.856 -0.7878 -1.6644 -0.0082
 3016TIP3   OH230538   6.542   1.492  16.790 -0.4052  0.2343 -0.1407
 3016TIP3    H130539   6.495   1.450  16.718 -2.1711  0.1535  1.0033
 3016TIP3    H230540   6.539   1.429  16.862  2.3393 -0.1634 -0.2741
 3017TIP3   OH230541   5.136   4.941  11.349  0.2060  0.0649  0.5050
 3017TIP3    H130542   5.223   4.905  11.329  0.4950  1.1800 -0.3278
 3017TIP3    H230543   5.075   4.874  11.319  0.7631 -1.4729  2.5916
 3018TIP3   OH230544   2.105   2.637   4.538 -0.3085 -0.3405  0.0714
 3018TIP3    H130545   2.146   2.720   4.565 -3.9608  1.9586 -0.7186
 3018TIP3    H230546   2.097   2.644   4.443  0.8302 -2.4579 -0.2340
 3019TIP3   OH230547   6.342   1.792  13.736 -0.1760  0.2880  0.4630
 3019TIP3    H130548   6.293   1.764  13.659 -0.6394  2.0861  0.0591
 3019TIP3    H230549   6.434   1.788  13.710 -0.1083 -1.9022  0.8197
 3020TIP3   OH230550   0.688   5.877   2.674  0.3444 -0.2742  0.7986
 3020TIP3    H130551   0.782   5.877   2.686  0.4436 -1.5939  0.2086
 3020TIP3    H230552   0.674   5.917   2.588  0.2656  1.0409  1.4086
 3021TIP3   OH230553   5.228   5.482  13.779  0.4131 -0.2469 -0.2778
 3021TIP3    H130554   5.142   5.455  13.812 -0.1261 -0.9774 -2.1437
 3021TIP3    H230555   5.215   5.496  13.685  2.3790 -0.6194 -0.6642
 3022TIP3   OH230556   1.864   5.058   0.568 -0.2874  0.0169  0.0144
 3022TIP3    H130557   1.958   5.065   0.551 -0.2072  0.9039  0.7777
 3022TIP3    H230558   1.855   5.068   0.663 -1.0800 -0.9623  0.0625
 3023TIP3   OH230559   6.463   4.005  11.368 -0.6616 -0.0615 -0.0184
 3023TIP3    H130560   6.476   4.095  11.338 -1.1706  0.4697  1.2740
 3023TIP3    H230561   6.495   3.950  11.296  0.3993  1.1485 -0.5057
 3024TIP3   OH230562   6.625   1.632  17.233  0.0642 -0.4748  0.5559
 3024TIP3    H130563   6.662   1.623  17.321  1.1789  0.0197  0.1613
 3024TIP3    H230564   6.700   1.655  17.178 -0.6646 -0.4988 -0.4796
 3025TIP3   OH230565   2.684   5.088  16.029 -0.1371  0.1414  0.5690
 3025TIP3    H130566   2.739   5.049  16.097  0.5379  1.5542  0.8804
 3025TIP3    H230567   2.636   5.158  16.075  1.0107  1.7345 -0.5427
 3026TIP3   OH230568   5.921   4.730   6.339 -0.5200  0.5862 -0.1293
 3026TIP3    H130569   5.853   4.726   6.272  1.9427  1.2693 -2.8476
 3026TIP3    H230570   5.968   4.648   6.331 -0.2609  0.6144  0.9163
 3027TIP3   OH230571   2.594   6.050  14.295 -0.1630  0.0408 -0.0879
 3027TIP3    H130572   2.550   6.074  14.376 -0.8814 -0.1507 -0.4194
 3027TIP3    H230573   2.686   6.075  14.310 -0.4376  0.7569  0.4722
 3028TIP3   OH230574   0.565   3.794   5.016  0.1744  0.5691 -0.1879
 3028TIP3    H130575   0.472   3.784   4.996  0.2360  1.0451 -0.7283
 3028TIP3    H230576   0.578   3.889   5.026  0.8297  0.6185 -1.2934
 3029TIP3   OH230577   4.874   5.575   4.928  0.4026 -0.3376 -0.3004
 3029TIP3    H130578   4.907   5.554   4.840  2.7139 -0.2695  0.4883
 3029TIP3    H230579   4.924   5.651   4.955 -1.6281  0.8430  0.3946
 3030TIP3   OH230580   3.800   4.374   3.314  0.1778  0.0059  0.2096
 3030TIP3    H130581   3.805   4.283   3.342 -0.7002 -0.4897 -1.1709
 3030TIP3    H230582   3.847   4.376   3.230 -0.7278  0.5871 -0.2977
 3031TIP3   OH230583   3.935   6.442  16.896  0.1731  0.4502  0.4475
 3031TIP3    H130584   3.863   6.458  16.835  2.5706 -0.0372 -2.7472
 3031TIP3    H230585   3.900   6.378  16.958 -2.4337  1.0046 -0.3202
 3032TIP3   OH230586   0.427   2.878   4.462 -0.5394 -1.3471  0.0233
 3032TIP3    H130587   0.520   2.858   4.452 -0.4888 -1.1460  0.0788
 3032TIP3    H230588   0.401   2.914   4.377 -0.5033 -1.1638  0.0891
 3033TIP3   OH230589   0.139   4.532  12.649  0.3713  0.3309 -0.2725
 3033TIP3    H130590   0.121   4.448  12.691  1.6721  0.7507  1.1985
 3033TIP3    H230591   0.183   4.509  12.567  0.9255 -0.4201  0.2259
 3034TIP3   OH230592   4.866   3.777   5.064 -0.4006  0.1084  0.0461
 3034TIP3    H130593   4.958   3.794   5.044 -0.5605  0.3905 -0.4874
 3034TIP3    H230594   4.836   3.722   4.992 -0.4429 -0.6686  0.6521
 3035TIP3   OH230595   4.372   5.957  15.310 -0.5746  0.1837  0.3724
 3035TIP3    H130596   4.332   5.892  15.253 -0.9162  0.7124 -0.0034
 3035TIP3    H230597   4.349   6.041  15.270 -2.1968  0.6512  2.1431
 3036TIP3   OH230598   4.648   5.786  11.316 -0.8879 -0.4238 -0.0096
 3036TIP3    H130599   4.686   5.873  11.305  0.7023 -0.8258  1.7896
 3036TIP3    H230600   4.668   5.740  11.234  1.5880 -0.2515  0.4374
 3037TIP3   OH230601   1.196   3.143   0.999 -0.6627 -0.1499 -0.3852
 3037TIP3    H130602   1.196   3.092   1.081  2.9092  2.0050  1.1647
 3037TIP3    H230603   1.145   3.221   1.020 -1.5124 -0.5312 -0.9697
 3038TIP3   OH230604   1.654   0.385   6.294  0.0090 -0.0280 -0.1717
 3038TIP3    H130605   1.562   0.370   6.313 -0.0509 -1.0508 -1.2150
 3038TIP3    H230606   1.657   0.406   6.201  0.7463  0.8563  0.0330
 3039TIP3   OH230607   0.250   0.626  17.028  0.0259  1.2539  0.4544
 3039TIP3    H130608   0.315   0.556  17.034 -0.9519  0.4059  1.9951
 3039TIP3    H230609   0.214   0.618  16.940  0.1609  0.0042  0.4967
 3040TIP3   OH230610   1.069   0.970   0.840 -0.1550 -0.2153 -0.9331
 3040TIP3    H130611   0.974   0.982   0.847 -0.2110 -1.1572  0.1600
 3040TIP3    H230612   1.084   0.880   0.867  0.7766 -1.0206 -3.7708
 3041TIP3   OH230613   0.278   6.338  13.068  0.5780 -0.0754  0.3341
 3041TIP3    H130614   0.186   6.362  13.062  0.1533 -1.9728 -1.9640
 3041TIP3    H230615   0.293   6.324  13.162 -1.0146  1.7502  0.9283
 3042TIP3   OH230616   5.643   1.864   3.848 -0.0586  0.2530 -0.2205
 3042TIP3    H130617   5.613   1.954   3.834 -1.6696 -0.3531 -0.8584
 3042TIP3    H230618   5.702   1.848   3.774 -0.1656  0.6095 -0.3891
 3043TIP3   OH230619   5.712   3.230   4.956  0.5887 -0.1916 -0.2371
 3043TIP3    H130620   5.623   3.247   4.925  0.8635  1.3029 -0.2707
 3043TIP3    H230621   5.706   3.237   5.051  0.6618 -0.1184 -0.2377
 3044TIP3   OH230622   5.414   3.563   4.556 -0.6770  0.2314  0.2873
 3044TIP3    H130623   5.463   3.639   4.525 -1.4814  0.1003 -1.4407
 3044TIP3    H230624   5.425   3.498   4.487 -2.1579 -0.2661  0.4906
 3045TIP3   OH230625   1.822   0.479   3.918  0.4817 -0.3717 -0.6946
 3045TIP3    H130626   1.848   0.554   3.863  1.1008  1.8167  2.3325
 3045TIP3    H230627   1.822   0.514   4.007  1.0797 -4.0962  0.9329
 3046TIP3   OH230628   2.837   0.750  11.028  0.0587 -0.2711 -0.7524
 3046TIP3    H130629   2.926   0.760  10.994  0.5107 -0.9577  0.1983
 3046TIP3    H230630   2.828   0.822  11.091 -0.0987 -0.1393 -0.9252
 3047TIP3   OH230631   6.026   3.409  14.886 -0.2737 -0.8502 -0.1034
 3047TIP3    H130632   6.098   3.411  14.950 -1.8181  0.2680  1.7261
 3047TIP3    H230633   5.997   3.500  14.880 -1.1312 -1.1785 -1.2770
 3048TIP3   OH230634   1.263   0.886  16.407 -0.1981  0.3633 -0.2501
 3048TIP3    H130635   1.332   0.846  16.459  1.5053  1.6955 -1.3577
 3048TIP3    H230636   1.256   0.975  16.441 -2.0794  0.0041  0.4546
 3049TIP3   OH230637   0.507   5.351  16.522 -0.3172  0.0227 -0.0587
 3049TIP3    H130638   0.430   5.294  16.513  0.2657 -0.6285 -1.0545
 3049TIP3    H230639   0.542   5.359  16.433  1.8765 -1.2740  0.6151
 3050TIP3   OH230640   0.875   3.280   2.086  0.4499 -0.3133 -0.2176
 3050TIP3    H130641   0.965   3.292   2.054  1.0150 -0.0468  1.3927
 3050TIP3    H230642   0.848   3.367   2.114  0.0621 -0.5731  0.2251
 3051TIP3   OH230643   4.885   4.431   5.166  0.5227 -0.2994 -0.3728
 3051TIP3    H130644   4.918   4.354   5.121 -0.2383 -1.1984  0.5475
 3051TIP3    H230645   4.794   4.438   5.137  0.5181  0.1241 -0.2668
 3052TIP3   OH230646   5.621   2.668  15.452 -0.1002 -0.4734  0.2933
 3052TIP3    H130647   5.679   2.744  15.457  1.0420 -1.1159 -1.9050
 3052TIP3    H230648   5.600   2.660  15.359 -3.2480 -0.6832  0.8864
 3053TIP3   OH230649   1.861   5.134  14.980 -0.5624 -0.3550  1.0141
 3053TIP3    H130650   1.838   5.041  14.978  0.7441 -0.7087 -0.6810
 3053TIP3    H230651   1.778   5.179  14.967 -1.0290 -1.3704  0.2714
 3054TIP3   OH230652   3.511   6.115  15.118 -0.5633  0.1750 -0.1430
 3054TIP3    H130653   3.562   6.174  15.062 -0.6778 -0.4999 -0.9839
 3054TIP3    H230654   3.513   6.031  15.072 -0.9049 -0.3290  0.7321
 3055TIP3   OH230655   6.181   3.841  16.290 -0.1101  0.0005 -0.3368
 3055TIP3    H130656   6.205   3.775  16.225 -1.6271 -0.9528  0.0315
 3055TIP3    H230657   6.264   3.878  16.319  0.7198 -1.2589 -1.0478
 3056TIP3   OH230658   6.136   4.759   4.712 -0.4577  0.0806  0.8482
 3056TIP3    H130659   6.102   4.746   4.624  0.3981  1.3340  0.3013
 3056TIP3    H230660   6.154   4.853   4.717  0.5993 -0.1554  1.9524
 3057TIP3   OH230661   4.199   1.304  15.015  0.6156  0.3653 -0.2623
 3057TIP3    H130662   4.120   1.251  15.008 -0.1553  1.4580 -0.1086
 3057TIP3    H230663   4.235   1.305  14.926  0.1841  0.2729 -0.4407
 3058TIP3   OH230664   1.463   5.121   0.537 -0.2310 -0.3056  0.2540
 3058TIP3    H130665   1.420   5.070   0.469 -1.5680  0.2696  0.6336
 3058TIP3    H230666   1.457   5.068   0.615 -0.3377 -0.1817  0.3307
 3059TIP3   OH230667   1.502   6.390  15.992 -0.5653  0.5612 -0.2904
 3059TIP3    H130668   1.408   6.379  16.005 -0.4709 -0.9065 -0.5983
 3059TIP3    H230669   1.542   6.337  16.061  0.0429  1.2370 -0.1109
 3060TIP3   OH230670   4.461   3.181   1.085 -0.5845 -0.0223 -0.0662
 3060TIP3    H130671   4.469   3.085   1.093  0.2289 -0.1560 -1.7859
 3060TIP3    H230672   4.527   3.215   1.145 -0.1012 -0.6020 -0.2444
 3061TIP3   OH230673   3.668   2.632  12.035 -0.0775  0.0492  0.4788
 3061TIP3    H130674   3.672   2.720  11.997 -0.7864  0.3654  1.1079
 3061TIP3    H230675   3.583   2.598  12.007  0.2593 -0.5063  0.1066
 3062TIP3   OH230676   2.886   5.670  14.609 -0.7962 -0.1590  0.7053
 3062TIP3    H130677   2.797   5.650  14.578 -0.4875 -0.7144  0.1559
 3062TIP3    H230678   2.897   5.764  14.590 -1.8855  0.3587  2.3819
 3063TIP3   OH230679   2.275   5.782  14.406 -0.7394  0.5832 -0.1934
 3063TIP3    H130680   2.269   5.696  14.364 -1.7794 -0.3608  1.8011
 3063TIP3    H230681   2.350   5.824  14.363 -0.7974 -0.9156 -1.8674
 3064TIP3   OH230682   5.895   3.593   4.238  0.0032 -0.0575  0.3928
 3064TIP3    H130683   5.849   3.536   4.300  0.7267 -0.0517  0.9524
 3064TIP3    H230684   5.907   3.675   4.287  1.9763 -0.5602  0.8580
 3065TIP3   OH230685   1.371   2.736   4.761 -0.0261  0.5468 -0.3056
 3065TIP3    H130686   1.334   2.667   4.706 -2.4946 -0.0559  1.9362
 3065TIP3    H230687   1.319   2.814   4.741 -1.9720 -0.0250  2.0332
 3066TIP3   OH230688   6.436   0.680  15.856 -0.2526  0.2951  0.5274
 3066TIP3    H130689   6.355   0.714  15.895 -0.4380 -1.0796  1.4170
 3066TIP3    H230690   6.491   0.659  15.931 -0.2930 -1.6464  0.0562
 3067TIP3   OH230691   0.326   4.722   6.516 -0.0804  0.6212  0.0959
 3067TIP3    H130692   0.419   4.732   6.499 -0.2097  0.9553 -0.4389
 3067TIP3    H230693   0.320   4.698   6.609  0.6495 -1.0697 -0.2578
 3068TIP3   OH230694   3.132   6.147   1.391  0.9081 -0.1951  0.0605
 3068TIP3    H130695   3.175   6.062   1.398  0.9065 -0.5080 -2.6994
 3068TIP3    H230696   3.073   6.139   1.316  0.8356  2.1947 -0.2320
 3069TIP3   OH230697   1.227   1.317   5.225  0.3415 -0.1573 -0.6674
 3069TIP3    H130698   1.238   1.375   5.300  4.1200  1.2548 -2.0803
 3069TIP3    H230699   1.179   1.369   5.161 -2.4656 -1.2008  0.4493
 3070TIP3   OH230700   5.246   5.428   0.665 -0.3901  0.1271 -0.2399
 3070TIP3    H130701   5.275   5.337   0.670 -0.4258  0.0688 -1.0311
 3070TIP3    H230702   5.321   5.479   0.696 -1.4113 -0.2804  3.4505
 3071TIP3   OH230703   0.189   5.155   4.268  0.1750  0.2437  1.2731
 3071TIP3    H130704   0.125   5.164   4.338 -0.2630  1.3897  0.7545
 3071TIP3    H230705   0.257   5.219   4.288 -0.7247  1.7220 -0.1186
 3072TIP3   OH230706   2.239   2.544   4.026 -0.8469  0.1463  0.7064
 3072TIP3    H130707   2.179   2.542   3.951 -0.3720  0.3543  0.3141
 3072TIP3    H230708   2.326   2.550   3.987 -0.2347 -3.7603  1.1239
 3073TIP3   OH230709   6.493   4.576  12.289 -0.3857 -0.1088 -0.1293
 3073TIP3    H130710   6.449   4.625  12.219 -1.4191  1.9966  1.8628
 3073TIP3    H230711   6.424   4.522  12.328  0.2472 -1.4917 -0.8601
 3074TIP3   OH230712   0.211   3.384  16.848  0.3059  0.3792  0.4704
 3074TIP3    H130713   0.301   3.352  16.837  0.3487  0.1843  1.3337
 3074TIP3    H230714   0.220   3.479  16.848  0.9941  0.4291  3.8442
 3075TIP3   OH230715   0.945   5.891  15.987  0.1174  0.1043 -0.1707
 3075TIP3    H130716   0.932   5.947  16.064 -1.3011 -1.3547  0.7276
 3075TIP3    H230717   0.988   5.813  16.021 -0.6380 -0.6115 -0.8013
 3076TIP3   OH230718   0.786   2.419   0.926 -0.1997  0.1871  0.3832
 3076TIP3    H130719   0.856   2.465   0.879 -0.4254  1.3519  1.1299
 3076TIP3    H230720   0.823   2.403   1.013 -0.4393 -0.2762  0.4022
 3077TIP3   OH230721   1.379   1.698  14.237  0.5358  0.1911 -0.3039
 3077TIP3    H130722   1.446   1.761  14.263  1.3942 -0.8700  0.1401
 3077TIP3    H230723   1.414   1.613  14.263 -1.6823 -0.2971  1.4781
 3078TIP3   OH230724   0.810   5.030   2.678 -0.5135 -0.1728 -0.3706
 3078TIP3    H130725   0.804   4.959   2.742  1.5147 -0.8999 -0.8995
 3078TIP3    H230726   0.848   4.989   2.600  1.5206  1.6092 -0.4228
 3079TIP3   OH230727   6.174   4.546  16.381 -0.4123 -0.1322 -0.1619
 3079TIP3    H130728   6.091   4.500  16.371 -1.0116  0.7738  0.5020
 3079TIP3    H230729   6.164   4.626  16.329 -1.2925  1.6619  2.5244
 3080TIP3   OH230730   3.849   6.568   5.892 -0.1843  0.1079 -0.0902
 3080TIP3    H130731   3.891   6.503   5.949  0.7667  1.8025  1.2365
 3080TIP3    H230732   3.805   6.515   5.826  0.2022 -1.9086  1.1372
 3081TIP3   OH230733   3.733   1.289   1.143 -0.7818  0.2617  0.0055
 3081TIP3    H130734   3.697   1.362   1.091  2.9489  0.2000 -3.0581
 3081TIP3    H230735   3.810   1.326   1.185  1.0564 -1.6965 -1.4132
 3082TIP3   OH230736   1.604   1.167   0.553  0.4973 -0.6533 -0.5440
 3082TIP3    H130737   1.655   1.102   0.600  1.2857  1.6017  1.9986
 3082TIP3    H230738   1.669   1.226   0.515 -0.1055  0.9445  0.7773
 3083TIP3   OH230739   1.329   0.202   1.697  0.1111  0.6101  0.2130
 3083TIP3    H130740   1.303   0.177   1.786  1.5571 -0.9274  0.2411
 3083TIP3    H230741   1.261   0.164   1.641  0.2253 -0.0947  0.5407
 3084TIP3   OH230742   1.702   4.734  12.252 -0.2302 -0.2114 -0.5941
 3084TIP3    H130743   1.634   4.777  12.304  0.9969  0.5488  0.4380
 3084TIP3    H230744   1.764   4.699  12.316 -0.1658 -1.8339 -1.4760
 3085TIP3   OH230745   3.861   6.395   5.493  0.4189  0.6575  0.0125
 3085TIP3    H130746   3.914   6.319   5.515  0.2545  0.5855  0.1665
 3085TIP3    H230747   3.907   6.469   5.534  0.7792  0.6937 -0.4532
 3086TIP3   OH230748   6.234   5.583   1.153  0.3594 -0.3122 -1.0335
 3086TIP3    H130749   6.175   5.622   1.217  0.8160 -0.0272 -0.7787
 3086TIP3    H230750   6.184   5.583   1.071 -0.2099 -0.6379 -0.6955
 3087TIP3   OH230751   2.077   3.428  13.132  0.1102 -0.1045 -0.4655
 3087TIP3    H130752   2.150   3.448  13.074 -0.5002 -0.3873 -1.3467
 3087TIP3    H230753   2.117   3.376  13.202  1.0622  1.2219  0.0216
 3088TIP3   OH230754   2.753   0.984  14.845  0.1990  0.3910  0.4107
 3088TIP3    H130755   2.799   0.917  14.794  1.1820  0.0725  1.6635
 3088TIP3    H230756   2.821   1.022  14.900 -0.7206  1.1317  1.0538
 3089TIP3   OH230757   3.924   1.204  13.574 -0.0555 -0.5249 -0.2390
 3089TIP3    H130758   3.956   1.190  13.485 -0.0639 -0.2557 -0.2848
 3089TIP3    H230759   3.966   1.286  13.602 -0.2363 -0.4839 -0.0822
 3090TIP3   OH230760   3.737   1.913   0.112 -0.6822  0.0033 -0.4711
 3090TIP3    H130761   3.741   1.817   0.107 -0.5249  0.0534 -1.5488
 3090TIP3    H230762   3.819   1.938   0.154 -0.9622 -0.3542  0.3184
 3091TIP3   OH230763   5.472   2.570   4.249 -0.5967 -0.6745 -0.1990
 3091TIP3    H130764   5.543   2.586   4.311 -0.9425 -2.6249  0.7693
 3091TIP3    H230765   5.392   2.591   4.297 -0.7695  1.1873 -1.1764
 3092TIP3   OH230766   2.113   3.836  14.262 -0.2374 -0.5689  0.3311
 3092TIP3    H130767   2.041   3.875  14.212  0.4683 -0.0284 -0.2947
 3092TIP3    H230768   2.181   3.820  14.197 -0.0935 -1.8637  0.7659
 3093TIP3   OH230769   2.978   2.909   4.611  0.2191 -0.2500 -0.2739
 3093TIP3    H130770   2.918   2.934   4.681 -1.0191 -1.4348 -0.8547
 3093TIP3    H230771   3.065   2.930   4.645 -0.4252  0.3228  1.1158
 3094TIP3   OH230772   2.687   1.572  13.124 -0.6588 -0.2247 -0.7989
 3094TIP3    H130773   2.783   1.566  13.128 -0.5627  1.3821  1.2706
 3094TIP3    H230774   2.670   1.666  13.115 -2.0463 -0.3848 -0.0319
 3095TIP3   OH230775   1.013   1.853  16.883 -0.0449 -0.1545  0.0864
 3095TIP3    H130776   1.028   1.943  16.911  0.2771 -0.2700  0.2864
 3095TIP3    H230777   1.091   1.805  16.912 -2.1051 -1.4943  4.2718
 3096TIP3   OH230778   5.546   6.646   4.077 -0.5109  0.0346  0.3565
 3096TIP3    H130779   5.560   6.597   3.996  0.1229 -1.2581  1.2174
 3096TIP3    H230780   5.525   6.734   4.048 -2.1133 -0.8154 -1.2774
 3097TIP3   OH230781   0.210   1.198   3.048 -0.4192  0.3805  0.5174
 3097TIP3    H130782   0.254   1.250   2.981 -1.6420 -1.5287 -1.9445
 3097TIP3    H230783   0.250   1.111   3.042 -0.5699  0.1363  2.3007
 3098TIP3   OH230784   5.463   2.476  13.050  0.1344  0.7067 -0.0840
 3098TIP3    H130785   5.436   2.567  13.045 -1.8421  0.1436 -0.8113
 3098TIP3    H230786   5.559   2.479  13.060  0.1781  2.8189 -0.7352
 3099TIP3   OH230787   2.637   4.147  15.522 -0.3075 -0.2965 -0.2068
 3099TIP3    H130788   2.543   4.143  15.539 -0.1967 -1.1626  0.3157
 3099TIP3    H230789   2.656   4.067  15.473  0.0054  0.3433 -1.1499
 3100TIP3   OH230790   0.839   5.477   4.317  0.0920  0.0503  0.9291
 3100TIP3    H130791   0.828   5.571   4.329  0.3547  0.2759 -0.4400
 3100TIP3    H230792   0.829   5.463   4.223 -0.0186 -1.3039  1.1166
 3101TIP3   OH230793   6.775   1.965  16.006  0.9022  0.6572 -0.1459
 3101TIP3    H130794   6.774   2.044  15.952  0.3867  0.0816 -1.0024
 3101TIP3    H230795   6.705   1.978  16.069  1.1674  1.1079  0.0629
 3102TIP3   OH230796   0.568   5.111  15.177 -0.2660  0.5629  0.0027
 3102TIP3    H130797   0.493   5.159  15.140 -1.4978 -1.6943 -0.5828
 3102TIP3    H230798   0.576   5.033  15.123  0.4041 -0.8885  2.0844
 3103TIP3   OH230799   3.359   1.336  16.647  0.7500  0.4645  0.1686
 3103TIP3    H130800   3.417   1.296  16.583  1.3484 -0.0312  0.9956
 3103TIP3    H230801   3.347   1.268  16.714 -0.3795  0.7324  0.2615
 3104TIP3   OH230802   2.963   1.122  15.018 -0.6010 -0.3058  0.0944
 3104TIP3    H130803   2.940   1.043  15.066  3.2480 -0.0026  2.8393
 3104TIP3    H230804   2.975   1.189  15.085  0.2721  1.5121 -1.7441
 3105TIP3   OH230805   1.014   5.966   2.641  0.3826  0.0456  0.0047
 3105TIP3    H130806   1.021   5.938   2.550 -1.1407 -0.0874 -0.0969
 3105TIP3    H230807   0.956   6.042   2.639  0.1441 -0.0955  0.8841
 3106TIP3   OH230808   6.656   0.163  12.884 -0.6620 -0.0264  0.0342
 3106TIP3    H130809   6.644   0.089  12.944 -1.4097  0.6753  0.7737
 3106TIP3    H230810   6.600   0.232  12.919 -0.1448  0.8297 -0.7682
 3107TIP3   OH230811   2.916   0.642   2.747  0.6237 -0.0502 -0.4226
 3107TIP3    H130812   2.929   0.559   2.793 -1.2620  1.1361  2.5775
 3107TIP3    H230813   2.830   0.673   2.776  0.9928  2.6979 -1.8588
 3108TIP3   OH230814   5.553   0.303   0.554  0.1829  0.1323  0.0734
 3108TIP3    H130815   5.461   0.301   0.581  0.7811  0.9443  2.4156
 3108TIP3    H230816   5.555   0.363   0.479 -1.2596 -0.4981 -0.5194
 3109TIP3   OH230817   4.784   1.144   1.751 -0.1492 -0.4990  0.1454
 3109TIP3    H130818   4.840   1.181   1.683  1.5282 -0.2921  1.5396
 3109TIP3    H230819   4.710   1.204   1.758  1.3808  1.4059  0.8157
 3110TIP3   OH230820   4.458   3.369  12.789  0.2986  0.0865 -0.1929
 3110TIP3    H130821   4.409   3.324  12.857 -2.0562  0.2813 -1.6468
 3110TIP3    H230822   4.498   3.300  12.737  1.4810 -0.0800  0.8891
 3111TIP3   OH230823   3.464   1.333  15.444  0.3608 -0.0600  0.3840
 3111TIP3    H130824   3.400   1.293  15.386  0.1177  0.4330  0.3073
 3111TIP3    H230825   3.412   1.386  15.505  0.7054  0.6498  0.0806
 3112TIP3   OH230826   0.049   6.200  12.271  0.5378  0.0452  0.1138
 3112TIP3    H130827   0.124   6.142  12.289 -0.3407 -1.0931  0.2353
 3112TIP3    H230828   0.020   6.229  12.358  0.8754  0.5342  0.0624
 3113TIP3   OH230829   1.436   1.316  12.816 -0.2724  0.2333 -0.2242
 3113TIP3    H130830   1.365   1.262  12.781 -0.3774 -0.2774  0.7495
 3113TIP3    H230831   1.468   1.268  12.892  1.1224  0.4531 -0.6326
 3114TIP3   OH230832   0.671   3.260  11.666  0.1473  0.5780  0.4120
 3114TIP3    H130833   0.681   3.313  11.745  1.9979  0.4461  0.2949
 3114TIP3    H230834   0.606   3.194  11.690 -1.3120  2.1227  0.9357
 3115TIP3   OH230835   4.610   4.975  15.125 -0.2205 -0.5904 -0.6776
 3115TIP3    H130836   4.672   5.046  15.140  2.2454 -2.4483 -1.3565
 3115TIP3    H230837   4.534   4.998  15.179  1.4292  1.3574  1.0055
 3116TIP3   OH230838   5.509   2.304  16.634  0.4517 -0.1393  0.1796
 3116TIP3    H130839   5.536   2.238  16.697  0.2774 -0.3718  0.0104
 3116TIP3    H230840   5.528   2.265  16.549 -2.1651 -1.1290 -0.0444
 3117TIP3   OH230841   6.229   5.348  14.665 -0.2259 -0.9491  0.4046
 3117TIP3    H130842   6.187   5.354  14.751 -0.0388 -0.8080  0.4868
 3117TIP3    H230843   6.157   5.338  14.603 -0.4203 -0.0096  0.4721
 3118TIP3   OH230844   4.221   5.903   3.553  0.1469  0.1267 -0.0446
 3118TIP3    H130845   4.267   5.823   3.528  0.6103  1.1000 -2.5038
 3118TIP3    H230846   4.290   5.964   3.579 -0.1366  0.1100  0.8123
 3119TIP3   OH230847   1.731   2.335  11.755 -0.4689  0.2123  0.4689
 3119TIP3    H130848   1.798   2.380  11.806  0.2181  0.4267 -0.6043
 3119TIP3    H230849   1.659   2.398  11.750  0.1660  0.8937 -0.3314
 3120TIP3   OH230850   4.524   2.726  16.481 -0.4964  0.3320  0.4203
 3120TIP3    H130851   4.460   2.746  16.549 -0.7452 -1.2981  0.7068
 3120TIP3    H230852   4.608   2.748  16.520 -0.6544 -0.4304  1.2063
 3121TIP3   OH230853   3.424   3.213  16.440  0.2311 -0.0253  0.1087
 3121TIP3    H130854   3.483   3.138  16.446  2.7799  1.8639  0.5488
 3121TIP3    H230855   3.432   3.257  16.524  1.2848  2.3856 -1.1329
 3122TIP3   OH230856   3.388   4.493  14.249  0.0021  0.4339  0.3493
 3122TIP3    H130857   3.469   4.518  14.293 -0.7167  2.5281  0.5833
 3122TIP3    H230858   3.319   4.543  14.294 -1.3911 -1.0186 -0.0663
 3123TIP3   OH230859   0.593   4.709  11.317 -0.2602  0.0578  0.2066
 3123TIP3    H130860   0.552   4.638  11.266  0.7954 -1.7327  1.6957
 3123TIP3    H230861   0.601   4.781  11.256 -1.9235 -0.9071 -1.2447
 3124TIP3   OH230862   2.205   6.559  16.131 -0.1645 -0.1151  0.2139
 3124TIP3    H130863   2.275   6.501  16.100 -1.4849 -1.0329 -1.1934
 3124TIP3    H230864   2.218   6.640  16.081  0.3610  0.0101  0.5463
 3125TIP3   OH230865   3.921   3.913   0.688  0.0769 -0.0065 -0.0538
 3125TIP3    H130866   3.990   3.948   0.632  0.5931 -1.7150 -0.5274
 3125TIP3    H230867   3.890   3.835   0.643  0.4069 -1.3694  1.9470
 3126TIP3   OH230868   4.826   2.749   0.317  0.0456  0.1978 -0.1913
 3126TIP3    H130869   4.783   2.834   0.304  0.4645  0.5022  0.3880
 3126TIP3    H230870   4.915   2.771   0.343  0.0152 -0.4232  0.4534
 3127TIP3   OH230871   5.829   6.427   2.888 -0.5096  0.3921  0.1597
 3127TIP3    H130872   5.797   6.408   2.800  3.9949 -0.5854 -1.5167
 3127TIP3    H230873   5.793   6.357   2.943  0.3424 -1.8256 -1.9470
 3128TIP3   OH230874   4.394   3.285   2.613 -0.0401  0.6615  0.1136
 3128TIP3    H130875   4.407   3.379   2.619 -1.2441  0.9561 -1.3684
 3128TIP3    H230876   4.403   3.253   2.703 -0.8866  2.3577  0.8282
 3129TIP3   OH230877   2.626   5.567   5.210 -0.6412 -0.1151 -0.1472
 3129TIP3    H130878   2.552   5.602   5.259 -1.5670 -1.6195 -0.4350
 3129TIP3    H230879   2.700   5.623   5.236 -1.7239  0.9990  0.6331
 3130TIP3   OH230880   1.796   3.901   2.788  0.0155  1.1295  0.2096
 3130TIP3    H130881   1.884   3.879   2.818  0.2256  2.4029  0.5804
 3130TIP3    H230882   1.805   3.988   2.750 -1.2513  1.6490  1.0455
 3131TIP3   OH230883   2.924   4.478  13.448  0.4524  0.3605 -0.4665
 3131TIP3    H130884   2.892   4.516  13.366  2.1132 -0.4435 -1.5334
 3131TIP3    H230885   3.016   4.504  13.453  1.7604 -3.3845 -1.3195
 3132TIP3   OH230886   4.505   5.813  12.665  0.1247  0.3747  0.0070
 3132TIP3    H130887   4.430   5.757  12.683 -1.0731  2.2554  1.2487
 3132TIP3    H230888   4.470   5.882  12.608  0.6133  1.7844  1.3362
 3133TIP3   OH230889   2.078   2.348  13.195 -0.0356  0.0724  0.3343
 3133TIP3    H130890   2.007   2.404  13.163  1.6727  2.6606  0.8101
 3133TIP3    H230891   2.036   2.291  13.259 -1.8696  0.7799 -0.1697
 3134TIP3   OH230892   6.553   1.045   1.381  0.1490 -0.1393 -0.1354
 3134TIP3    H130893   6.498   0.988   1.434 -0.6971 -0.1992 -1.0500
 3134TIP3    H230894   6.636   0.997   1.373  0.9797  0.6470  2.5527
 3135TIP3   OH230895   1.267   4.174   5.837  0.0858 -0.7803 -0.6249
 3135TIP3    H130896   1.213   4.179   5.916 -0.9331 -1.0820 -1.2749
 3135TIP3    H230897   1.355   4.199   5.866 -0.3352 -0.5683  0.5290
 3136TIP3   OH230898   6.324   3.890   2.591 -0.4969 -0.0565 -0.0575
 3136TIP3    H130899   6.258   3.843   2.540 -1.0066  1.3218 -0.7139
 3136TIP3    H230900   6.273   3.954   2.642  0.1075 -0.6878  1.3875
 3137TIP3   OH230901   3.226   2.075  17.035  0.5565 -0.0479 -0.0666
 3137TIP3    H130902   3.151   2.104  16.984  0.9004  0.7075 -0.1596
 3137TIP3    H230903   3.233   1.981  17.017 -1.7390 -0.6513  1.7022
 3138TIP3   OH230904   0.754   2.697  10.729 -0.3830 -0.1015  0.3425
 3138TIP3    H130905   0.818   2.768  10.726 -0.6022  0.1509 -3.1231
 3138TIP3    H230906   0.803   2.618  10.705 -0.8608 -0.3734  0.2299
 3139TIP3   OH230907   3.209   1.323  15.322 -0.5651 -0.3366 -0.3075
 3139TIP3    H130908   3.186   1.414  15.303 -0.0769 -0.2414 -0.4662
 3139TIP3    H230909   3.129   1.285  15.358 -1.0124 -0.0626 -0.9935
 3140TIP3   OH230910   1.506   5.344  13.557  0.2705  0.2039  0.2765
 3140TIP3    H130911   1.425   5.368  13.513  0.4304  1.8730  0.8152
 3140TIP3    H230912   1.523   5.254  13.529 -1.2534  0.1484 -0.5834
 3141TIP3   OH230913   0.336   5.412  13.601 -0.0707 -0.1642 -0.1342
 3141TIP3    H130914   0.394   5.379  13.533  0.9076  1.5627 -0.2093
 3141TIP3    H230915   0.336   5.507  13.588  0.4711  0.2787  2.4985
 3142TIP3   OH230916   5.290   0.971   2.006 -0.3895  0.0454 -0.2189
 3142TIP3    H130917   5.384   0.980   2.019 -0.1569 -1.0862 -0.9937
 3142TIP3    H230918   5.253   0.975   2.095  0.5341 -0.9728  0.2345
 3143TIP3   OH230919   2.592   4.648  12.120 -0.6511 -0.0767  0.5989
 3143TIP3    H130920   2.627   4.646  12.209  0.8293 -1.0393  0.0383
 3143TIP3    H230921   2.564   4.558  12.103 -0.7165  0.0460  0.0228
 3144TIP3   OH230922   2.504   4.797   2.708 -0.1373 -0.2322  0.2929
 3144TIP3    H130923   2.588   4.838   2.727 -0.1382 -0.0751 -0.0332
 3144TIP3    H230924   2.526   4.711   2.671 -0.1448 -0.9526  1.8790
 3145TIP3   OH230925   0.356   5.377  11.252  0.6230  1.0226 -0.4665
 3145TIP3    H130926   0.277   5.358  11.203  0.4964  1.5822 -0.4932
 3145TIP3    H230927   0.378   5.295  11.296  0.0107  0.8728 -0.4319
 3146TIP3   OH230928   6.373   2.762  13.566 -0.2692 -0.1318  0.2902
 3146TIP3    H130929   6.399   2.835  13.622 -0.1294 -0.5754  0.8159
 3146TIP3    H230930   6.337   2.803  13.487 -1.3935  0.5235  1.1172
 3147TIP3   OH230931   0.574   2.142   4.758 -0.5999 -0.4103 -0.7305
 3147TIP3    H130932   0.597   2.146   4.666 -0.5874 -1.4091 -0.7843
 3147TIP3    H230933   0.585   2.049   4.781 -0.8584 -0.2184  0.2009
 3148TIP3   OH230934   5.393   5.370  11.792  0.2373 -0.1502  0.3580
 3148TIP3    H130935   5.307   5.341  11.763 -0.2770 -0.1334  1.8150
 3148TIP3    H230936   5.376   5.444  11.850  0.8798 -2.2935  3.5712
 3149TIP3   OH230937   6.463   3.420  15.281  0.2257  0.2114 -0.8138
 3149TIP3    H130938   6.554   3.441  15.302  0.2595  0.0245 -0.7736
 3149TIP3    H230939   6.412   3.467  15.346  0.2489  1.0440 -1.3651
 3150TIP3   OH230940   0.263   6.507   4.169  0.1596  0.4730 -0.6811
 3150TIP3    H130941   0.180   6.504   4.122 -0.0818  1.2523 -0.3258
 3150TIP3    H230942   0.293   6.597   4.160  0.3970  0.4917  0.1470
 3151TIP3   OH230943   3.495   4.646  12.383 -0.2098  0.6851 -0.3370
 3151TIP3    H130944   3.505   4.730  12.339  0.7911  1.3904  1.1766
 3151TIP3    H230945   3.401   4.632  12.387 -0.3526  1.0971 -1.7406
 3152TIP3   OH230946   6.526   2.935  15.154 -0.3456 -0.4625  0.2236
 3152TIP3    H130947   6.505   2.841  15.154 -0.7939 -0.3625  0.7461
 3152TIP3    H230948   6.441   2.979  15.148 -0.1633 -0.0852  0.3675
 3153TIP3   OH230949   0.194   0.071   6.687 -0.2412  0.5511 -0.5309
 3153TIP3    H130950   0.134   0.144   6.672 -0.5343  0.1410 -1.4279
 3153TIP3    H230951   0.152  -0.003   6.644  1.5274  0.5422 -2.3722
 3154TIP3   OH230952   4.262   1.639   1.179 -0.0747  0.1398  0.3722
 3154TIP3    H130953   4.210   1.621   1.257  2.2499  0.4837  2.1254
 3154TIP3    H230954   4.350   1.657   1.212  0.7899  1.3933 -2.2576
 3155TIP3   OH230955   1.144   0.841  12.708  0.2047 -0.1902 -0.0623
 3155TIP3    H130956   1.170   0.752  12.731 -0.8584 -0.8768 -1.3580
 3155TIP3    H230957   1.218   0.896  12.733 -0.0565 -1.0719  3.0181
 3156TIP3   OH230958   2.062   6.619  16.989 -0.2876  0.3479  0.0448
 3156TIP3    H130959   2.060   6.676  16.912  1.5674  0.8534  0.3251
 3156TIP3    H230960   2.155   6.612  17.011 -0.6430 -1.2096  1.2010
 3157TIP3   OH230961   4.461   4.546   6.441 -0.0803 -0.8381 -0.0962
 3157TIP3    H130962   4.534   4.565   6.499  1.7373 -1.3012 -2.0913
 3157TIP3    H230963   4.388   4.598   6.475  2.5549  3.9969 -0.9639
 3158TIP3   OH230964   0.211   0.655   1.102  0.1820  0.4205  0.4355
 3158TIP3    H130965   0.185   0.574   1.146  2.0197  0.1279  1.0460
 3158TIP3    H230966   0.252   0.708   1.170  0.4979  1.1684 -0.3181
 3159TIP3   OH230967   5.387   3.117  13.454  0.7875 -0.7541 -0.5662
 3159TIP3    H130968   5.431   3.197  13.484  2.0989 -1.7089  0.1718
 3159TIP3    H230969   5.401   3.054  13.525 -1.7914 -1.1399 -0.3149
 3160TIP3   OH230970   4.294   1.238   2.067  0.6721  0.1090 -0.2312
 3160TIP3    H130971   4.282   1.144   2.054  2.5525 -0.5238  1.9270
 3160TIP3    H230972   4.211   1.276   2.040 -1.7207 -2.5808  2.4475
 3161TIP3   OH230973   6.383   1.074  12.770 -0.3471  0.7702  0.2266
 3161TIP3    H130974   6.469   1.092  12.808  0.8439 -1.6968 -1.0397
 3161TIP3    H230975   6.349   1.160  12.745 -0.0263  2.2530  4.1357
 3162TIP3   OH230976   1.906   0.599  15.463 -0.1865  0.4136 -0.3590
 3162TIP3    H130977   1.866   0.665  15.519  0.1270  0.1845  0.1444
 3162TIP3    H230978   1.866   0.517  15.491  1.7442 -0.0647  1.2880
 3163TIP3   OH230979   2.735   1.457   3.532  0.1882  0.7783  0.7715
 3163TIP3    H130980   2.689   1.445   3.450  1.0563  0.3924  0.3248
 3163TIP3    H230981   2.669   1.490   3.593 -0.7438 -0.1039  0.2582
 3164TIP3   OH230982   6.422   2.839  16.536 -0.1427 -0.6739  0.1993
 3164TIP3    H130983   6.441   2.815  16.626  0.1769  1.5197  0.7707
 3164TIP3    H230984   6.326   2.848  16.534 -0.1563 -0.7905  0.2992
 3165TIP3   OH230985   0.321   6.646   0.896  0.1371  0.0232  0.1730
 3165TIP3    H130986   0.231   6.619   0.881  0.6957 -0.2622 -3.3428
 3165TIP3    H230987   0.325   6.737   0.867  1.2887 -0.4346 -1.1945
 3166TIP3   OH230988   0.799   5.442   6.458 -0.0239  0.2980  0.2990
 3166TIP3    H130989   0.717   5.448   6.410 -0.4116  2.1704  1.0928
 3166TIP3    H230990   0.778   5.392   6.537  0.0768 -0.8182 -0.3593
 3167TIP3   OH230991   6.406   4.637  12.024 -0.9895 -0.3907 -0.1123
 3167TIP3    H130992   6.456   4.712  12.057  0.1168 -1.9218  1.8728
 3167TIP3    H230993   6.429   4.633  11.931  2.7210 -1.0119  0.6734
 3168TIP3   OH230994   2.810   3.102   0.345 -0.2785 -0.2865 -0.1936
 3168TIP3    H130995   2.845   3.190   0.357  1.2531 -0.2813 -3.5343
 3168TIP3    H230996   2.720   3.116   0.315 -0.6109  0.0281  0.9097
 3169TIP3   OH230997   4.905   1.812   0.444 -0.0933  0.0473  0.4865
 3169TIP3    H130998   4.981   1.853   0.403 -1.3094  1.5281 -0.3964
 3169TIP3    H230999   4.857   1.774   0.371 -2.1012  2.3926  0.4502
 3170TIP3   OH231000   4.226   6.105   4.999 -0.1020 -0.1211  0.4735
 3170TIP3    H131001   4.149   6.114   5.056  0.0161 -1.0422  0.7930
 3170TIP3    H231002   4.301   6.122   5.056  0.0543 -1.7475  0.7917
 3171TIP3   OH231003   6.441   6.097  12.139  0.1889 -0.4230 -0.0100
 3171TIP3    H131004   6.424   6.173  12.083 -0.3735  0.1856  0.9621
 3171TIP3    H231005   6.496   6.131  12.209  1.3383 -1.2982 -0.4471
 3172TIP3   OH231006   0.445   2.563   5.677  0.3985  0.0155 -0.2945
 3172TIP3    H131007   0.427   2.583   5.585 -1.6194 -1.2422 -0.2182
 3172TIP3    H231008   0.386   2.620   5.726  0.4659 -0.3236  0.1850
 3173TIP3   OH231009   1.536   2.722  13.889  0.2017 -0.0252  0.2583
 3173TIP3    H131010   1.521   2.647  13.946  0.2053 -0.1536  0.0915
 3173TIP3    H231011   1.537   2.797  13.948  0.6938 -0.2063  0.4880
 3174TIP3   OH231012   2.630   2.315  11.104 -0.0025  0.6653  0.1467
 3174TIP3    H131013   2.597   2.248  11.045  0.0801  0.3722  0.4291
 3174TIP3    H231014   2.561   2.381  11.107 -0.5248  0.1161  0.6451
 3175TIP3   OH231015   1.534   2.772  13.621 -0.1512 -0.8339  0.3788
 3175TIP3    H131016   1.535   2.760  13.716  1.3538 -3.3827  0.1227
 3175TIP3    H231017   1.614   2.823  13.603  0.6965 -2.1365  0.3414
 3176TIP3   OH231018   6.243   4.746  15.707 -0.4095 -0.2324  0.1506
 3176TIP3    H131019   6.320   4.765  15.760 -0.4632  0.3246  0.0370
 3176TIP3    H231020   6.211   4.662  15.740 -0.1250 -0.1564  0.6306
 3177TIP3   OH231021   1.045   0.550  11.455  0.5677  0.4888  0.2910
 3177TIP3    H131022   0.999   0.590  11.529  0.3189  1.3457 -0.3097
 3177TIP3    H231023   1.112   0.615  11.430  0.8210  0.0950 -0.0688
 3178TIP3   OH231024   4.031   0.280   4.995  0.2404  0.0654 -0.1836
 3178TIP3    H131025   4.039   0.259   5.088 -0.3876  0.6233  0.0057
 3178TIP3    H231026   4.082   0.213   4.950  0.7681 -0.0556  0.5802
 3179TIP3   OH231027   2.792   1.752  11.550 -0.0865  0.0203  0.2684
 3179TIP3    H131028   2.827   1.781  11.635  1.5291  1.9084 -0.9289
 3179TIP3    H231029   2.697   1.751  11.562  0.1314 -0.6890  2.3508
 3180TIP3   OH231030   1.047   5.418   2.588 -0.5850  0.1400 -0.3637
 3180TIP3    H131031   1.134   5.384   2.568 -0.5502  0.7598 -1.2685
 3180TIP3    H231032   1.010   5.352   2.647  0.8282  0.3174  0.8040
 3181TIP3   OH231033   5.568   4.736  12.379 -0.8054  0.2586  0.1109
 3181TIP3    H131034   5.505   4.663  12.381  0.2995 -0.7068  1.4788
 3181TIP3    H231035   5.645   4.699  12.335 -0.5389  0.8761  0.0572
 3182TIP3   OH231036   6.267   0.474  14.911  0.2536  0.2153 -0.0160
 3182TIP3    H131037   6.315   0.427  14.980 -0.6960  0.2270  0.6694
 3182TIP3    H231038   6.325   0.546  14.886  0.2119  0.8132  1.4871
 3183TIP3   OH231039   4.563   5.793  13.333  0.3075  0.1115  0.2534
 3183TIP3    H131040   4.641   5.787  13.278  0.8783 -1.8710  1.1559
 3183TIP3    H231041   4.491   5.812  13.273  1.3463  1.1449 -0.7003
 3184TIP3   OH231042   2.232   3.813   6.038  0.5947  0.4016 -0.0917
 3184TIP3    H131043   2.218   3.720   6.018 -0.0096  0.2487  0.9302
 3184TIP3    H231044   2.144   3.849   6.046  0.7705  0.5565  1.6296
 3185TIP3   OH231045   6.415   5.036   1.515  0.0089 -0.2881 -0.1670
 3185TIP3    H131046   6.419   5.045   1.420  0.1415  0.4237 -0.1044
 3185TIP3    H231047   6.483   5.096   1.548  1.7187 -2.3747  0.3080
 3186TIP3   OH231048   5.341   3.901  15.940 -0.2051  0.0292 -0.2758
 3186TIP3    H131049   5.361   3.904  16.033 -0.0133 -0.5003 -0.2938
 3186TIP3    H231050   5.261   3.953  15.930 -0.9948 -1.0128  0.3976
 3187TIP3   OH231051   4.069   4.863   2.662 -0.2105  0.3143 -0.4475
 3187TIP3    H131052   4.103   4.793   2.719  0.3728  0.8600 -0.1073
 3187TIP3    H231053   4.137   4.930   2.665 -0.5707  0.7117 -1.1209
 3188TIP3   OH231054   2.954   1.492  13.095 -0.2308  0.1401  0.4208
 3188TIP3    H131055   3.006   1.568  13.070 -1.3374  0.8282  0.1575
 3188TIP3    H231056   2.958   1.434  13.018 -1.0891  0.8785 -0.2075
 3189TIP3   OH231057   0.936   2.897   1.044 -0.4089  0.0934 -0.4287
 3189TIP3    H131058   0.946   2.805   1.069  0.5032  0.1948 -0.3744
 3189TIP3    H231059   0.979   2.903   0.958 -2.2152  0.0623 -1.3962
 3190TIP3   OH231060   6.783   0.743   1.913  0.0734 -0.3133  0.1273
 3190TIP3    H131061   6.736   0.809   1.863 -0.0500  0.2129  0.9242
 3190TIP3    H231062   6.811   0.788   1.993  2.4297 -0.4338 -0.5272
 3191TIP3   OH231063   4.431   2.208  13.904  0.0886 -0.4390  0.2025
 3191TIP3    H131064   4.448   2.179  13.994  2.6621  0.7504  0.1929
 3191TIP3    H231065   4.395   2.131  13.860 -1.5309 -0.9652  2.2929
 3192TIP3   OH231066   4.001   5.884   0.309 -0.3180 -0.2861 -0.2497
 3192TIP3    H131067   3.927   5.903   0.366 -0.6535 -1.1165 -0.3961
 3192TIP3    H231068   3.992   5.946   0.237 -0.2794  0.3065  0.2509
 3193TIP3   OH231069   1.740   4.687   2.827 -0.0183  0.1506 -0.0220
 3193TIP3    H131070   1.697   4.708   2.744  0.0780  1.1820  0.1702
 3193TIP3    H231071   1.720   4.762   2.883 -0.5165 -0.7830  1.0627
 3194TIP3   OH231072   6.468   5.308   3.076  0.0247  0.5497  0.1592
 3194TIP3    H131073   6.546   5.333   3.028  0.1831  0.9672  0.6209
 3194TIP3    H231074   6.443   5.387   3.124 -1.5663  0.8702 -1.1500
 3195TIP3   OH231075   3.340   5.792   0.888 -0.1352 -0.5494 -0.1233
 3195TIP3    H131076   3.390   5.728   0.837 -1.1336 -1.1849 -0.3290
 3195TIP3    H231077   3.328   5.866   0.829 -1.6496 -1.4525 -1.0077
 3196TIP3   OH231078   0.566   4.147   2.183 -0.2119  0.0361 -0.0531
 3196TIP3    H131079   0.582   4.201   2.260 -0.3749 -0.0891  0.0682
 3196TIP3    H231080   0.507   4.078   2.213  0.1952 -0.3579 -0.1455
 3197TIP3   OH231081   4.459   0.574  14.338 -0.2788  0.2218  0.3334
 3197TIP3    H131082   4.551   0.554  14.352  0.2373  2.2654  0.2017
 3197TIP3    H231083   4.427   0.601  14.425 -0.2781  1.1508  0.0599
 3198TIP3   OH231084   1.860   5.961  14.938  0.2379  0.0169  0.0887
 3198TIP3    H131085   1.870   5.867  14.957  0.5676  0.0972  0.3246
 3198TIP3    H231086   1.942   6.000  14.968 -0.4190  0.5785  1.2302
 3199TIP3   OH231087   6.003   6.577   6.639  0.5777  0.2238 -0.1623
 3199TIP3    H131088   5.964   6.618   6.562  1.5894  1.5708 -0.0028
 3199TIP3    H231089   6.064   6.512   6.604  1.0898  0.8841 -0.5147
 3200TIP3   OH231090   3.096   0.955  14.816  0.0498 -0.6030  0.3830
 3200TIP3    H131091   3.060   1.036  14.852  0.2841  0.4229 -1.5389
 3200TIP3    H231092   3.189   0.974  14.804  0.0386 -0.9974 -0.4278
 3201TIP3   OH231093   4.983   5.942   4.892  0.5529  0.4089  0.7611
 3201TIP3    H131094   5.023   5.895   4.965 -0.3305  1.7280  2.1543
 3201TIP3    H231095   4.976   6.032   4.923  0.6338  1.1218 -1.1744
 3202TIP3   OH231096   3.877   0.777  14.927 -0.6657  0.7610 -0.3831
 3202TIP3    H131097   3.860   0.833  15.003 -2.4995  0.8641 -0.8204
 3202TIP3    H231098   3.858   0.689  14.958  2.0860  0.3050  0.2627
 3203TIP3   OH231099   2.120   3.571   4.130 -0.1222  0.4483  0.3550
 3203TIP3    H131100   2.122   3.485   4.087  2.1003  0.6762 -0.1096
 3203TIP3    H231101   2.115   3.634   4.058  1.3470  0.7655  0.4946
 3204TIP3   OH231102   3.631   0.114  11.357 -0.4199  0.1238 -0.0351
 3204TIP3    H131103   3.646   0.208  11.355 -1.3550  0.2780 -0.8912
 3204TIP3    H231104   3.568   0.101  11.428 -0.1716  0.1218  0.1855
 3205TIP3   OH231105   3.170   0.717   1.164 -0.2781  0.2677 -0.2052
 3205TIP3    H131106   3.212   0.802   1.180  0.0972  0.2380 -0.9521
 3205TIP3    H231107   3.113   0.732   1.088 -0.2212 -0.1384 -0.3328
 3206TIP3   OH231108   1.605   0.749  15.377 -0.9304 -0.1003 -0.2485
 3206TIP3    H131109   1.669   0.678  15.383 -0.5685  0.2183 -0.2535
 3206TIP3    H231110   1.537   0.725  15.439 -0.9789 -0.6191 -0.4999
 3207TIP3   OH231111   0.556   4.842  16.243 -0.4989 -0.0803 -0.1617
 3207TIP3    H131112   0.479   4.804  16.202 -1.5357  1.0617  0.6463
 3207TIP3    H231113   0.629   4.789  16.212 -1.8125 -2.5868  0.7570
 3208TIP3   OH231114   5.756   4.405  12.801  0.2539 -0.5700  0.1495
 3208TIP3    H131115   5.767   4.419  12.707  0.6729 -0.7958  0.1593
 3208TIP3    H231116   5.669   4.367  12.810  0.7067 -1.7588 -0.2861
 3209TIP3   OH231117   3.505   1.967  14.575 -0.3458 -0.1545  0.0603
 3209TIP3    H131118   3.468   2.048  14.539 -2.6116 -2.3207 -3.0633
 3209TIP3    H231119   3.522   1.913  14.498  1.1717 -2.6419  2.0073
 3210TIP3   OH231120   6.080   1.921   3.019  0.5136 -0.0516  0.4304
 3210TIP3    H131121   6.160   1.878   2.988  0.4397 -0.1923  0.4311
 3210TIP3    H231122   6.061   1.987   2.952  0.4877 -0.1921  0.2975
 3211TIP3   OH231123   5.476   2.567  11.802 -0.0056 -0.4985  0.2537
 3211TIP3    H131124   5.487   2.511  11.879  0.3269 -1.8861 -0.7566
 3211TIP3    H231125   5.538   2.639  11.816  2.5707 -2.4558 -0.1849
 3212TIP3   OH231126   1.929   1.608  15.435 -0.5187 -1.4053  0.7822
 3212TIP3    H131127   1.857   1.602  15.498 -0.8140 -1.5535  0.4347
 3212TIP3    H231128   2.007   1.589  15.486 -0.6942 -0.9608  1.2283
 3213TIP3   OH231129   3.117   0.547  16.739 -0.7125 -0.3683 -0.7616
 3213TIP3    H131130   3.089   0.625  16.692 -1.5251 -0.4532 -0.4278
 3213TIP3    H231131   3.203   0.526  16.702 -0.6261  0.4986 -1.0681
 3214TIP3   OH231132   3.031   4.704  17.062  0.5208 -0.2106 -0.1088
 3214TIP3    H131133   3.012   4.700  17.155  0.7985 -0.8172 -0.0719
 3214TIP3    H231134   3.126   4.711  17.056  0.4866  0.0711 -0.3427
 3215TIP3   OH231135   5.441   3.821   1.685  0.3482  0.7840 -0.4220
 3215TIP3    H131136   5.443   3.731   1.715 -0.6147  0.4400 -1.3290
 3215TIP3    H231137   5.503   3.824   1.612 -0.3162  0.6119 -1.0028
 3216TIP3   OH231138   3.122   2.175  14.874  0.0847 -0.3720 -0.7651
 3216TIP3    H131139   3.124   2.157  14.968  0.7770  2.9424 -0.0406
 3216TIP3    H231140   3.029   2.189  14.855 -0.1025 -1.4279 -0.7067
 3217TIP3   OH231141   3.323   2.136   1.990  0.2973 -0.5909 -0.3721
 3217TIP3    H131142   3.317   2.165   1.899 -1.4170  0.2655 -0.0258
 3217TIP3    H231143   3.388   2.194   2.029  1.2097 -1.1073 -1.0753
 3218TIP3   OH231144   2.692   0.757   2.852  0.0373  0.1945 -0.1979
 3218TIP3    H131145   2.634   0.787   2.782  0.3784 -1.8243 -1.4409
 3218TIP3    H231146   2.730   0.837   2.888  0.0204  1.3244 -2.4929
 3219TIP3   OH231147   6.604   0.586  17.150  0.0064  0.0185  0.9619
 3219TIP3    H131148   6.584   0.497  17.177  0.9359 -0.3943  0.3605
 3219TIP3    H231149   6.688   0.606  17.192  0.5445  0.0388 -0.0767
 3220TIP3   OH231150   1.450   6.331   3.950  0.3938  0.2637  0.4621
 3220TIP3    H131151   1.536   6.290   3.958  1.0775  1.8281  1.7174
 3220TIP3    H231152   1.406   6.310   4.032  0.2841  0.9694  0.5886
 3221TIP3   OH231153   3.941   3.337  12.751  0.0963  0.7801  0.6846
 3221TIP3    H131154   4.024   3.383  12.740  0.3209  0.0844 -0.7485
 3221TIP3    H231155   3.928   3.334  12.846  1.4537  1.3259  0.9133
 3222TIP3   OH231156   2.012   1.548  15.113  0.8803  0.5214 -0.3685
 3222TIP3    H131157   1.921   1.562  15.088  0.7148 -0.5034 -0.3788
 3222TIP3    H231158   2.017   1.581  15.203  0.5362  0.7059 -0.4149
 3223TIP3   OH231159   1.576   3.935   1.876 -1.0234  0.5099  0.2826
 3223TIP3    H131160   1.485   3.958   1.859 -0.1396  2.9681 -1.7808
 3223TIP3    H231161   1.608   4.004   1.935 -0.4932 -0.3800  1.0644
 3224TIP3   OH231162   2.397   6.361   5.181 -0.6889  0.2611  0.4611
 3224TIP3    H131163   2.418   6.397   5.095 -0.9146  0.4411  0.4787
 3224TIP3    H231164   2.458   6.289   5.193 -0.5890  0.3008  0.1933
 3225TIP3   OH231165   4.793   5.479  16.628  0.1114 -0.7617 -0.4615
 3225TIP3    H131166   4.703   5.499  16.653  0.4278  0.2114 -0.0632
 3225TIP3    H231167   4.798   5.501  16.535  0.4248  1.0476 -0.0632
 3226TIP3   OH231168   3.265   6.436  14.906  0.3172 -0.3533 -0.1221
 3226TIP3    H131169   3.209   6.369  14.865  1.2330 -0.5179 -1.1473
 3226TIP3    H231170   3.315   6.473  14.833  1.1639  0.1515  0.6970
 3227TIP3   OH231171   4.175   3.419  14.262  0.1886  0.1059  0.1524
 3227TIP3    H131172   4.090   3.462  14.265  0.5486  0.7938  2.4302
 3227TIP3    H231173   4.201   3.422  14.170 -1.5586  1.2317 -0.3363
 3228TIP3   OH231174   1.104   5.743   5.381 -0.6220  0.5363  0.0633
 3228TIP3    H131175   1.184   5.785   5.351 -0.3055  0.2362  0.4729
 3228TIP3    H231176   1.134   5.666   5.430 -1.1637  0.3178  0.0581
 3229TIP3   OH231177   2.423   1.423  10.674  0.3809  0.1286 -0.2628
 3229TIP3    H131178   2.359   1.368  10.719 -1.0985  2.1389  0.2517
 3229TIP3    H231179   2.405   1.410  10.581  0.4267 -0.6497 -0.1664
 3230TIP3   OH231180   3.955   5.739   2.050  0.1987  0.0580  0.3817
 3230TIP3    H131181   3.970   5.689   2.131  1.2714 -1.6683 -0.8104
 3230TIP3    H231182   3.990   5.826   2.068  0.4198 -0.2987  1.7752
 3231TIP3   OH231183   0.776   3.519  16.446  0.0248  0.3174  0.4452
 3231TIP3    H131184   0.717   3.570  16.502  0.6886  0.0372  1.4350
 3231TIP3    H231185   0.719   3.478  16.381 -1.1190 -1.1425  2.2530
 3232TIP3   OH231186   4.871   3.998   1.927 -0.2592  0.0279  0.4726
 3232TIP3    H131187   4.894   3.942   2.002  0.0647 -0.5168 -0.0294
 3232TIP3    H231188   4.949   4.050   1.911  1.0332 -2.4132 -1.7646
 3233TIP3   OH231189   0.160   6.768   3.423  0.4777 -0.5531  0.7249
 3233TIP3    H131190   0.098   6.839   3.405  0.0466 -1.3414 -1.2473
 3233TIP3    H231191   0.241   6.796   3.381  1.4300  0.3387  3.0447
 3234TIP3   OH231192   0.485   0.901   4.676 -0.2322 -0.0966 -0.1192
 3234TIP3    H131193   0.558   0.864   4.626  0.7185  0.4184  0.8389
 3234TIP3    H231194   0.435   0.826   4.706 -1.8065 -0.4120 -3.1554
 3235TIP3   OH231195   1.708   3.257  17.113  0.0480  0.0421  0.0309
 3235TIP3    H131196   1.614   3.243  17.107 -0.1327  1.0670  0.3616
 3235TIP3    H231197   1.723   3.287  17.203  0.5199  1.0307 -0.3555
 3236TIP3   OH231198   0.369   4.512   4.574 -0.4766 -0.6882  0.2443
 3236TIP3    H131199   0.280   4.549   4.571 -0.0759  0.2316 -1.6237
 3236TIP3    H231200   0.421   4.571   4.521  0.6172 -2.8971 -1.2882
 3237TIP3   OH231201   3.878   6.173  16.418  0.5738  0.7746 -0.4591
 3237TIP3    H131202   3.868   6.266  16.399 -2.9280  0.5197 -0.3842
 3237TIP3    H231203   3.858   6.129  16.335  0.0129  0.0493  0.0504
 3238TIP3   OH231204   1.592   1.540  13.968 -0.3831 -0.0704 -0.0367
 3238TIP3    H131205   1.626   1.583  13.889  2.1022 -2.3514 -0.3813
 3238TIP3    H231206   1.645   1.575  14.039 -1.1215  0.3489  0.3234
 3239TIP3   OH231207   5.715   3.077   0.036 -0.0505 -0.4904 -0.2840
 3239TIP3    H131208   5.687   3.160  -0.001  0.2167  0.0245  0.6341
 3239TIP3    H231209   5.786   3.048  -0.022  0.4947  0.3929 -0.0722
 3240TIP3   OH231210   1.113   6.198   2.818  0.3294  0.2328  0.1001
 3240TIP3    H131211   1.120   6.268   2.883  1.7063 -0.7796  1.1069
 3240TIP3    H231212   1.096   6.120   2.869  0.1208 -0.3869 -0.8901
 3241TIP3   OH231213   1.788   1.373   2.095  0.0095  0.2484  0.0625
 3241TIP3    H131214   1.868   1.364   2.044 -0.0377 -0.0429  0.0386
 3241TIP3    H231215   1.760   1.463   2.080  0.2349  0.2973 -0.0715
 3242TIP3   OH231216   4.122   4.882  12.638 -0.3588 -0.2741 -0.2432
 3242TIP3    H131217   4.145   4.932  12.560 -2.0755  0.4391 -0.3573
 3242TIP3    H231218   4.205   4.864  12.681  0.5023  0.5791 -1.4815
 3243TIP3   OH231219   1.127   3.682   3.530  0.5138 -0.5585  0.1186
 3243TIP3    H131220   1.131   3.669   3.435  1.5604 -0.4539  0.1406
 3243TIP3    H231221   1.207   3.730   3.551  0.6496 -1.2102  1.1529
 3244TIP3   OH231222   0.170   1.022  16.757  0.5947  0.0645  0.6398
 3244TIP3    H131223   0.109   1.078  16.708  1.4820 -1.6735 -2.7821
 3244TIP3    H231224   0.113   0.963  16.807 -0.6128 -0.8388 -1.6596
 3245TIP3   OH231225   0.589   4.723   3.823  0.3611  0.6393  0.2315
 3245TIP3    H131226   0.585   4.758   3.912  1.0406  3.2422 -0.6696
 3245TIP3    H231227   0.499   4.695   3.805  0.4991 -1.3025  2.1744
 3246TIP3   OH231228   5.822   6.454   4.098 -0.0192 -0.0096 -0.2375
 3246TIP3    H131229   5.917   6.464   4.094  0.0281 -0.5776 -0.7397
 3246TIP3    H231230   5.791   6.493   4.016 -0.1914 -0.1080 -0.2189
 3247TIP3   OH231231   4.049   5.169   0.580  0.2319 -0.2709 -0.5084
 3247TIP3    H131232   4.029   5.253   0.540  0.8231 -0.1483 -0.5548
 3247TIP3    H231233   4.121   5.133   0.528  1.0269 -0.0982  0.4348
 3248TIP3   OH231234   4.566   2.015  13.616  0.6323 -0.3470  0.1119
 3248TIP3    H131235   4.617   1.938  13.593  0.5733 -0.5492  0.6488
 3248TIP3    H231236   4.631   2.079  13.645  0.6431 -0.3443  0.0824
 3249TIP3   OH231237   4.623   2.085   3.947 -0.6754  0.3434  0.2967
 3249TIP3    H131238   4.710   2.061   3.918  0.3130  1.4514  2.1488
 3249TIP3    H231239   4.592   2.148   3.882 -1.5580 -2.4637 -2.2275
 3250TIP3   OH231240   3.684   4.632  13.912 -0.3457  0.8698  0.0563
 3250TIP3    H131241   3.738   4.658  13.987 -0.5889 -0.9062  0.8895
 3250TIP3    H231242   3.683   4.710  13.856  1.4759  1.5932  0.9300
 3251TIP3   OH231243   3.258   1.657  10.848 -0.1696  0.3179  0.3761
 3251TIP3    H131244   3.257   1.686  10.940 -0.9290 -0.5658  0.6601
 3251TIP3    H231245   3.168   1.629  10.831 -0.3591  1.6683 -1.0430
 3252TIP3   OH231246   0.002   0.518  15.606  0.4098 -0.0953  0.4718
 3252TIP3    H131247  -0.025   0.503  15.515  0.6255 -0.0913  0.4063
 3252TIP3    H231248  -0.057   0.464  15.658  0.6936 -0.5928  0.2869
 3253TIP3   OH231249   2.738   5.620   1.375  0.3256  0.0786  0.1459
 3253TIP3    H131250   2.826   5.657   1.374  0.7609 -0.9439 -0.2897
 3253TIP3    H231251   2.707   5.634   1.465  1.6948 -1.3037  0.8741
 3254TIP3   OH231252   1.886   0.942   3.981 -0.0232 -0.1612 -0.3408
 3254TIP3    H131253   1.913   0.852   3.962 -1.1374 -1.0231  1.7769
 3254TIP3    H231254   1.806   0.955   3.930 -0.4161 -0.7603  0.1112
 3255TIP3   OH231255   0.218   2.160  13.394  0.9835 -0.0721 -0.1435
 3255TIP3    H131256   0.204   2.135  13.485 -1.0166 -0.4207 -0.5181
 3255TIP3    H231257   0.281   2.232  13.399  1.4135 -0.5235  1.4479
 3256TIP3   OH231258   6.374   3.022  14.463  0.3711  0.0399 -0.0220
 3256TIP3    H131259   6.354   3.075  14.385 -1.0369  0.3261  0.5047
 3256TIP3    H231260   6.428   3.080  14.518 -1.0864  0.9530  0.5108
 3257TIP3   OH231261   2.603   4.662  16.423  0.1836 -0.4669  0.2626
 3257TIP3    H131262   2.655   4.659  16.503  1.5031  1.5725 -0.4228
 3257TIP3    H231263   2.667   4.649  16.353 -0.4723  0.5139 -0.5536
 3258TIP3   OH231264   3.197   4.522   1.804 -0.1646 -0.1790  0.2777
 3258TIP3    H131265   3.124   4.548   1.748 -1.2404  1.5026  2.2988
 3258TIP3    H231266   3.261   4.483   1.744 -2.4522 -1.1960 -1.6334
 3259TIP3   OH231267   0.976   2.879  10.694 -0.0581 -0.2812 -0.0338
 3259TIP3    H131268   1.026   2.901  10.615  1.0938 -1.7776  0.2224
 3259TIP3    H231269   1.024   2.805  10.732 -0.4975  0.5080  2.1628
 3260TIP3   OH231270   5.752   1.533  14.186  0.6472  0.4431  0.1788
 3260TIP3    H131271   5.739   1.533  14.091  1.4430 -0.4998  0.0501
 3260TIP3    H231272   5.692   1.600  14.219  1.7610  2.2193 -1.1732
 3261TIP3   OH231273   0.690   2.122  10.913 -0.4729  0.5212  0.7364
 3261TIP3    H131274   0.710   2.072  10.834 -0.6622 -0.5776  1.3576
 3261TIP3    H231275   0.748   2.198  10.908  0.3551 -0.1230  0.1061
 3262TIP3   OH231276   1.497   2.194  15.911 -0.3673  0.9345 -0.1023
 3262TIP3    H131277   1.513   2.146  15.992  0.1252 -1.1975 -1.3834
 3262TIP3    H231278   1.467   2.127  15.849  0.9592  2.1610 -2.1708
 3263TIP3   OH231279   5.111   1.246   3.507  0.1357 -0.4933  0.1344
 3263TIP3    H131280   5.147   1.228   3.594 -1.8745  1.0001  1.3506
 3263TIP3    H231281   5.121   1.340   3.496 -0.9790 -0.4484 -0.5959
 3264TIP3   OH231282   0.375   0.404  16.479 -0.1546 -0.5225  0.4379
 3264TIP3    H131283   0.394   0.310  16.473  0.4208 -0.4306  0.7635
 3264TIP3    H231284   0.411   0.431  16.563  1.8157  0.4567 -0.6297
 3265TIP3   OH231285   6.086   3.876  14.756  0.2789  0.2777 -0.2036
 3265TIP3    H131286   6.083   3.785  14.726  0.9018 -0.0582  0.6858
 3265TIP3    H231287   6.007   3.916  14.722  0.6306 -0.2496 -1.7103
 3266TIP3   OH231288   4.747   6.643   0.195  0.3412 -0.1313 -0.3940
 3266TIP3    H131289   4.662   6.602   0.187 -0.6901  1.8233 -0.0539
 3266TIP3    H231290   4.764   6.648   0.289 -0.2881  1.5513 -0.3332
 3267TIP3   OH231291   2.536   4.707   5.275 -0.3532 -0.2348  0.4574
 3267TIP3    H131292   2.504   4.721   5.365  0.6851  0.6119  0.7295
 3267TIP3    H231293   2.578   4.621   5.277 -1.2426 -0.6774  0.4966
 3268TIP3   OH231294   6.782   2.462   2.937 -0.2272 -0.7493 -0.3765
 3268TIP3    H131295   6.766   2.556   2.942  1.3492 -0.4981  0.7409
 3268TIP3    H231296   6.760   2.429   3.024  0.9991 -1.0720 -0.1606
 3269TIP3   OH231297   1.589   4.387  15.274 -0.1645  0.2947 -0.7367
 3269TIP3    H131298   1.624   4.298  15.282  0.1513  0.4696 -0.1172
 3269TIP3    H231299   1.661   4.438  15.237 -0.6495  0.1148 -2.0085
 3270TIP3   OH231300   0.541   6.657  17.181  0.7100  0.4343  0.2174
 3270TIP3    H131301   0.575   6.744  17.162  1.2168  0.3086  0.5444
 3270TIP3    H231302   0.480   6.639  17.109 -1.1388  1.9809  1.3062
 3271TIP3   OH231303   0.840   3.345  12.860  0.0644  0.0156  1.0065
 3271TIP3    H131304   0.838   3.378  12.770  1.0060 -0.0841  0.9372
 3271TIP3    H231305   0.795   3.412  12.911 -1.7333 -0.5787  0.2764
 3272TIP3   OH231306   3.613   5.454   1.714  0.1438  0.3641 -0.7618
 3272TIP3    H131307   3.552   5.509   1.763  0.7114  1.6435 -1.4564
 3272TIP3    H231308   3.695   5.502   1.715  1.3850 -1.6341  0.7313
 3273TIP3   OH231309   4.566   6.396  12.116 -0.4083 -0.0849 -0.7284
 3273TIP3    H131310   4.571   6.491  12.118 -1.8898  0.0307  1.7342
 3273TIP3    H231311   4.481   6.376  12.077 -0.0394 -0.4210 -1.3793
 3274TIP3   OH231312   0.332   1.838   4.674  0.5443 -0.5156  0.2492
 3274TIP3    H131313   0.312   1.931   4.675  0.5529 -0.4826 -0.9326
 3274TIP3    H231314   0.269   1.799   4.735  1.3137  0.3823  1.6628
 3275TIP3   OH231315   2.436   2.584  11.869  0.0298  0.3359  0.4796
 3275TIP3    H131316   2.529   2.581  11.848  0.0578  1.6145  0.3068
 3275TIP3    H231317   2.395   2.614  11.787 -0.4483  0.4256  0.7501
 3276TIP3   OH231318   5.693   3.618  13.921  0.2561 -0.8200  0.3320
 3276TIP3    H131319   5.617   3.668  13.891  1.6803  1.1744 -0.0839
 3276TIP3    H231320   5.752   3.616  13.847  1.5679 -0.4074  1.3264
 3277TIP3   OH231321   5.648   3.626  11.879  0.1982 -0.0012 -0.1329
 3277TIP3    H131322   5.625   3.692  11.814  0.5987  0.0087 -0.2696
 3277TIP3    H231323   5.706   3.565  11.832 -1.7494 -1.5914 -0.5912
 3278TIP3   OH231324   4.434   4.237   2.918  0.0629 -0.6115  0.1908
 3278TIP3    H131325   4.400   4.172   2.979 -0.3727  0.6293  1.3206
 3278TIP3    H231326   4.419   4.321   2.961  0.9011  0.2341 -1.0780
 3279TIP3   OH231327   1.843   1.986   2.024  0.2645  0.4442  0.1736
 3279TIP3    H131328   1.812   2.039   2.098  0.6388  0.1952  0.5115
 3279TIP3    H231329   1.764   1.967   1.974  0.1058  1.2232  0.1099
 3280TIP3   OH231330   6.188   2.001  12.492  0.3327  0.5818  0.2129
 3280TIP3    H131331   6.139   2.028  12.415  0.9404 -0.6493 -0.6333
 3280TIP3    H231332   6.274   1.975  12.458  0.1298 -1.4148  1.0596
 3281TIP3   OH231333   2.893   6.331   0.298  0.2045 -0.4242 -0.1287
 3281TIP3    H131334   2.807   6.351   0.261  0.6853  2.4419  0.0147
 3281TIP3    H231335   2.945   6.303   0.224 -0.6845 -1.6469 -0.3157
 3282TIP3   OH231336   4.825   0.810  11.459  0.1594  0.0489  0.1041
 3282TIP3    H131337   4.752   0.868  11.485  0.4409 -0.2546  1.6577
 3282TIP3    H231338   4.788   0.755  11.390 -0.6109  0.9434 -0.2251
 3283TIP3   OH231339   0.725   2.096  14.686 -0.2836 -0.1554 -0.1843
 3283TIP3    H131340   0.678   2.023  14.725 -1.2980  1.0274  0.9069
 3283TIP3    H231341   0.657   2.149  14.645  0.2277  0.8912  0.2679
 3284TIP3   OH231342   4.850   1.861  15.657  0.5450  0.1105  0.3657
 3284TIP3    H131343   4.926   1.900  15.614  0.3125  1.2281  0.9451
 3284TIP3    H231344   4.810   1.932  15.707 -1.6106 -0.1118 -0.8864
 3285TIP3   OH231345   2.699   1.914  16.573 -0.1131 -0.1771  0.4403
 3285TIP3    H131346   2.793   1.900  16.557 -0.5355 -3.1326  0.1511
 3285TIP3    H231347   2.684   1.880  16.661 -0.9739  0.1091  0.4163
 3286TIP3   OH231348   6.103   0.780   4.033  0.0362  0.0013  0.7389
 3286TIP3    H131349   6.097   0.804   4.126 -0.2405  0.0292  0.7165
 3286TIP3    H231350   6.158   0.702   4.032  1.7709  1.1861  0.7120
 3287TIP3   OH231351   5.987   1.907  14.116  0.7928  0.0890  0.6451
 3287TIP3    H131352   5.894   1.927  14.108  1.2168  1.6728 -1.1268
 3287TIP3    H231353   5.991   1.811  14.116 -0.8910 -0.0469  2.3736
 3288TIP3   OH231354   0.358   5.073   3.478 -0.3308  0.0059 -0.0246
 3288TIP3    H131355   0.422   5.133   3.516  1.3206 -2.2404  0.9963
 3288TIP3    H231356   0.336   5.112   3.393 -0.3615  2.6551  1.1122
 3289TIP3   OH231357   5.781   2.107  14.565  0.0013 -0.0161  0.7810
 3289TIP3    H131358   5.738   2.159  14.496 -1.4563  0.8498  2.2769
 3289TIP3    H231359   5.874   2.133  14.559  0.4268 -1.7272 -2.3385
 3290TIP3   OH231360   1.260   6.259   0.032 -0.1622 -0.2680 -0.1263
 3290TIP3    H131361   1.289   6.174   0.063  1.3199  0.5968  0.9934
 3290TIP3    H231362   1.170   6.245   0.003 -0.6140 -1.8017  1.8205
 3291TIP3   OH231363   1.453   1.560   1.114  0.1781  0.5124 -0.0268
 3291TIP3    H131364   1.398   1.496   1.068  0.2256 -0.0222  0.6523
 3291TIP3    H231365   1.391   1.611   1.166  0.0981  1.2642 -0.8281
 3292TIP3   OH231366   2.153   2.141  14.841 -0.2087 -0.3571  0.3902
 3292TIP3    H131367   2.195   2.136  14.927  0.6460 -1.7041 -0.0678
 3292TIP3    H231368   2.059   2.139  14.860 -0.0317 -0.6503  1.2948
 3293TIP3   OH231369   0.025   3.226  15.398 -0.0567  0.4917  0.3321
 3293TIP3    H131370   0.118   3.251  15.405 -0.0173  0.4318  0.0107
 3293TIP3    H231371   0.007   3.227  15.305  0.5552 -2.8066  0.0391
 3294TIP3   OH231372   6.398   1.080  13.600  0.3006 -0.1476 -0.2070
 3294TIP3    H131373   6.323   1.140  13.600  0.9989  0.7558  0.3026
 3294TIP3    H231374   6.445   1.102  13.520 -0.6323 -1.6089 -1.2128
 3295TIP3   OH231375   4.555   6.562  15.417 -0.0380  0.3832 -0.6465
 3295TIP3    H131376   4.522   6.615  15.344 -0.1761  2.0200  0.5451
 3295TIP3    H231377   4.633   6.520  15.382 -0.7299  0.2218 -2.0704
 3296TIP3   OH231378   5.171   0.849   2.239 -0.1745 -0.3727 -0.8337
 3296TIP3    H131379   5.153   0.842   2.333  0.5108 -0.5864 -0.7114
 3296TIP3    H231380   5.084   0.853   2.198 -0.4910  1.3572 -0.0913
 3297TIP3   OH231381   4.309   3.872  14.591 -0.4326  0.3246 -0.2987
 3297TIP3    H131382   4.345   3.882  14.679 -0.3450  0.6859 -0.3727
 3297TIP3    H231383   4.275   3.783  14.589  0.1371  0.1011 -0.1140
 3298TIP3   OH231384   5.430   3.585   0.138  0.1735 -0.3406 -0.2328
 3298TIP3    H131385   5.498   3.642   0.173  1.3215 -1.5910 -0.3301
 3298TIP3    H231386   5.448   3.580   0.044 -1.0311  0.5543 -0.5454
 3299TIP3   OH231387   3.373   1.902   4.818  0.2483  0.0590 -0.1052
 3299TIP3    H131388   3.442   1.837   4.806  0.0629 -0.0039 -0.8761
 3299TIP3    H231389   3.303   1.854   4.863 -0.7471 -0.9102 -2.4967
 3300TIP3   OH231390   1.394   5.775   4.632  0.1626 -1.1462  0.4743
 3300TIP3    H131391   1.363   5.865   4.631  1.2186 -0.7674  0.2483
 3300TIP3    H231392   1.339   5.729   4.569 -0.8221 -0.8280  1.0787
 3301TIP3   OH231393   2.678   4.610  13.577 -0.0348  0.3598 -0.0538
 3301TIP3    H131394   2.656   4.697  13.543  1.1871  0.3881 -0.8389
 3301TIP3    H231395   2.764   4.621  13.618 -0.5056 -0.1777  1.1197
 3302TIP3   OH231396   0.338   6.477   3.202  0.9408  0.0622  0.0983
 3302TIP3    H131397   0.300   6.517   3.280 -0.5150 -1.4791  0.2211
 3302TIP3    H231398   0.369   6.391   3.231  2.1434  0.2184 -0.6200
 3303TIP3   OH231399   2.234   2.220  15.413  0.0765 -0.1620 -0.1471
 3303TIP3    H131400   2.264   2.279  15.344 -1.0423 -0.3955 -0.8548
 3303TIP3    H231401   2.302   2.154  15.420  1.1334  0.9447  0.3410
 3304TIP3   OH231402   1.759   0.704  11.273  0.3930  0.1045 -0.3598
 3304TIP3    H131403   1.728   0.617  11.250  0.0177 -1.4035  4.6522
 3304TIP3    H231404   1.684   0.747  11.313  1.3890  1.4841  0.1073
 3305TIP3   OH231405   1.802   2.319   4.505  0.1562  0.0803  0.5709
 3305TIP3    H131406   1.889   2.346   4.532  0.6288 -0.4160 -0.3800
 3305TIP3    H231407   1.778   2.248   4.564  0.8780 -0.5288  0.1450
 3306TIP3   OH231408   3.578   6.125  13.566 -0.4850 -0.2932 -0.2602
 3306TIP3    H131409   3.618   6.210  13.548 -0.2366 -0.1925  0.6784
 3306TIP3    H231410   3.647   6.062  13.546  0.3731 -0.0954  1.8188
 3307TIP3   OH231411   3.740   1.139  15.439  0.0551 -0.0757 -0.2118
 3307TIP3    H131412   3.756   1.069  15.375  0.6825  0.3729 -0.5549
 3307TIP3    H231413   3.709   1.212  15.387 -0.2543  0.0197  0.1058
 3308TIP3   OH231414   2.802   3.763   3.316 -0.1352  0.1798 -0.2941
 3308TIP3    H131415   2.758   3.786   3.398 -0.2395 -0.7059 -0.0988
 3308TIP3    H231416   2.770   3.676   3.295  0.1409  0.2665 -1.1155
 3309TIP3   OH231417   4.151   3.730   5.607 -0.1153  0.4018  0.1246
 3309TIP3    H131418   4.125   3.639   5.587  2.6104 -0.5599  0.5844
 3309TIP3    H231419   4.129   3.779   5.528 -1.2179 -0.7431 -0.3131
 3310TIP3   OH231420   2.822   1.129  13.570 -0.0876  0.0595  0.2152
 3310TIP3    H131421   2.769   1.110  13.493 -1.1343  0.3281  0.8400
 3310TIP3    H231422   2.905   1.163  13.535 -0.0409 -1.0340 -0.7922
 3311TIP3   OH231423   3.752   2.942  16.504  0.3931 -0.6828  0.2929
 3311TIP3    H131424   3.783   2.858  16.470  1.1678 -0.6140  0.8281
 3311TIP3    H231425   3.659   2.927  16.522  0.2836 -1.1200 -0.5685
 3312TIP3   OH231426   2.334   5.477   1.094 -0.1890  0.1353 -0.4533
 3312TIP3    H131427   2.252   5.435   1.120  0.0609 -0.6841 -0.9500
 3312TIP3    H231428   2.374   5.505   1.177  0.3326 -1.9349  0.0493
 3313TIP3   OH231429   4.786   4.819  13.475 -0.2399  0.2572 -0.4390
 3313TIP3    H131430   4.816   4.780  13.557 -1.3384 -0.6770 -0.4551
 3313TIP3    H231431   4.837   4.774  13.407 -0.5993 -0.2760 -0.3687
 3314TIP3   OH231432   0.470   2.417  12.174 -0.1025 -0.4749  0.2499
 3314TIP3    H131433   0.463   2.509  12.197 -1.0025 -0.8202  1.4397
 3314TIP3    H231434   0.537   2.382  12.233  0.4859 -0.5165 -0.4326
 3315TIP3   OH231435   2.115   6.066   3.674 -0.4749 -0.0694  0.2367
 3315TIP3    H131436   2.180   6.096   3.610 -0.1575 -0.3346  0.4318
 3315TIP3    H231437   2.035   6.112   3.650 -0.2907  0.0338 -0.1918
 3316TIP3   OH231438   5.153   3.448   1.585 -0.3563  0.3414 -0.0955
 3316TIP3    H131439   5.082   3.418   1.528 -0.1116  0.8562 -0.6840
 3316TIP3    H231440   5.182   3.370   1.631 -0.6316 -0.0627 -0.5973
 3317TIP3   OH231441   2.780   6.623   1.187 -0.4741  0.0234 -0.1427
 3317TIP3    H131442   2.721   6.567   1.237 -1.1227 -0.1281 -1.0587
 3317TIP3    H231443   2.722   6.673   1.129  0.1826  0.9069 -0.0620
 3318TIP3   OH231444   2.448   4.191  13.095 -0.1748  0.0662  0.4141
 3318TIP3    H131445   2.500   4.111  13.089 -0.8688 -0.4116  0.5690
 3318TIP3    H231446   2.481   4.247  13.025  0.2634 -0.3873  0.2547
 3319TIP3   OH231447   3.895   4.315  16.462  0.7709  0.4597 -0.6772
 3319TIP3    H131448   3.923   4.239  16.411  1.3088 -0.5878  1.0884
 3319TIP3    H231449   3.884   4.281  16.551  0.8961  2.4343  0.1344
 3320TIP3   OH231450   2.180   3.719   3.533  0.5145  0.7750 -0.3903
 3320TIP3    H131451   2.115   3.762   3.479  0.1053  0.0859 -0.4605
 3320TIP3    H231452   2.254   3.780   3.536 -0.9141  2.5762  1.4505
 3321TIP3   OH231453   4.575   6.338   2.892  0.6329  0.0973 -0.3072
 3321TIP3    H131454   4.631   6.382   2.957 -1.3798  1.7513  0.4292
 3321TIP3    H231455   4.613   6.362   2.808  0.1678  2.6277  0.1141
 3322TIP3   OH231456   1.308   1.335  13.273  0.1886  0.6238  0.0751
 3322TIP3    H131457   1.246   1.362  13.205 -1.3248 -0.4985  0.9771
 3322TIP3    H231458   1.338   1.249  13.244  0.2680  0.5591  0.3536
 3323TIP3   OH231459   5.346   3.477  12.694  0.2148  0.2063 -0.2704
 3323TIP3    H131460   5.335   3.436  12.779  0.3793 -1.0227 -0.8242
 3323TIP3    H231461   5.397   3.414  12.643  1.9436  1.7791 -0.6406
 3324TIP3   OH231462   4.232   4.057  15.130 -0.2586 -0.0843 -0.1425
 3324TIP3    H131463   4.249   3.963  15.121  3.8165  0.2890  1.2110
 3324TIP3    H231464   4.176   4.064  15.207  0.1173 -1.4167  0.2716
 3325TIP3   OH231465   2.504   3.391   4.022  0.5847  0.6364  0.2646
 3325TIP3    H131466   2.445   3.337   4.074  0.3467  1.8519  1.3057
 3325TIP3    H231467   2.447   3.433   3.958  0.8558 -0.7465 -0.9289
 3326TIP3   OH231468   4.606   4.926   0.982  0.4444 -0.0460 -0.1130
 3326TIP3    H131469   4.594   4.917   0.887 -0.1798 -0.8217  0.0292
 3326TIP3    H231470   4.518   4.939   1.016  0.6962  0.4927  0.3445
 3327TIP3   OH231471   6.442   0.443   4.995 -0.1784 -0.1339  0.1244
 3327TIP3    H131472   6.495   0.382   4.944 -0.9571 -0.6877 -0.0381
 3327TIP3    H231473   6.379   0.388   5.041  1.5705  0.1480  3.1302
 3328TIP3   OH231474   2.438   1.963  13.566  0.2262 -0.2282  0.2090
 3328TIP3    H131475   2.399   1.888  13.610  2.3912  0.2068  3.1720
 3328TIP3    H231476   2.532   1.945  13.568  0.6267  1.3790 -1.4303
 3329TIP3   OH231477   2.988   4.741  16.378  0.0238  0.1249 -0.4239
 3329TIP3    H131478   2.898   4.740  16.413  0.4405 -2.4324  0.7974
 3329TIP3    H231479   3.030   4.665  16.418  3.1714  1.9651  0.0485
 3330TIP3   OH231480   2.433   0.385  12.386 -0.2440  0.4487  0.0168
 3330TIP3    H131481   2.341   0.411  12.382 -1.0196 -1.8284  1.2443
 3330TIP3    H231482   2.446   0.357  12.477  0.7571 -2.2003 -0.8530
 3331TIP3   OH231483   6.137   4.482   3.817  0.3613 -0.2074  0.1595
 3331TIP3    H131484   6.202   4.471   3.886 -0.7940 -1.6004  1.0856
 3331TIP3    H231485   6.138   4.399   3.769 -2.2165 -1.1601  1.5692
 3332TIP3   OH231486   0.316   0.967  12.870 -0.1427  0.2174 -0.2461
 3332TIP3    H131487   0.396   1.019  12.876  0.2357 -0.3307 -0.4965
 3332TIP3    H231488   0.284   0.981  12.781  0.4499 -0.6703 -0.6180
 3333TIP3   OH231489   3.737   0.640  15.800  0.1318 -0.1470  0.1586
 3333TIP3    H131490   3.760   0.730  15.777  1.2895 -0.6210 -0.6298
 3333TIP3    H231491   3.745   0.591  15.717  3.0233 -1.6421  1.1899
 3334TIP3   OH231492   5.567   1.568  11.998  0.6700  0.0652  0.6327
 3334TIP3    H131493   5.550   1.609  12.083  0.8778  0.6197  0.4127
 3334TIP3    H231494   5.631   1.626  11.956 -1.6723  1.5495 -1.1900
 3335TIP3   OH231495   2.589   1.629   0.541  0.6649 -0.1301 -0.8049
 3335TIP3    H131496   2.646   1.572   0.592 -1.6891 -0.9153  1.1537
 3335TIP3    H231497   2.568   1.702   0.600 -0.3226  0.1328 -1.4506
 3336TIP3   OH231498   2.036   3.612  15.584 -0.2017  0.1436  0.5973
 3336TIP3    H131499   1.993   3.575  15.661  0.2794 -0.7527  0.4544
 3336TIP3    H231500   2.127   3.624  15.611 -0.0620 -0.0458  0.2190
 3337TIP3   OH231501   2.365   3.589   4.300  0.4665 -1.0032  0.3588
 3337TIP3    H131502   2.339   3.681   4.292  0.3936 -1.0157  0.4503
 3337TIP3    H231503   2.324   3.546   4.226  3.2357 -0.3747 -1.7256
 3338TIP3   OH231504   5.239   3.689  15.219  0.0325 -0.3152 -0.6427
 3338TIP3    H131505   5.312   3.732  15.173 -0.1837  0.4014 -0.3311
 3338TIP3    H231506   5.173   3.758  15.229 -0.6458 -0.9199 -0.8079
 3339TIP3   OH231507   5.464   3.167   5.074  0.7436  0.0992 -0.1295
 3339TIP3    H131508   5.452   3.072   5.078 -0.6457  0.2985  0.8413
 3339TIP3    H231509   5.525   3.186   5.145 -1.9680  0.3283  2.2891
 3340TIP3   OH231510   4.247   4.292  16.206 -0.1359 -0.6926  0.4844
 3340TIP3    H131511   4.253   4.350  16.130  1.1798 -0.3919  0.8011
 3340TIP3    H231512   4.190   4.339  16.267 -1.6035 -1.1572 -0.4830
 3341TIP3   OH231513   5.263   0.425  14.098  0.3968  0.1888  0.7862
 3341TIP3    H131514   5.266   0.506  14.148 -1.5466  0.7414  0.0606
 3341TIP3    H231515   5.250   0.452  14.008  1.4659 -0.8869  0.2771
 3342TIP3   OH231516   5.476   5.197  15.389  1.3852  0.5079 -0.0293
 3342TIP3    H131517   5.515   5.209  15.303  2.2820 -0.3361  0.2378
 3342TIP3    H231518   5.515   5.115  15.422 -1.0203 -0.7208  0.0127
 3343TIP3   OH231519   0.891   5.967  12.893 -0.0323 -0.4563  0.3155
 3343TIP3    H131520   0.975   5.976  12.939  0.0259  0.5491  0.0268
 3343TIP3    H231521   0.826   5.960  12.964  0.0455  1.2039  0.5919
 3344TIP3   OH231522   3.177   3.828  13.493 -0.0381 -0.3584 -0.4219
 3344TIP3    H131523   3.087   3.808  13.518  0.5852 -1.3005  1.2504
 3344TIP3    H231524   3.208   3.749  13.450  0.6095 -0.8387  0.8824
 3345TIP3   OH231525   6.740   1.809   6.070 -0.3026  0.2616  0.2937
 3345TIP3    H131526   6.678   1.780   6.004  0.6248 -1.1758  0.0080
 3345TIP3    H231527   6.704   1.891   6.104 -1.7936 -0.0120 -0.5896
 3346TIP3   OH231528   4.677   3.733  14.820  0.1271  0.1427  0.5313
 3346TIP3    H131529   4.746   3.722  14.885 -1.0356  2.1852  2.2003
 3346TIP3    H231530   4.710   3.801  14.761  0.3434 -0.3034  0.1260
 3347TIP3   OH231531   0.096   5.512   4.029  0.2248 -0.2481  0.4110
 3347TIP3    H131532   0.055   5.599   4.025 -0.6893 -0.6839 -0.0764
 3347TIP3    H231533   0.099   5.492   4.123  1.4643  0.7589  0.6179
 3348TIP3   OH231534   1.574   4.456  16.264  0.8308 -0.0220  0.3096
 3348TIP3    H131535   1.596   4.549  16.257 -0.1819  0.2565  0.6752
 3348TIP3    H231536   1.545   4.431  16.176 -0.6063  0.4807  0.6108
 3349TIP3   OH231537   3.096   0.073  11.675 -0.0901 -0.3977  0.4630
 3349TIP3    H131538   3.067   0.121  11.598  0.0131 -0.5128  0.3543
 3349TIP3    H231539   3.101  -0.018  11.647  0.3204 -0.3867  0.5009
 3350TIP3   OH231540   1.766   2.501   2.706  0.1458 -0.2204 -0.1830
 3350TIP3    H131541   1.692   2.502   2.767 -0.3941 -0.5953 -0.8246
 3350TIP3    H231542   1.836   2.545   2.754 -0.6267  0.5719  0.2633
 3351TIP3   OH231543   1.378   0.640  15.866  0.3967  0.2986 -0.0439
 3351TIP3    H131544   1.414   0.729  15.871  0.8639  0.0911  0.4953
 3351TIP3    H231545   1.283   0.652  15.865  0.4622  0.8426 -0.9972
 3352TIP3   OH231546   1.193   0.179   2.225 -0.1929 -0.3118  0.2944
 3352TIP3    H131547   1.265   0.192   2.287 -1.6718 -1.0645  2.2698
 3352TIP3    H231548   1.170   0.086   2.234  0.5226 -0.8678 -2.5855
 3353TIP3   OH231549   4.583   4.163   3.902 -0.3447 -0.5509  0.8717
 3353TIP3    H131550   4.531   4.144   3.824  0.3053 -0.8925  0.5073
 3353TIP3    H231551   4.638   4.085   3.914  2.4465  0.9992 -0.7108
 3354TIP3   OH231552   4.552   6.278   5.710  0.0657 -0.0599  0.3368
 3354TIP3    H131553   4.478   6.316   5.758 -0.1426  1.6489 -1.2097
 3354TIP3    H231554   4.550   6.185   5.731 -2.6145 -0.0898  0.2643
 3355TIP3   OH231555   1.304   2.407  12.372  0.2666  0.4763  0.3280
 3355TIP3    H131556   1.321   2.339  12.436 -0.2038  0.2152  0.1826
 3355TIP3    H231557   1.225   2.452  12.404 -1.2985 -1.0577 -1.1525
 3356TIP3   OH231558   5.512   6.166   2.169 -0.1470 -0.2028  0.0356
 3356TIP3    H131559   5.447   6.101   2.144 -1.0465  0.7393 -0.1668
 3356TIP3    H231560   5.461   6.245   2.188  0.9406  0.5808 -0.1775
 3357TIP3   OH231561   1.702   0.664  14.035  0.1283 -0.0820  0.2098
 3357TIP3    H131562   1.794   0.642  14.050 -0.1163 -1.4192 -0.1533
 3357TIP3    H231563   1.705   0.749  13.990  1.2363 -0.5760 -0.6871
 3358TIP3   OH231564   3.171   4.189   0.094 -0.0074  0.0697 -0.2713
 3358TIP3    H131565   3.104   4.127   0.066 -0.0770  0.7573 -1.7433
 3358TIP3    H231566   3.122   4.264   0.128  0.0493  0.0718 -0.1929
 3359TIP3   OH231567   0.166   4.578   5.210  0.7339  0.5273 -0.0119
 3359TIP3    H131568   0.074   4.587   5.235  0.9655  1.4541  0.5664
 3359TIP3    H231569   0.163   4.555   5.117 -0.1173 -1.5372  0.4833
 3360TIP3   OH231570   0.932   4.269   5.607 -0.0439 -0.7990  0.5052
 3360TIP3    H131571   0.841   4.258   5.582 -0.1873 -1.4286  1.2678
 3360TIP3    H231572   0.931   4.343   5.669 -0.1111 -1.1241  0.8948
 3361TIP3   OH231573   6.663   3.025  10.905  0.5614  0.3707 -0.0332
 3361TIP3    H131574   6.680   2.938  10.940 -1.1835 -0.3039 -0.7834
 3361TIP3    H231575   6.642   3.011  10.813 -2.2802  1.2292  0.3918
 3362TIP3   OH231576   0.873   0.116   0.876  0.1200 -0.2172  0.2843
 3362TIP3    H131577   0.854   0.105   0.783  0.9988  0.9204 -0.0601
 3362TIP3    H231578   0.930   0.193   0.880  0.4532 -0.4982  1.7231
 3363TIP3   OH231579   5.672   2.253   5.181  0.0194 -0.0682  0.1003
 3363TIP3    H131580   5.755   2.205   5.179  0.1547  0.1078  1.3171
 3363TIP3    H231581   5.653   2.266   5.273 -1.4334 -0.2110 -0.1431
 3364TIP3   OH231582   0.825   3.365  14.128  0.4006  0.4025 -0.2394
 3364TIP3    H131583   0.878   3.445  14.123 -0.0544  0.7065 -0.2008
 3364TIP3    H231584   0.880   3.304  14.177  0.2772  1.0720  0.7623
 3365TIP3   OH231585   4.403   3.140  14.532 -0.1565 -0.6635 -0.3774
 3365TIP3    H131586   4.350   3.217  14.514 -1.2724 -1.0431  1.0969
 3365TIP3    H231587   4.453   3.163  14.611 -1.4837 -1.8729  0.8642
 3366TIP3   OH231588   6.413   6.688  10.956 -0.3851  0.5923 -1.0252
 3366TIP3    H131589   6.453   6.701  11.042 -1.8101  0.6484 -0.3400
 3366TIP3    H231590   6.454   6.608  10.922  0.7964  1.0334 -0.6743
 3367TIP3   OH231591   0.506   2.494   0.279 -0.1067  0.4773 -0.0929
 3367TIP3    H131592   0.574   2.530   0.222  0.3320 -0.0949  0.0638
 3367TIP3    H231593   0.549   2.424   0.327 -1.0414 -0.5202 -0.6668
 3368TIP3   OH231594   1.944   3.780   2.555 -0.5631 -0.6639  0.5956
 3368TIP3    H131595   1.868   3.804   2.608  0.4817  2.5657  0.8753
 3368TIP3    H231596   2.011   3.755   2.618 -0.4263 -0.4159  0.5477
 3369TIP3   OH231597   3.320   4.077  13.410 -0.0909  0.1245  0.1658
 3369TIP3    H131598   3.406   4.038  13.395  0.6349  0.0749  3.6564
 3369TIP3    H231599   3.258   4.005  13.400  0.6701 -0.6680  1.0238
 3370TIP3   OH231600   0.652   1.222  15.720  0.4537 -0.2825 -1.1058
 3370TIP3    H131601   0.599   1.144  15.705 -0.6133 -0.1282  1.3688
 3370TIP3    H231602   0.680   1.215  15.811  2.2240  1.1335 -1.4899
 3371TIP3   OH231603   3.352   4.740  14.980 -0.3442  0.2801 -0.0858
 3371TIP3    H131604   3.357   4.672  14.912  0.8480  1.1576 -0.8973
 3371TIP3    H231605   3.353   4.691  15.062  0.2168 -0.7095 -0.6640
 3372TIP3   OH231606   1.952   6.473  11.504 -0.4692  0.2726 -0.3557
 3372TIP3    H131607   1.885   6.528  11.463  0.0245  3.3694  2.4828
 3372TIP3    H231608   2.035   6.506  11.469 -0.2357  0.0641 -0.0070
 3373TIP3   OH231609   5.531   4.569   3.901 -0.8935 -0.0637 -0.0847
 3373TIP3    H131610   5.483   4.601   3.978 -0.4428 -0.2950  0.2938
 3373TIP3    H231611   5.507   4.476   3.895 -0.6579 -0.1283 -0.0222
 3374TIP3   OH231612   5.756   2.685  11.383  0.3081 -0.1782  0.0612
 3374TIP3    H131613   5.682   2.727  11.339  0.6950  1.1232  0.6260
 3374TIP3    H231614   5.741   2.700  11.476 -0.0813 -2.2181  0.3698
 3375TIP3   OH231615   2.602   0.924  15.256 -0.0875  0.2327  0.0470
 3375TIP3    H131616   2.524   0.882  15.221 -0.4343 -0.1096  1.1890
 3375TIP3    H231617   2.663   0.928  15.182  0.4797 -3.4578  0.1464
 3376TIP3   OH231618   0.831   5.813  15.451 -0.0693 -0.4093 -0.0612
 3376TIP3    H131619   0.874   5.741  15.497  1.9936  0.0572 -1.1352
 3376TIP3    H231620   0.805   5.873  15.521 -0.1175 -1.3081  0.7162
 3377TIP3   OH231621   4.354   6.704  12.252 -0.3257 -0.2502  0.3675
 3377TIP3    H131622   4.342   6.777  12.312  0.0026 -0.7925  1.1004
 3377TIP3    H231623   4.340   6.626  12.305 -0.5181 -0.7287 -0.3718
 3378TIP3   OH231624   3.056   3.341   1.708 -0.0427  0.2093 -0.0922
 3378TIP3    H131625   3.104   3.420   1.684  0.8655 -0.3113 -0.0368
 3378TIP3    H231626   3.002   3.368   1.782  0.6611  0.6531  0.2736
 3379TIP3   OH231627   6.304   4.635  13.857 -0.3833 -0.0247  0.0270
 3379TIP3    H131628   6.383   4.644  13.804 -1.7721 -0.7183 -2.3138
 3379TIP3    H231629   6.281   4.542  13.849 -1.2148  0.0795  1.0162
 3380TIP3   OH231630   3.868   4.168  15.190  0.5446  0.1329 -0.4908
 3380TIP3    H131631   3.836   4.190  15.278 -0.1642  0.5807 -0.8478
 3380TIP3    H231632   3.950   4.122  15.205 -0.1332 -0.8088  0.4547
 3381TIP3   OH231633   3.106   0.323  14.757  0.3696 -0.2796 -0.0405
 3381TIP3    H131634   3.070   0.343  14.671  1.0417 -0.4901 -0.3784
 3381TIP3    H231635   3.190   0.369  14.760  0.0718  0.2304  0.7457
 3382TIP3   OH231636   6.662   0.376   5.266  0.0171 -0.3857  0.0431
 3382TIP3    H131637   6.649   0.467   5.241 -0.9043 -0.8260 -1.1793
 3382TIP3    H231638   6.705   0.380   5.352 -2.1580  1.2253  1.1592
 3383TIP3   OH231639   2.334   5.733   5.694 -0.7351  0.4027  0.4363
 3383TIP3    H131640   2.252   5.754   5.650 -0.5168  0.2651 -0.0437
 3383TIP3    H231641   2.335   5.637   5.698 -0.9828  0.4200  1.1932
 3384TIP3   OH231642   0.048   1.480   3.094  0.2957  0.0428  0.1532
 3384TIP3    H131643   0.069   1.561   3.139  0.0487  0.0959  0.1733
 3384TIP3    H231644  -0.015   1.436   3.151 -1.0156  0.7016 -0.7319
 3385TIP3   OH231645   6.192   1.187   4.257  0.1268 -0.2192 -0.3551
 3385TIP3    H131646   6.172   1.117   4.319  0.3304  0.0102 -0.0246
 3385TIP3    H231647   6.202   1.265   4.312 -0.2786  0.1065 -0.7314
 3386TIP3   OH231648   1.952   1.384   2.504  0.1772 -0.1325  0.5400
 3386TIP3    H131649   2.037   1.416   2.474 -0.9590  4.9073  1.6718
 3386TIP3    H231650   1.967   1.292   2.526  5.3098  0.4351  0.6769
 3387TIP3   OH231651   2.780   2.583  16.082 -0.1442  0.2810 -0.4215
 3387TIP3    H131652   2.739   2.531  16.013  0.7049  1.4985 -1.8747
 3387TIP3    H231653   2.779   2.672  16.049  0.4501  0.8675  1.0783
 3388TIP3   OH231654   4.765   0.832   5.417 -0.0149 -0.4105 -0.0082
 3388TIP3    H131655   4.680   0.828   5.374  0.7916 -0.2245 -1.6983
 3388TIP3    H231656   4.828   0.840   5.345  1.2977  1.4996  1.2716
 3389TIP3   OH231657   5.487   5.772   3.751 -0.2063  0.2503  0.1568
 3389TIP3    H131658   5.441   5.825   3.816  1.1239  0.7162  0.7753
 3389TIP3    H231659   5.521   5.697   3.801 -0.6994 -0.3512 -0.3862
 3390TIP3   OH231660   6.092   5.836  12.698 -0.0963  0.2271  0.6735
 3390TIP3    H131661   6.077   5.770  12.766  1.8836  0.0419  1.0061
 3390TIP3    H231662   6.085   5.787  12.615 -1.0146  0.1281  0.8028
 3391TIP3   OH231663   0.151   1.061  12.674 -0.0427  0.3171  0.2579
 3391TIP3    H131664   0.106   1.044  12.591  2.7042  3.0114 -2.0812
 3391TIP3    H231665   0.099   1.129  12.716  0.6670  2.0464 -1.4798
 3392TIP3   OH231666   2.339   1.509   3.959  0.4558  0.2779 -0.0401
 3392TIP3    H131667   2.259   1.560   3.965  0.6878  0.7170 -0.5798
 3392TIP3    H231668   2.348   1.490   3.865  1.9036  1.7533 -0.2458
 3393TIP3   OH231669   2.112   4.760   2.640 -0.0670 -0.1199 -0.6510
 3393TIP3    H131670   2.021   4.786   2.631 -0.5773 -1.4355  0.4119
 3393TIP3    H231671   2.160   4.842   2.652 -1.2774  0.4941  0.0735
 3394TIP3   OH231672   0.850   5.061  15.216  0.3637  0.2136 -0.5191
 3394TIP3    H131673   0.825   4.974  15.186  0.2924  0.4879 -1.2591
 3394TIP3    H231674   0.767   5.108  15.223  0.3780  0.1571  0.1100
 3395TIP3   OH231675   1.435   5.943   6.411 -0.4930 -1.2049 -0.0114
 3395TIP3    H131676   1.529   5.926   6.403 -0.2059  0.6575 -1.1815
 3395TIP3    H231677   1.427   5.994   6.492 -0.0238  1.1563 -1.3475
 3396TIP3   OH231678   6.240   5.584  12.324  0.0281  0.5032  0.3180
 3396TIP3    H131679   6.326   5.610  12.355  0.3138  1.1410 -0.9685
 3396TIP3    H231680   6.241   5.488  12.326  1.0616  0.4873 -0.4722
 3397TIP3   OH231681   5.739   3.532   1.844  0.0361 -0.1587 -0.0064
 3397TIP3    H131682   5.824   3.491   1.858 -0.4500 -0.9646  0.6396
 3397TIP3    H231683   5.707   3.553   1.932  0.3950  1.9053 -0.3165
 3398TIP3   OH231684   4.050   6.571   4.000 -0.2523 -0.2401  0.3681
 3398TIP3    H131685   4.101   6.614   4.069 -2.5999  1.3563  1.2666
 3398TIP3    H231686   4.044   6.480   4.028  1.8553 -0.4370  0.3239
 3399TIP3   OH231687   0.452   0.710   0.388  0.1877 -0.4472 -0.5037
 3399TIP3    H131688   0.405   0.628   0.401  1.1089 -0.7143  1.5081
 3399TIP3    H231689   0.522   0.708   0.453  0.5013  1.7425 -0.6990
 3400TIP3   OH231690   4.841   3.248  16.900  0.3956  0.4836  0.3151
 3400TIP3    H131691   4.843   3.182  16.830  1.1030 -0.8527  1.5332
 3400TIP3    H231692   4.763   3.300  16.882  0.3466 -0.0682 -1.2325
 3401TIP3   OH231693   1.484   2.674   1.659  0.0366 -0.0567  0.2230
 3401TIP3    H131694   1.483   2.663   1.754  1.7638  3.1516  0.7532
 3401TIP3    H231695   1.572   2.646   1.633  1.0483  2.7083  0.2835
 3402TIP3   OH231696   3.891   5.515  11.284 -0.2039 -0.4642 -0.5405
 3402TIP3    H131697   3.983   5.508  11.312 -0.9672 -1.8214  2.0120
 3402TIP3    H231698   3.855   5.586  11.337 -1.0698 -1.3024  0.0420
 3403TIP3   OH231699   1.132   1.887   4.292  0.0833 -0.3254 -0.3912
 3403TIP3    H131700   1.221   1.921   4.284  0.6485 -1.3883  0.9712
 3403TIP3    H231701   1.081   1.938   4.229  1.4338  1.0334 -0.4418
 3404TIP3   OH231702   3.665   4.126   2.249  0.4135  0.2871  0.6575
 3404TIP3    H131703   3.606   4.193   2.284  0.5450  0.7754 -0.0328
 3404TIP3    H231704   3.620   4.094   2.171  0.8152  0.2848  0.4244
 3405TIP3   OH231705   0.036   2.476  15.888  0.2470 -0.2705 -0.1829
 3405TIP3    H131706   0.119   2.478  15.935 -0.4820 -0.8345  1.1761
 3405TIP3    H231707   0.057   2.512  15.801  1.4685  1.5058  0.7884
 3406TIP3   OH231708   3.795   1.515  13.178 -0.0717  0.7348  0.0047
 3406TIP3    H131709   3.726   1.472  13.127 -0.2792  0.0682  0.8197
 3406TIP3    H231710   3.874   1.503  13.125 -0.3370  0.3576 -0.3172
 3407TIP3   OH231711   5.664   4.869   3.959  0.5622  0.0719 -0.0188
 3407TIP3    H131712   5.602   4.931   3.921 -0.2199 -0.3482  0.5312
 3407TIP3    H231713   5.671   4.800   3.893  0.5964  0.2130 -0.1652
 3408TIP3   OH231714   6.469   2.749   4.179 -0.0942 -0.3257 -0.2438
 3408TIP3    H131715   6.423   2.804   4.243  1.0948 -1.0861  1.3524
 3408TIP3    H231716   6.404   2.682   4.155 -2.0780  2.3849 -3.3408
 3409TIP3   OH231717   4.370   6.522   1.863  0.3617 -0.4525 -0.2643
 3409TIP3    H131718   4.338   6.607   1.834  1.7620 -0.4013 -1.7748
 3409TIP3    H231719   4.381   6.532   1.958  1.3170  1.3535 -0.5205
 3410TIP3   OH231720   0.243   4.632  13.861  0.6001  0.0739  0.1494
 3410TIP3    H131721   0.216   4.719  13.831  1.0873  0.4610  0.8139
 3410TIP3    H231722   0.324   4.648  13.910  0.5072 -0.7119  0.5638
 3411TIP3   OH231723   2.136   4.890   0.602 -0.1977  0.6223  0.1534
 3411TIP3    H131724   2.186   4.810   0.582 -0.3047  0.6197 -0.1185
 3411TIP3    H231725   2.120   4.930   0.516  0.4908  1.3272  0.3411
 3412TIP3   OH231726   6.094   0.031  12.555  0.1094 -0.6669 -0.1801
 3412TIP3    H131727   6.089   0.010  12.648 -0.5920 -0.4016 -0.1522
 3412TIP3    H231728   6.185   0.059  12.541  0.0297 -0.0081  0.5796
 3413TIP3   OH231729   2.818   5.823   5.637  0.2013  0.0471 -0.1765
 3413TIP3    H131730   2.816   5.728   5.628  1.6977 -0.0693  0.4492
 3413TIP3    H231731   2.888   5.840   5.700  0.1586  1.5851 -0.5009
 3414TIP3   OH231732   1.580   0.558   2.298 -0.1078  0.2692 -0.0314
 3414TIP3    H131733   1.539   0.578   2.382 -0.0653  0.5989 -0.0861
 3414TIP3    H231734   1.548   0.627   2.239 -3.7051 -2.3168 -1.4935
 3415TIP3   OH231735   3.313   4.399   5.595 -0.0263  0.3271  0.2669
 3415TIP3    H131736   3.226   4.370   5.567  0.4807 -0.2029 -0.8313
 3415TIP3    H231737   3.339   4.335   5.662 -0.2887  0.2016  0.2498
 3416TIP3   OH231738   0.319   3.369  11.848 -0.0832  0.1694  0.8252
 3416TIP3    H131739   0.303   3.339  11.938  0.0782  1.2595  1.2347
 3416TIP3    H231740   0.236   3.407  11.820 -0.8047 -2.0373 -0.3026
 3417TIP3   OH231741   3.503   1.688   5.515  0.2432 -0.2556 -0.6067
 3417TIP3    H131742   3.483   1.640   5.435  0.1834  0.6920 -1.1787
 3417TIP3    H231743   3.559   1.761   5.487 -1.7706  1.5605 -0.2446
 3418TIP3   OH231744   4.209   2.070  10.944 -0.3460  0.3037  0.1589
 3418TIP3    H131745   4.146   2.130  10.905 -0.7119 -0.0610  0.1870
 3418TIP3    H231746   4.257   2.034  10.869 -0.8764 -0.2030  0.0502
 3419TIP3   OH231747   1.105   5.843   5.018 -0.7422 -0.8756  0.3392
 3419TIP3    H131748   1.185   5.891   5.001 -1.1545 -0.4068 -0.3214
 3419TIP3    H231749   1.092   5.788   4.941 -0.6254 -1.5686  0.8005
 3420TIP3   OH231750   6.692   5.330   5.311  0.5152  0.2603 -0.0983
 3420TIP3    H131751   6.719   5.265   5.247 -0.7922  0.7865 -1.2530
 3420TIP3    H231752   6.692   5.284   5.395 -0.4254 -1.2531 -0.8910
 3421TIP3   OH231753   2.468   5.252   4.568  0.0162  0.8047 -0.2301
 3421TIP3    H131754   2.413   5.330   4.569 -1.3041 -0.0751 -0.6575
 3421TIP3    H231755   2.450   5.210   4.653 -0.2877  0.3154 -0.5314
 3422TIP3   OH231756   3.880   4.265   5.634 -0.1441 -0.0755  0.1562
 3422TIP3    H131757   3.824   4.339   5.660  0.4853 -0.3543  2.5035
 3422TIP3    H231758   3.837   4.188   5.671  2.0110 -0.2322  2.6046
 3423TIP3   OH231759   5.917   2.549  16.144 -0.0141 -0.0631  0.2200
 3423TIP3    H131760   5.917   2.530  16.238  0.6859  0.0919  0.2606
 3423TIP3    H231761   5.918   2.645  16.139  1.6411 -0.0502  0.0966
 3424TIP3   OH231762   2.721   1.762   5.898  0.3023  0.0070 -0.1129
 3424TIP3    H131763   2.687   1.827   5.960 -0.4445  0.0160 -0.5138
 3424TIP3    H231764   2.752   1.690   5.953 -0.4568 -0.0356  0.2748
 3425TIP3   OH231765   4.308   3.740  12.441 -0.3346 -0.5145  0.1888
 3425TIP3    H131766   4.293   3.744  12.347 -1.0916 -0.6690  0.2955
 3425TIP3    H231767   4.236   3.791  12.479  1.4292  1.8569  0.5767
 3426TIP3   OH231768   4.367   1.348  15.597  0.6458  0.8040 -0.0342
 3426TIP3    H131769   4.438   1.288  15.620 -0.6334  0.0290  2.1217
 3426TIP3    H231770   4.367   1.414  15.667 -1.6341 -0.0542  0.8667
 3427TIP3   OH231771   6.367   6.212  11.813  0.0361  0.0241  0.1193
 3427TIP3    H131772   6.400   6.122  11.822  0.0775  0.1257  1.0380
 3427TIP3    H231773   6.339   6.218  11.721  1.8018 -0.3247 -0.4910
 3428TIP3   OH231774   5.455   0.300  15.372  0.6659 -0.0027 -0.1534
 3428TIP3    H131775   5.456   0.366  15.441 -1.4566  0.3910 -0.4585
 3428TIP3    H231776   5.499   0.342  15.298 -0.0408  0.8227 -0.1166
 3429TIP3   OH231777   6.680   5.998   0.447 -0.6277  0.3522 -0.3253
 3429TIP3    H131778   6.686   6.075   0.390 -0.1624  0.0458 -0.6998
 3429TIP3    H231779   6.679   6.034   0.536  3.0416  0.7640 -0.2750
 3430TIP3   OH231780   3.258   4.109   3.414 -0.0766 -0.6853  0.1435
 3430TIP3    H131781   3.209   4.027   3.412  0.1220 -0.8063  0.1739
 3430TIP3    H231782   3.266   4.130   3.507 -0.9455 -0.1341  0.1015
 3431TIP3   OH231783   6.402   6.209   4.509 -0.0615  0.2232 -0.3966
 3431TIP3    H131784   6.417   6.300   4.486 -0.7146  0.1117 -1.3055
 3431TIP3    H231785   6.474   6.161   4.467  0.6463  0.3746  0.6113
 3432TIP3   OH231786   5.738   3.165  16.003  0.4689  0.6117  0.0369
 3432TIP3    H131787   5.762   3.233  15.939 -1.1967  0.1031 -1.1936
 3432TIP3    H231788   5.704   3.094  15.950  0.4319 -0.4510  1.4339
 3433TIP3   OH231789   5.303   5.847   3.161 -0.8032  0.0423  0.5405
 3433TIP3    H131790   5.378   5.899   3.188  1.2805 -1.9659 -0.9463
 3433TIP3    H231791   5.271   5.806   3.241  1.1370 -0.7816  0.9476
 3434TIP3   OH231792   6.179   4.266  13.026 -0.0775 -0.4625  0.8980
 3434TIP3    H131793   6.130   4.344  13.054 -0.4030 -0.8026  1.2930
 3434TIP3    H231794   6.207   4.224  13.108 -0.5491 -1.1607  0.7134
 3435TIP3   OH231795   5.089   0.802   0.873 -0.3277  0.3280 -0.3705
 3435TIP3    H131796   5.079   0.874   0.811  0.1214  0.7506  0.0440
 3435TIP3    H231797   5.170   0.821   0.920  1.3552 -1.8848 -2.1427
 3436TIP3   OH231798   2.471   6.419   0.828 -0.5460 -0.3367 -0.1010
 3436TIP3    H131799   2.561   6.452   0.830 -0.5213 -0.4216  0.2140
 3436TIP3    H231800   2.447   6.422   0.735 -1.2611  2.5138  0.0883
 3437TIP3   OH231801   1.146   3.155   2.238 -0.5852  0.2330 -0.1408
 3437TIP3    H131802   1.131   3.236   2.288 -0.1920 -0.6859  1.5283
 3437TIP3    H231803   1.194   3.184   2.160  0.2606  1.5110  0.8102
 3438TIP3   OH231804   4.413   5.247  13.978 -0.6295  0.8597 -0.3916
 3438TIP3    H131805   4.444   5.335  13.960 -0.8012  1.3067  1.3858
 3438TIP3    H231806   4.318   5.255  13.980 -0.6511  0.5952 -0.3554
 3439TIP3   OH231807   2.992   6.608   4.201  0.1779  0.3238  0.1066
 3439TIP3    H131808   2.951   6.604   4.287 -1.9055  0.2822 -0.8185
 3439TIP3    H231809   2.949   6.538   4.151  0.5333  1.0406 -1.2698
 3440TIP3   OH231810   0.097   1.242   3.562  0.3548  0.3414 -0.3874
 3440TIP3    H131811   0.055   1.203   3.639  0.9168 -0.0397 -0.2692
 3440TIP3    H231812   0.044   1.212   3.488  1.2681 -1.4074 -0.3883
 3441TIP3   OH231813   2.041   4.061  17.284 -0.1219 -0.0807  0.8717
 3441TIP3    H131814   1.955   4.085  17.320  0.2221  0.1745  1.5280
 3441TIP3    H231815   2.030   4.070  17.189 -0.2634  1.8996  1.0271
 3442TIP3   OH231816   2.157   2.989   5.816  0.2073  0.3572 -0.2465
 3442TIP3    H131817   2.155   3.083   5.801 -2.1433  0.3292 -0.3893
 3442TIP3    H231818   2.229   2.976   5.879 -0.9206  2.5289  1.6122
 3443TIP3   OH231819   5.357   3.561  10.943 -0.5234  0.8071  0.3705
 3443TIP3    H131820   5.373   3.467  10.954 -0.0901  0.7016 -0.9574
 3443TIP3    H231821   5.320   3.589  11.027 -1.3974 -0.6932  0.5157
 3444TIP3   OH231822   1.135   6.572   2.510 -0.4275  0.1809  0.2100
 3444TIP3    H131823   1.106   6.514   2.580 -0.2774 -0.2701 -0.0963
 3444TIP3    H231824   1.214   6.530   2.476 -0.5591  0.3481 -0.2983
 3445TIP3   OH231825   2.944   1.288   6.574  0.2692 -0.1753 -0.1218
 3445TIP3    H131826   3.001   1.213   6.559  1.0415  0.4216 -0.2213
 3445TIP3    H231827   2.855   1.252   6.566  0.6239 -0.8771 -1.2061
 3446TIP3   OH231828   6.324   5.164   3.281 -0.1920 -0.1546 -0.7948
 3446TIP3    H131829   6.378   5.210   3.217  0.8225 -0.1776  0.0046
 3446TIP3    H231830   6.369   5.178   3.365 -0.6012 -1.4321 -0.3276
 3447TIP3   OH231831   1.907   4.957  13.608 -0.0195  0.4396  0.1076
 3447TIP3    H131832   1.938   4.993  13.524 -1.6346  0.4366 -0.5133
 3447TIP3    H231833   1.986   4.920  13.648  0.5086 -1.1739 -2.2086
 3448TIP3   OH231834   1.369   5.845  16.817 -0.4852  0.6106 -0.0159
 3448TIP3    H131835   1.430   5.855  16.744 -1.4786  1.2718 -0.7858
 3448TIP3    H231836   1.362   5.933  16.855 -0.4620  0.4056  0.4636
 3449TIP3   OH231837   5.404   4.501   2.707  0.5054  0.7207 -0.0242
 3449TIP3    H131838   5.367   4.463   2.627  1.1714 -0.9773  0.4247
 3449TIP3    H231839   5.404   4.595   2.691  1.3955  0.3938 -2.3813
 3450TIP3   OH231840   4.655   6.053  12.776 -0.2506  1.1770 -0.2716
 3450TIP3    H131841   4.582   6.104  12.741 -0.8512  0.6186  0.1342
 3450TIP3    H231842   4.616   5.969  12.800  0.3400  1.1958  0.8158
 3451TIP3   OH231843   2.753   2.484  14.653  0.4867  0.0147 -0.5039
 3451TIP3    H131844   2.683   2.473  14.589 -0.7862 -1.4606  1.0445
 3451TIP3    H231845   2.720   2.550  14.714  0.5759 -0.4403  0.0442
 3452TIP3   OH231846   2.185   5.330  13.553 -0.0137 -0.4141  0.3072
 3452TIP3    H131847   2.184   5.256  13.614  0.1835 -1.2849 -0.7026
 3452TIP3    H231848   2.278   5.349  13.541 -0.0600 -0.1079  0.4435
 3453TIP3   OH231849   2.636   5.339  14.852 -0.4823  0.0179 -0.2119
 3453TIP3    H131850   2.622   5.425  14.891 -3.0346 -0.4613  0.1123
 3453TIP3    H231851   2.612   5.350  14.760 -1.7032 -0.5100  0.0220
 3454TIP3   OH231852   1.375   2.749   3.558  0.5125  0.0093 -0.9658
 3454TIP3    H131853   1.353   2.657   3.572  1.6443 -0.1433 -0.0401
 3454TIP3    H231854   1.467   2.756   3.584  0.6197  1.2803 -1.6037
 3455TIP3   OH231855   6.124   6.368  12.460  0.1947 -0.2601 -0.1147
 3455TIP3    H131856   6.205   6.320  12.478  0.6420  1.0163  1.6083
 3455TIP3    H231857   6.114   6.426  12.536 -3.5337 -1.9237  0.8769
 3456TIP3   OH231858   0.317   4.050  15.068  0.4765 -0.7225  0.6259
 3456TIP3    H131859   0.374   3.983  15.106  1.3170 -1.1664 -1.2617
 3456TIP3    H231860   0.254   4.000  15.017  0.4716 -0.1209  0.0311
 3457TIP3   OH231861   1.964   6.032   0.857 -0.0380 -0.5132  0.1126
 3457TIP3    H131862   1.955   5.950   0.809 -1.7708 -0.3529  0.0951
 3457TIP3    H231863   1.968   6.006   0.949 -1.0444 -0.6191  0.1393
 3458TIP3   OH231864   0.390   1.355  10.977  0.0826  0.3345 -0.1996
 3458TIP3    H131865   0.415   1.410  10.903 -1.2926  1.7401  0.3259
 3458TIP3    H231866   0.367   1.271  10.937  0.5526  0.6777 -1.2230
 3459TIP3   OH231867   2.104   0.474  17.093  0.9243  0.1770 -0.7618
 3459TIP3    H131868   2.067   0.462  17.180 -0.5339 -0.8585 -1.4755
 3459TIP3    H231869   2.194   0.443  17.100  0.1497 -2.1616 -0.1455
 3460TIP3   OH231870   2.889   2.878   6.339 -0.1914  0.2276  0.1613
 3460TIP3    H131871   2.806   2.885   6.386 -0.0319  1.1326  0.3290
 3460TIP3    H231872   2.877   2.804   6.280 -0.4998 -0.7515  1.4002
 3461TIP3   OH231873   4.846   2.141  14.805  0.0689  0.4656 -0.4839
 3461TIP3    H131874   4.854   2.090  14.724 -0.3341  0.6123 -0.6219
 3461TIP3    H231875   4.872   2.081  14.875 -2.0955 -0.5363 -0.4364
 3462TIP3   OH231876   4.453   1.069  15.776  0.0224 -0.1504 -0.2265
 3462TIP3    H131877   4.383   1.128  15.806 -1.1381 -1.7547  0.3835
 3462TIP3    H231878   4.409   0.985  15.763  1.6287 -0.9044 -1.0563
 3463TIP3   OH231879   3.333   5.309   0.697 -0.6286 -0.7316  0.0737
 3463TIP3    H131880   3.418   5.352   0.708 -0.5496 -0.9509  0.3226
 3463TIP3    H231881   3.273   5.362   0.749 -0.5521 -0.8602  0.2918
 3464TIP3   OH231882   5.286   5.314   1.953 -0.6184 -0.3588  0.2802
 3464TIP3    H131883   5.205   5.302   1.904 -1.4617  2.1603  0.8925
 3464TIP3    H231884   5.354   5.321   1.885 -1.6801  2.4943 -0.6441
 3465TIP3   OH231885   2.410   0.213   1.280  0.4398 -0.5263  0.0258
 3465TIP3    H131886   2.395   0.229   1.373  1.1663  0.2973  0.0075
 3465TIP3    H231887   2.368   0.128   1.264 -0.8809 -0.0454  0.7888
 3466TIP3   OH231888   0.532   3.499   3.620  0.1473 -0.2197 -0.1914
 3466TIP3    H131889   0.588   3.439   3.668  0.4342  0.0821 -0.1459
 3466TIP3    H231890   0.470   3.442   3.573  0.1944 -0.5321  0.1251
 3467TIP3   OH231891   2.780   4.908   0.334 -0.1088  0.3046  0.4017
 3467TIP3    H131892   2.745   4.928   0.421  1.4051  2.0543  0.6503
 3467TIP3    H231893   2.732   4.829   0.307 -0.7513 -0.1737  2.7205
 3468TIP3   OH231894   5.060   2.938  14.642  0.4443 -0.3255 -0.0766
 3468TIP3    H131895   5.068   2.843  14.639 -1.5035 -0.5053 -1.0535
 3468TIP3    H231896   5.064   2.966  14.550 -2.5481  0.1319 -0.1477
 3469TIP3   OH231897   4.449   0.469   3.251 -0.4716 -0.2359  0.0120
 3469TIP3    H131898   4.497   0.550   3.235  1.5736 -0.9502  1.9115
 3469TIP3    H231899   4.475   0.411   3.180  0.5341 -0.1948  0.3283
 3470TIP3   OH231900   6.496   5.595  14.734 -0.2923 -0.6450 -0.1449
 3470TIP3    H131901   6.504   5.570  14.826  0.0228  0.4470  0.1347
 3470TIP3    H231902   6.410   5.563  14.708 -0.8114 -0.0756  0.8160
 3471TIP3   OH231903   6.421   5.745  16.347 -0.1634  0.5467 -0.0669
 3471TIP3    H131904   6.409   5.839  16.364 -1.2332  0.8863 -2.3450
 3471TIP3    H231905   6.434   5.739  16.253  3.0073 -1.3633  0.3753
 3472TIP3   OH231906   4.169   4.136   6.076 -0.1255  0.9557 -0.4362
 3472TIP3    H131907   4.189   4.049   6.112  2.6474  0.1372 -3.4655
 3472TIP3    H231908   4.166   4.193   6.153 -0.7536 -1.5645  1.5565
 3473TIP3   OH231909   5.201   0.864  15.251 -1.1220  1.0544 -0.0249
 3473TIP3    H131910   5.108   0.842  15.247 -1.5540  2.8689 -0.6084
 3473TIP3    H231911   5.205   0.947  15.299  0.2150  0.9418  0.1106
 3474TIP3   OH231912   3.547   6.143   1.914  0.1002 -0.3606 -0.0507
 3474TIP3    H131913   3.570   6.223   1.868  1.8617 -1.2180 -0.7580
 3474TIP3    H231914   3.504   6.088   1.848 -2.2895  0.4143  0.7445
 3475TIP3   OH231915   3.217   6.445  13.074  0.1086 -0.4673  0.1289
 3475TIP3    H131916   3.144   6.505  13.093  1.1163  0.3545  1.6389
 3475TIP3    H231917   3.273   6.494  13.014  1.2570  0.4517  1.8535
 3476TIP3   OH231918   2.899   3.231  13.476 -0.3499  0.0438 -0.2070
 3476TIP3    H131919   2.928   3.146  13.509 -2.2113 -0.9831 -1.1135
 3476TIP3    H231920   2.806   3.236  13.497 -0.3724  1.6966 -0.5223
 3477TIP3   OH231921   5.650   3.223   3.758  0.2903  0.6525  0.5089
 3477TIP3    H131922   5.682   3.275   3.684 -0.8328 -0.7758 -1.0522
 3477TIP3    H231923   5.727   3.176   3.790  0.6568  0.7315 -0.2364
 3478TIP3   OH231924   1.956   4.558  14.018  0.6401 -0.3100 -0.2325
 3478TIP3    H131925   2.019   4.499  13.976 -0.0363 -0.5429 -0.9281
 3478TIP3    H231926   1.872   4.514  14.009 -0.0198  1.1212 -1.4753
 3479TIP3   OH231927   2.745   1.102  17.020  0.4423 -0.1041 -0.0071
 3479TIP3    H131928   2.741   1.044  16.943  1.1596  0.3673 -0.4045
 3479TIP3    H231929   2.746   1.042  17.095  2.4579 -0.6957 -0.4431
 3480TIP3   OH231930   3.644   5.808   4.492  0.4228  0.1704 -0.3323
 3480TIP3    H131931   3.608   5.721   4.509 -0.3234  0.6754  0.7721
 3480TIP3    H231932   3.571   5.868   4.508  1.3079  1.1026  0.3576
 3481TIP3   OH231933   2.948   1.043  16.154  0.0723 -0.1129 -0.3771
 3481TIP3    H131934   2.932   0.987  16.230  2.1246  2.7102  2.3916
 3481TIP3    H231935   2.873   1.102  16.151 -0.5403 -0.9169 -1.2893
 3482TIP3   OH231936   0.461   0.701  12.851 -0.1499  0.3411  0.5255
 3482TIP3    H131937   0.490   0.616  12.884 -0.6555  0.9516  2.6697
 3482TIP3    H231938   0.441   0.752  12.929 -1.4296  1.8929 -0.7391
 3483TIP3   OH231939   2.942   4.617   0.416 -0.1566 -0.2362  0.4684
 3483TIP3    H131940   2.991   4.535   0.422  0.8002  0.3577  0.9663
 3483TIP3    H231941   2.866   4.595   0.362  1.9640 -0.5922 -2.6502
 3484TIP3   OH231942   5.547   6.639  16.805  0.5810 -0.5645  0.1345
 3484TIP3    H131943   5.515   6.568  16.861  0.1955  0.9983  2.0095
 3484TIP3    H231944   5.491   6.714  16.827  0.9082  0.3389 -1.8475
 3485TIP3   OH231945   3.135   2.389   6.013 -0.6162  0.0933 -0.2060
 3485TIP3    H131946   3.071   2.362   6.078 -1.3595 -1.9914 -1.6902
 3485TIP3    H231947   3.193   2.314   6.003 -0.4055  0.4224 -1.7736
 3486TIP3   OH231948   2.169   5.355  15.772  0.6897  0.0391  0.2728
 3486TIP3    H131949   2.088   5.375  15.820  1.0005 -0.3348  0.9710
 3486TIP3    H231950   2.152   5.385  15.683 -1.0001 -1.8980 -0.1352
 3487TIP3   OH231951   2.433   4.323   3.172 -0.3518 -0.1323 -0.5462
 3487TIP3    H131952   2.404   4.356   3.087 -0.9685 -0.7065 -0.5644
 3487TIP3    H231953   2.358   4.276   3.207 -0.7664  1.7446  1.2206
 3488TIP3   OH231954   5.396   1.666  15.808 -0.1421 -0.1081 -0.3330
 3488TIP3    H131955   5.444   1.720  15.870  0.2914 -0.2541 -0.5350
 3488TIP3    H231956   5.416   1.705  15.722  0.4737 -0.8014 -0.5165
 3489TIP3   OH231957   5.622   1.561  11.207  0.2989 -0.7718  0.7206
 3489TIP3    H131958   5.675   1.486  11.235 -2.0531 -2.2363  1.5568
 3489TIP3    H231959   5.590   1.537  11.120  2.4909  0.9902 -0.6789
 3490TIP3   OH231960   3.494   4.404  13.181 -0.2929 -0.0497 -0.0944
 3490TIP3    H131961   3.488   4.385  13.087  3.5979 -0.5579 -0.4199
 3490TIP3    H231962   3.558   4.474  13.187  0.0180 -0.4478  2.2098
 3491TIP3   OH231963   6.344   0.157  16.595  0.0798  0.0084 -0.4899
 3491TIP3    H131964   6.330   0.217  16.668  1.5349 -0.3947  0.1464
 3491TIP3    H231965   6.256   0.143  16.559 -0.4836  1.3005  0.2926
 3492TIP3   OH231966   6.230   1.771   3.952 -1.0494 -0.4218 -0.2738
 3492TIP3    H131967   6.293   1.783   3.881  0.5246 -0.8776  0.9735
 3492TIP3    H231968   6.201   1.681   3.943 -1.9496 -0.0584 -1.1602
 3493TIP3   OH231969   0.895   0.671   5.503 -0.5298  0.1727  0.0738
 3493TIP3    H131970   0.807   0.657   5.467 -0.2922  0.6472 -0.7128
 3493TIP3    H231971   0.934   0.584   5.508 -1.3721 -0.1672  1.3333
 3494TIP3   OH231972   4.241   6.190   3.274 -0.0969  0.0106 -0.5392
 3494TIP3    H131973   4.176   6.254   3.304  0.6086  0.4988 -0.0097
 3494TIP3    H231974   4.215   6.170   3.184 -1.6163 -0.6434  0.0073
 3495TIP3   OH231975   5.934   3.890   4.331  0.2118  0.4960  0.8261
 3495TIP3    H131976   6.028   3.909   4.343  1.1286 -2.2539 -1.0383
 3495TIP3    H231977   5.906   3.949   4.262  0.8451  0.6374  0.6871
 3496TIP3   OH231978   1.765   4.560   3.420  0.2239 -0.1021 -0.0873
 3496TIP3    H131979   1.680   4.527   3.392  0.2857 -0.1558 -0.2120
 3496TIP3    H231980   1.802   4.490   3.474  0.6147 -0.4874 -0.8485
 3497TIP3   OH231981   1.835   3.419   1.962  0.3353 -0.3472  0.0985
 3497TIP3    H131982   1.796   3.341   1.923 -0.5529  1.3625 -2.7002
 3497TIP3    H231983   1.905   3.444   1.902  1.7204  0.1320  1.8206
 3498TIP3   OH231984   0.605   6.031  15.590 -0.3775 -0.7827 -0.4830
 3498TIP3    H131985   0.580   6.034  15.498  1.1265  0.4595 -0.8903
 3498TIP3    H231986   0.595   5.939  15.614 -4.0701 -0.6288 -0.8616
 3499TIP3   OH231987   3.625   5.670   5.359 -0.2904 -0.3793 -0.1192
 3499TIP3    H131988   3.714   5.645   5.383  0.3000  1.4468 -0.2946
 3499TIP3    H231989   3.620   5.654   5.265  0.1978  0.4329 -0.2922
 3500TIP3   OH231990   5.652   6.402   0.551 -0.3837 -0.1907 -0.0768
 3500TIP3    H131991   5.585   6.360   0.497  0.7676  0.9013 -2.5480
 3500TIP3    H231992   5.613   6.485   0.578 -0.5328 -0.1894 -0.2933
 3501TIP3   OH231993   6.715   4.795   2.354 -0.3664  0.5002  0.0713
 3501TIP3    H131994   6.648   4.807   2.287 -0.4188 -0.1453 -0.0065
 3501TIP3    H231995   6.726   4.881   2.395 -0.3373  0.8982 -0.7579
 3502TIP3   OH231996   1.877   4.956  16.644 -0.2056 -0.3999 -0.1539
 3502TIP3    H131997   1.899   4.863  16.653  1.9466  0.0703 -0.1399
 3502TIP3    H231998   1.903   4.995  16.728 -1.6881  0.1330  0.0871
 3503TIP3   OH231999   2.596   4.534   4.406  0.1009  0.3107  0.1265
 3503TIP3    H132000   2.561   4.445   4.403  0.6413  0.1029 -0.1513
 3503TIP3    H232001   2.626   4.552   4.317  1.4672  0.1579  0.5416
 3504TIP3   OH232002   6.521   0.533   2.517 -0.4320  1.1376  0.1027
 3504TIP3    H132003   6.485   0.518   2.604  0.2394 -4.1460 -0.1985
 3504TIP3    H232004   6.609   0.568   2.533  0.1635 -0.8762  1.7601
 3505TIP3   OH232005   2.662   5.542   4.734  0.0628 -0.8448  0.3342
 3505TIP3    H132006   2.719   5.611   4.699 -0.3716 -0.4426  0.4135
 3505TIP3    H232007   2.713   5.462   4.724  1.2611 -0.3009  1.7844
 3506TIP3   OH232008   4.350   0.375  13.770  0.0830 -0.3353 -0.2395
 3506TIP3    H132009   4.367   0.467  13.750  2.0285 -0.4611  0.6005
 3506TIP3    H232010   4.396   0.359  13.852 -0.2675 -2.0507 -0.3320
 3507TIP3   OH232011   6.533   0.249   2.693  0.1695 -0.0094 -0.3516
 3507TIP3    H132012   6.448   0.213   2.719 -0.0703  0.3158 -0.6727
 3507TIP3    H232013   6.590   0.173   2.686 -0.1935 -0.2729 -0.4958
 3508TIP3   OH232014   5.925   6.528  16.357 -0.1209  0.1832 -0.3472
 3508TIP3    H132015   5.965   6.498  16.276  1.7626 -0.8889  0.9246
 3508TIP3    H232016   5.943   6.622  16.359  1.8072 -0.1598 -0.1299
 3509TIP3   OH232017   3.033   6.206  11.300  0.5808  0.5659 -0.0298
 3509TIP3    H132018   2.998   6.277  11.245 -0.1337 -0.7483 -1.3551
 3509TIP3    H232019   3.122   6.235  11.323  0.5076  1.6410 -1.0104
 3510TIP3   OH232020   3.914   0.872   3.555  0.1774  0.2668 -0.2205
 3510TIP3    H132021   3.850   0.905   3.617 -0.8795 -0.5308 -0.8626
 3510TIP3    H232022   3.912   0.777   3.566  0.7624  0.1874 -0.7224
 3511TIP3   OH232023   4.203   2.311  14.227  0.1960 -0.2403  0.6582
 3511TIP3    H132024   4.147   2.271  14.160  0.0966 -0.7164  1.0139
 3511TIP3    H232025   4.199   2.250  14.301 -0.0822  0.5067  1.2787
 3512TIP3   OH232026   5.446   0.361  16.623 -0.1805  0.5490  0.9743
 3512TIP3    H132027   5.428   0.362  16.717  0.7677 -3.0006  1.3247
 3512TIP3    H232028   5.451   0.268  16.600  3.4112  1.1756 -1.7980
 3513TIP3   OH232029   1.441   4.805  16.657 -0.3389 -0.0480 -0.6646
 3513TIP3    H132030   1.473   4.814  16.567  2.4457 -2.4105 -0.0834
 3513TIP3    H232031   1.375   4.736  16.652  0.0500 -0.4121 -0.8728
 3514TIP3   OH232032   1.849   0.989  14.940  0.5263  0.0067 -0.3081
 3514TIP3    H132033   1.859   1.071  14.989 -0.8419  0.3160 -0.4973
 3514TIP3    H232034   1.855   0.921  15.007 -0.7330  0.4016  0.2391
 3515TIP3   OH232035   3.472   6.267  10.989  0.0760  0.0739 -0.0891
 3515TIP3    H132036   3.529   6.326  11.037  0.1548 -0.7258  0.8384
 3515TIP3    H232037   3.384   6.301  11.004  0.2814  1.5852 -1.9092
 3516TIP3   OH232038   1.396   0.087  13.733 -0.5443  0.0526 -0.4221
 3516TIP3    H132039   1.349   0.107  13.813 -1.5109  0.6712 -1.1307
 3516TIP3    H232040   1.475   0.141  13.737 -1.0558  0.8062 -0.3289
 3517TIP3   OH232041   4.271   1.959  17.132  0.1524  0.3215  0.4133
 3517TIP3    H132042   4.248   1.931  17.044  0.5497 -0.0005  0.4129
 3517TIP3    H232043   4.199   1.927  17.187 -0.1846  0.6795  0.1807
 3518TIP3   OH232044   6.371   2.983   1.012  0.0143  0.8004  0.3172
 3518TIP3    H132045   6.307   3.015   1.076 -3.3901 -1.6282 -1.5037
 3518TIP3    H232046   6.365   2.888   1.019  4.6043  0.3598  0.9003
 3519TIP3   OH232047   3.925   6.315   6.636 -0.0732  0.5889 -0.2490
 3519TIP3    H132048   3.834   6.287   6.623 -0.4244  2.0183 -1.1816
 3519TIP3    H232049   3.931   6.398   6.588  1.5673  0.8227  0.3022
 3520TIP3   OH232050   4.472   2.377  12.164 -0.1274  0.4621 -0.2616
 3520TIP3    H132051   4.391   2.425  12.176 -1.1810 -0.8828 -1.6719
 3520TIP3    H232052   4.524   2.431  12.105 -0.0698  1.2083  0.4514
 3521TIP3   OH232053   4.564   2.236  13.129 -0.1231  0.4167 -0.5244
 3521TIP3    H132054   4.646   2.200  13.096 -0.6307 -1.2913 -0.0169
 3521TIP3    H232055   4.500   2.218  13.060 -0.0558  2.0471 -1.0687
 3522TIP3   OH232056   2.068   2.903   4.128 -0.0530  0.0244  0.3015
 3522TIP3    H132057   2.015   2.958   4.070 -0.1307 -0.1924  0.1651
 3522TIP3    H232058   2.050   2.937   4.216  0.1298  0.4069  0.1918
 3523TIP3   OH232059   4.809   4.063   5.636  0.9240  0.2837  0.1581
 3523TIP3    H132060   4.740   4.027   5.580  0.5813 -1.0250  1.3777
 3523TIP3    H232061   4.784   4.038   5.725  2.8134  0.0227  0.6651
 3524TIP3   OH232062   5.527   6.078   5.111 -0.1592  0.3063 -0.0587
 3524TIP3    H132063   5.437   6.110   5.105  0.2139  1.6977  1.2298
 3524TIP3    H232064   5.547   6.047   5.022 -1.6732  0.5853 -0.5262
 3525TIP3   OH232065   0.864   4.431  11.247 -0.2473  0.2651  0.0927
 3525TIP3    H132066   0.805   4.413  11.173 -0.1067  3.0628 -0.8476
 3525TIP3    H232067   0.937   4.479  11.207  1.2997 -0.6802  1.6655
 3526TIP3   OH232068   2.157   4.456  13.582 -0.5367 -0.6838  0.0303
 3526TIP3    H132069   2.132   4.393  13.650  0.7335 -0.4363  0.7490
 3526TIP3    H232070   2.252   4.452  13.579 -0.3450  1.7042  0.6007
 3527TIP3   OH232071   0.676   0.900  10.391 -0.1101 -0.1462 -0.0936
 3527TIP3    H132072   0.651   0.814  10.358 -1.5833  0.0465  0.4591
 3527TIP3    H232073   0.638   0.962  10.328 -0.1300  0.1307  0.1865
 3528TIP3   OH232074   0.967   6.433  15.104 -0.5675  0.0359  0.3422
 3528TIP3    H132075   0.896   6.410  15.044  1.6837 -0.0971 -2.5191
 3528TIP3    H232076   0.983   6.353  15.153 -2.1071 -0.0396  0.7719
 3529TIP3   OH232077   4.541   4.458  12.116 -0.5071 -0.0743 -0.1960
 3529TIP3    H132078   4.587   4.438  12.197 -0.0647 -1.5491 -0.7759
 3529TIP3    H232079   4.492   4.539  12.135  0.8249  0.4871  1.0171
 3530TIP3   OH232080   6.792   3.526   3.628  0.1494 -0.3525  0.3185
 3530TIP3    H132081   6.884   3.528   3.656 -0.3269 -0.6573  2.0449
 3530TIP3    H232082   6.757   3.611   3.657  0.3154  0.6340 -2.1155
 3531TIP3   OH232083   2.791   6.128  11.404  0.0943 -0.3873 -0.0693
 3531TIP3    H132084   2.873   6.147  11.358 -0.1125 -1.7286 -1.0577
 3531TIP3    H232085   2.730   6.195  11.373  1.0396  1.2453  1.4363
 3532TIP3   OH232086   0.814   1.929  12.273  0.4094  0.8920 -0.4714
 3532TIP3    H132087   0.761   1.885  12.206  1.0852  0.0866 -0.5040
 3532TIP3    H232088   0.864   1.995  12.225 -0.0737  1.2115 -0.5434
 3533TIP3   OH232089   1.453   0.214  16.070  0.6642  0.1401 -0.3557
 3533TIP3    H132090   1.399   0.266  16.009  1.4992  1.6575  0.1302
 3533TIP3    H232091   1.410   0.225  16.155 -0.3263 -1.7271 -0.5676
 3534TIP3   OH232092   2.677   3.485   1.754 -0.6339 -0.2944 -0.0282
 3534TIP3    H132093   2.610   3.544   1.787 -0.1434  0.3567 -0.1841
 3534TIP3    H232094   2.758   3.536   1.758  0.1669 -1.5756  1.7332
 3535TIP3   OH232095   3.793   2.669   0.701 -0.1788 -0.4909  0.4299
 3535TIP3    H132096   3.840   2.684   0.783  0.4128  1.3648 -0.2115
 3535TIP3    H232097   3.853   2.698   0.633 -1.5023  0.0901 -0.5292
 3536TIP3   OH232098   3.978   0.927  11.347 -0.0341  0.6837 -0.0798
 3536TIP3    H132099   3.967   0.839  11.310  1.3499  0.1448  0.6998
 3536TIP3    H232100   3.959   0.986  11.274 -0.7955 -0.2565 -0.6682
 3537TIP3   OH232101   6.631   2.625  13.482 -0.2035 -0.4730 -0.0714
 3537TIP3    H132102   6.652   2.708  13.440 -0.6500 -0.4534 -0.2545
 3537TIP3    H232103   6.683   2.626  13.563 -0.0385 -0.1179 -0.1804
 3538TIP3   OH232104   4.338   2.359   4.951  0.2106 -0.5292 -0.2632
 3538TIP3    H132105   4.314   2.291   4.887  1.3307 -0.8076 -0.4180
 3538TIP3    H232106   4.255   2.389   4.986 -0.3989 -0.8432 -1.3790
 3539TIP3   OH232107   1.611   0.555  10.787  0.4797 -0.1800 -0.5152
 3539TIP3    H132108   1.520   0.551  10.760 -0.3090 -0.7602  1.9623
 3539TIP3    H232109   1.610   0.529  10.879  3.0249  0.6937 -0.1523
 3540TIP3   OH232110   0.693   2.729  12.161  1.1658 -0.7546 -0.2201
 3540TIP3    H132111   0.608   2.730  12.204  0.4875  0.2765 -1.4855
 3540TIP3    H232112   0.723   2.638  12.167  0.1338 -1.0558  0.5282
 3541TIP3   OH232113   1.853   3.388   1.459  0.1737 -0.3305  0.2358
 3541TIP3    H132114   1.816   3.458   1.512 -0.5144 -0.9837  0.6374
 3541TIP3    H232115   1.778   3.330   1.440  0.0760  0.5530 -2.5656
 3542TIP3   OH232116   2.823   4.255  12.627  0.2235 -0.5105  0.0582
 3542TIP3    H132117   2.897   4.236  12.569  2.1987  0.4616  2.1234
 3542TIP3    H232118   2.775   4.173  12.631  1.7092 -1.4589 -0.6155
 3543TIP3   OH232119   5.073   4.873  16.536  0.7375 -0.4479 -0.6815
 3543TIP3    H132120   5.121   4.818  16.475  1.8276 -0.2320 -0.0347
 3543TIP3    H232121   5.042   4.813  16.603  0.9964 -0.4368 -0.5500
 3544TIP3   OH232122   6.076   5.825   5.400  0.1552 -0.3959 -0.3560
 3544TIP3    H132123   6.038   5.838   5.488  0.8876 -0.3393 -0.0401
 3544TIP3    H232124   6.118   5.909   5.380  0.7078 -0.6787 -0.3981
 3545TIP3   OH232125   3.202   1.078   4.008 -0.1206 -0.2883 -0.2950
 3545TIP3    H132126   3.156   1.089   3.925 -0.7527 -0.7366 -0.0073
 3545TIP3    H232127   3.136   1.095   4.075 -0.0514 -1.6012  0.1257
 3546TIP3   OH232128   4.482   6.604   1.266 -0.2865  0.2194 -0.7008
 3546TIP3    H132129   4.416   6.673   1.274 -0.9694 -0.4305 -0.6229
 3546TIP3    H232130   4.480   6.559   1.351  0.6014  0.4921 -0.5261
 3547TIP3   OH232131   0.740   1.179  14.315  0.0138 -0.3612  0.0016
 3547TIP3    H132132   0.783   1.094  14.304  1.8372  0.4593  0.5069
 3547TIP3    H232133   0.749   1.198  14.408 -0.2691  0.4439 -0.1333
 3548TIP3   OH232134   0.662   5.613  13.169  0.2677 -0.5705  0.6847
 3548TIP3    H132135   0.716   5.692  13.172 -0.9207  0.2940  0.3478
 3548TIP3    H232136   0.589   5.633  13.228 -1.0013 -0.6577 -0.7937
 3549TIP3   OH232137   5.487   3.689  16.598 -0.2278  0.4733  0.5721
 3549TIP3    H132138   5.396   3.693  16.570 -0.1756 -1.8907 -0.1276
 3549TIP3    H232139   5.497   3.602  16.636  2.4092 -0.5195 -2.0174
 3550TIP3   OH232140   3.540   3.470   0.084 -0.5216 -0.4880 -0.7552
 3550TIP3    H132141   3.465   3.517   0.047 -0.4547  0.2437  0.0041
 3550TIP3    H232142   3.607   3.537   0.096  0.0780 -1.0448 -0.9516
 3551TIP3   OH232143   5.844   5.388  14.269 -0.5279  0.3733  0.2232
 3551TIP3    H132144   5.815   5.310  14.316  1.5998 -0.7322 -0.1706
 3551TIP3    H232145   5.889   5.354  14.192 -0.5069  2.0448 -0.5431
 3552TIP3   OH232146   5.324   4.449   5.496 -0.4401 -0.0966 -0.0717
 3552TIP3    H132147   5.414   4.421   5.514  0.3066  0.3911 -2.6761
 3552TIP3    H232148   5.280   4.370   5.466 -1.3719 -0.6574  2.4840
 3553TIP3   OH232149   5.242   1.871  16.790  0.4466 -0.0997 -0.0807
 3553TIP3    H132150   5.219   1.882  16.698  1.1092  0.2859 -0.2091
 3553TIP3    H232151   5.269   1.958  16.819  0.6338 -0.3009  0.3662
 3554TIP3   OH232152   5.899   2.288   6.308 -0.3045 -0.3667  0.2961
 3554TIP3    H132153   5.862   2.352   6.368  0.1318 -0.1673  0.3551
 3554TIP3    H232154   5.987   2.270   6.342  0.5048  0.8072 -1.0552
 3555TIP3   OH232155   4.585   6.383   3.775  0.1337  0.3339 -0.1628
 3555TIP3    H132156   4.503   6.357   3.734  1.0068 -1.2761 -1.0042
 3555TIP3    H232157   4.614   6.305   3.824  2.1917  0.0417 -1.6789
 3556TIP3   OH232158   6.362   5.983  12.439  0.0449  0.4810  0.5719
 3556TIP3    H132159   6.308   5.992  12.517 -1.4619  0.5804 -0.4366
 3556TIP3    H232160   6.432   6.047  12.450 -1.5631  2.3069  0.7113
 3557TIP3   OH232161   6.397   4.575   1.261 -0.9165  0.1014 -0.4495
 3557TIP3    H132162   6.477   4.542   1.219 -1.0690 -0.8124 -0.0621
 3557TIP3    H232163   6.421   4.660   1.296 -0.1451 -0.1005 -0.4673
 3558TIP3   OH232164   5.832   1.511  12.777  0.6026 -0.6706 -0.1066
 3558TIP3    H132165   5.764   1.571  12.746  1.9350  0.3314 -1.2692
 3558TIP3    H232166   5.883   1.491  12.699  2.3235 -0.4446  0.9024
 3559TIP3   OH232167   2.805   3.891  15.771  0.6726  0.2133 -0.1035
 3559TIP3    H132168   2.819   3.947  15.695 -2.0363  0.8287 -0.2344
 3559TIP3    H232169   2.804   3.952  15.845 -1.7504  0.3719 -0.1903
 3560TIP3   OH232170   3.590   6.614  13.635 -0.0071  0.5414 -0.5835
 3560TIP3    H132171   3.575   6.618  13.729 -0.2938  3.1564 -0.6782
 3560TIP3    H232172   3.522   6.554  13.602 -0.3024  0.1040  0.7774
 3561TIP3   OH232173   2.754   4.276   0.157  0.0945 -0.1011  0.3745
 3561TIP3    H132174   2.706   4.324   0.089  0.0637  0.2568  0.6466
 3561TIP3    H232175   2.824   4.231   0.109 -0.2979 -0.3531  0.0204
 3562TIP3   OH232176   3.555   3.206  14.524 -0.2311 -0.2575  0.2431
 3562TIP3    H132177   3.575   3.229  14.433 -0.2050 -2.3813 -0.3531
 3562TIP3    H232178   3.471   3.248  14.541 -0.2699  0.1226 -0.7876
 3563TIP3   OH232179   6.105   6.283   1.431 -0.2436 -0.2265 -0.0048
 3563TIP3    H132180   6.108   6.269   1.526  1.3640 -0.5376 -0.0720
 3563TIP3    H232181   6.173   6.349   1.415  0.1750 -0.8882 -1.0386
 3564TIP3   OH232182   6.068   2.370  11.509 -0.3623  0.0088  0.0053
 3564TIP3    H132183   6.048   2.316  11.585  0.9423 -0.0373  0.3216
 3564TIP3    H232184   6.026   2.324  11.436  0.8968 -1.5688  0.2279
 3565TIP3   OH232185   3.835   3.932  14.583  0.1854  0.1457 -0.1283
 3565TIP3    H132186   3.894   3.991  14.629 -0.2054  0.5780 -0.1793
 3565TIP3    H232187   3.750   3.976  14.585 -0.5497 -1.2072  1.4170
 3566TIP3   OH232188   1.379   3.724  12.427  0.0033 -0.2276  0.2891
 3566TIP3    H132189   1.303   3.770  12.392 -0.2540  0.0056  1.1329
 3566TIP3    H232190   1.446   3.733  12.359 -0.7166 -0.4396 -0.4676
 3567TIP3   OH232191   0.847   1.688  16.769 -0.2684 -0.0048  0.3625
 3567TIP3    H132192   0.868   1.606  16.815 -1.7935 -0.3836  0.4408
 3567TIP3    H232193   0.892   1.756  16.819  3.0420 -0.9543 -1.0679
 3568TIP3   OH232194   2.957   1.067  11.823  0.4259  0.5127 -0.4722
 3568TIP3    H132195   2.876   1.020  11.842  1.2133 -0.2490  1.1420
 3568TIP3    H232196   2.927   1.149  11.782 -1.1182  0.0041 -0.4415
 3569TIP3   OH232197   6.136   2.002   1.497  0.0939 -0.1603 -0.0358
 3569TIP3    H132198   6.052   2.032   1.462  0.4416  1.0882  0.1444
 3569TIP3    H232199   6.185   2.083   1.513  2.1746 -0.9188 -2.1844
 3570TIP3   OH232200   0.641   2.793  16.058  1.0050  0.0964  0.5716
 3570TIP3    H132201   0.565   2.791  16.116 -0.3326 -1.9363 -1.0890
 3570TIP3    H232202   0.613   2.844  15.982  1.5218 -0.1406  0.2098
 3571TIP3   OH232203   0.234   3.540  14.101 -0.6713  0.7269  1.0166
 3571TIP3    H132204   0.295   3.583  14.160 -0.2810  1.1967  0.2898
 3571TIP3    H232205   0.202   3.610  14.044  0.3180  0.0391 -0.4750
 3572TIP3   OH232206   4.603   3.704  10.574  0.0005 -0.2364  0.4574
 3572TIP3    H132207   4.679   3.647  10.586  1.1889  0.2851 -3.2974
 3572TIP3    H232208   4.533   3.645  10.547  0.2696 -0.3141 -0.0935
 3573TIP3   OH232209   1.392   6.333  11.055 -0.6428 -0.2329 -0.0662
 3573TIP3    H132210   1.471   6.340  11.109 -0.6188  0.5400 -0.1928
 3573TIP3    H232211   1.404   6.396  10.985 -0.8319 -0.9917 -0.7990
 3574TIP3   OH232212   0.485   4.864   6.236 -0.2852 -0.7174  0.1968
 3574TIP3    H132213   0.390   4.869   6.223 -0.4478  1.0406  1.5765
 3574TIP3    H232214   0.495   4.823   6.322  0.0590  1.2025  1.1211
 3575TIP3   OH232215   6.064   3.435   5.808 -0.0356  0.0768  0.2651
 3575TIP3    H132216   5.987   3.492   5.810  0.1290  0.7154 -3.8758
 3575TIP3    H232217   6.040   3.365   5.747  1.9274 -0.8948  0.5321
 3576TIP3   OH232218   4.066   4.060  16.999 -0.2484  0.0135 -0.4725
 3576TIP3    H132219   4.084   4.009  17.078 -1.7672 -1.1062 -0.8080
 3576TIP3    H232220   3.989   4.019  16.961 -0.6406  1.6735 -1.5702
 3577TIP3   OH232221   4.153   4.888   5.466  0.1540  0.7311 -0.5079
 3577TIP3    H132222   4.072   4.842   5.446 -0.1571  0.6016  0.9476
 3577TIP3    H232223   4.125   4.972   5.502  0.6802  0.8703 -0.4143
 3578TIP3   OH232224   4.885   6.735   2.612 -0.2600 -0.1151  0.5423
 3578TIP3    H132225   4.823   6.665   2.593  0.8663 -1.0769  0.2181
 3578TIP3    H232226   4.869   6.801   2.544 -0.1731 -0.8724 -0.2319
 3579TIP3   OH232227   6.380   3.769  13.457 -0.5528  0.0446  0.1328
 3579TIP3    H132228   6.385   3.794  13.365 -0.9631 -1.0836 -0.2124
 3579TIP3    H232229   6.321   3.833  13.497 -0.9043  0.1419 -0.5418
 3580TIP3   OH232230   4.836   4.859   3.940 -0.1414  0.3506 -0.2341
 3580TIP3    H132231   4.829   4.800   4.016 -0.0209  0.2165 -0.3278
 3580TIP3    H232232   4.930   4.872   3.928 -0.1245 -0.2382 -0.8280
 3581TIP3   OH232233   2.840   3.113   3.234 -0.5358  0.1091  0.6898
 3581TIP3    H132234   2.752   3.115   3.197 -0.3417  0.0192  0.2234
 3581TIP3    H232235   2.883   3.040   3.189  0.3004  1.1735 -0.2772
 3582TIP3   OH232236   0.740   6.733  13.217  0.2409  0.6396 -0.3866
 3582TIP3    H132237   0.718   6.746  13.125  0.9205  1.4604 -0.4451
 3582TIP3    H232238   0.673   6.782  13.265  0.8832  1.6763 -0.5125
 3583TIP3   OH232239   2.490   5.503   4.957 -0.2080 -0.3103 -0.6219
 3583TIP3    H132240   2.556   5.546   5.012 -0.7153  0.1555 -0.3649
 3583TIP3    H232241   2.510   5.531   4.868 -1.3248  1.5533 -0.3263
 3584TIP3   OH232242   0.952   2.895   0.187  0.3031  0.9069 -0.1409
 3584TIP3    H132243   1.045   2.878   0.203  0.4460  0.4967 -1.2814
 3584TIP3    H232244   0.943   2.989   0.197  1.3382  1.2816 -2.2393
 3585TIP3   OH232245   6.765   0.068  11.823  0.0779  0.8085 -0.4103
 3585TIP3    H132246   6.811   0.108  11.748  0.7545 -0.2042 -0.5515
 3585TIP3    H232247   6.835   0.030  11.876 -0.4144  1.3485  0.6585
 3586TIP3   OH232248   0.415   2.778   0.893  0.0263  0.3980 -0.3733
 3586TIP3    H132249   0.364   2.718   0.837  0.8746  0.7561 -1.5688
 3586TIP3    H232250   0.476   2.721   0.939 -0.7594  0.0841  0.3180
 3587TIP3   OH232251   1.976   0.239   0.609  0.1424  0.1895  0.0027
 3587TIP3    H132252   2.060   0.239   0.656  0.7255 -2.1793 -0.9241
 3587TIP3    H232253   1.952   0.332   0.604  3.0657  1.0276 -0.3636
 3588TIP3   OH232254   6.556   0.464   0.594  0.1925 -0.0364 -0.5843
 3588TIP3    H132255   6.529   0.384   0.638 -0.3328 -0.6369 -1.9245
 3588TIP3    H232256   6.647   0.477   0.621  0.3190 -1.1520 -0.4292
 3589TIP3   OH232257   4.923   0.824   2.746  0.3688 -0.0881 -0.3080
 3589TIP3    H132258   4.957   0.853   2.831 -1.2921  2.5957 -0.4290
 3589TIP3    H232259   4.839   0.783   2.767  0.7364 -1.0080 -0.5570
 3590TIP3   OH232260   3.287   6.469   5.889  0.4470  1.0782 -0.0135
 3590TIP3    H132261   3.325   6.467   5.977  0.5471  1.4293 -0.0464
 3590TIP3    H232262   3.350   6.519   5.837  0.3464  0.9438 -0.2651
 3591TIP3   OH232263   5.148   5.505   1.516 -0.2028  0.2320 -0.0834
 3591TIP3    H132264   5.097   5.527   1.594  0.4862  0.8446  0.2125
 3591TIP3    H232265   5.143   5.410   1.510 -0.9466  0.2408  0.2325
 3592TIP3   OH232266   2.987   6.484  15.816 -0.3337  0.7291 -0.1490
 3592TIP3    H132267   3.045   6.409  15.806 -0.7135  0.4174 -0.0779
 3592TIP3    H232268   3.044   6.556  15.843  0.0691  0.5282 -0.4578
 3593TIP3   OH232269   5.243   3.769  16.598 -0.0724 -0.0983  0.7737
 3593TIP3    H132270   5.261   3.800  16.509  1.8757  0.5017  1.3088
 3593TIP3    H232271   5.149   3.755  16.600 -0.1641 -0.1855 -1.3943
 3594TIP3   OH232272   0.033   6.099  15.182  0.5011  0.1742  1.0375
 3594TIP3    H132273   0.089   6.039  15.232  0.8217 -0.3619  0.0709
 3594TIP3    H232274  -0.054   6.058  15.185  0.8579 -0.7367 -0.1934
 3595TIP3   OH232275   6.377   5.736  12.721  0.0037 -0.3499 -0.0327
 3595TIP3    H132276   6.294   5.783  12.731  0.3411  0.8617 -2.1872
 3595TIP3    H232277   6.443   5.799  12.750  0.4724  0.7369 -3.0997
 3596TIP3   OH232278   0.071   3.849   3.800 -0.2210  0.2005  0.8068
 3596TIP3    H132279  -0.016   3.814   3.816 -0.5864  1.3989  1.6105
 3596TIP3    H232280   0.059   3.913   3.730  0.3325 -0.7987 -0.2398
 3597TIP3   OH232281   2.756   1.111   4.473  0.6026 -0.3034 -0.3362
 3597TIP3    H132282   2.728   1.186   4.526  3.5041  1.0961 -0.5757
 3597TIP3    H232283   2.716   1.126   4.388  1.8655  1.5860 -0.6697
 3598TIP3   OH232284   3.327   6.723   3.934 -0.0454  0.1179  0.5770
 3598TIP3    H132285   3.404   6.731   3.990  0.0507  3.1722  0.1927
 3598TIP3    H232286   3.360   6.737   3.845 -0.8076 -0.1526  0.2412
 3599TIP3   OH232287   2.078   2.305   3.930  0.2806 -0.5345  0.0363
 3599TIP3    H132288   2.033   2.231   3.889 -0.4853  0.4718 -1.0002
 3599TIP3    H232289   2.032   2.318   4.013  1.1262 -1.8800  0.7586
 3600TIP3   OH232290   4.640   5.538   0.129 -0.7027 -0.8250 -0.5263
 3600TIP3    H132291   4.584   5.615   0.116 -0.8235 -0.8753 -0.3175
 3600TIP3    H232292   4.689   5.529   0.047  1.1783  0.9779  0.3126
 3601TIP3   OH232293   2.216   3.293   1.181 -0.8212  0.2824 -0.4626
 3601TIP3    H132294   2.128   3.269   1.209  0.0321 -1.6005  0.8300
 3601TIP3    H232295   2.243   3.223   1.122  1.4475 -1.8980  2.7732
 3602TIP3   OH232296   0.586   3.739  12.866  0.1704 -0.0758 -0.0763
 3602TIP3    H132297   0.546   3.800  12.805  0.3727 -1.5396 -1.7653
 3602TIP3    H232298   0.657   3.788  12.907 -0.9314  1.3942  0.1261
 3603TIP3   OH232299   6.370   3.087   4.998  0.6133 -0.6721  0.1945
 3603TIP3    H132300   6.409   3.003   4.975  0.2184 -0.6947 -0.4024
 3603TIP3    H232301   6.277   3.076   4.982  0.3061 -0.6947  1.8674
 3604TIP3   OH232302   6.072   1.740  16.308  0.1505 -0.1840 -0.4489
 3604TIP3    H132303   6.054   1.821  16.355  1.3792  0.6210 -1.3142
 3604TIP3    H232304   5.994   1.685  16.323 -1.6255  1.8933 -1.4859
 3605TIP3   OH232305   5.787   0.129   0.476  0.3457 -0.5052 -0.1398
 3605TIP3    H132306   5.718   0.168   0.529  0.3989 -2.7544  1.7848
 3605TIP3    H232307   5.741   0.076   0.411  0.0332 -3.2327  2.0810
 3606TIP3   OH232308   3.111   2.098  11.838  0.0646  0.3085  0.0051
 3606TIP3    H132309   3.193   2.064  11.873 -0.4558 -0.1536  0.8360
 3606TIP3    H232310   3.109   2.068  11.747  0.0239 -1.2018  0.4714
 3607TIP3   OH232311   2.428   6.442   4.037 -0.0269 -0.0977  0.6233
 3607TIP3    H132312   2.368   6.511   4.067 -2.3796 -0.8980 -1.7979
 3607TIP3    H232313   2.472   6.481   3.961 -1.0683 -1.0312 -0.5065
 3608TIP3   OH232314   5.462   3.025  12.563  0.2832  0.4539 -0.8521
 3608TIP3    H132315   5.511   3.106  12.549  0.5205  0.6095  0.7583
 3608TIP3    H232316   5.370   3.052  12.567  0.1865  0.3855 -2.1031
 3609TIP3   OH232317   0.276   6.567   3.552  0.5550  0.2084 -0.1986
 3609TIP3    H132318   0.308   6.640   3.605 -1.0938  0.8337 -0.0318
 3609TIP3    H232319   0.248   6.607   3.470 -1.6262  0.0078  0.3924
 3610TIP3   OH232320   0.742   2.065  14.349 -0.3685 -0.1055 -0.0531
 3610TIP3    H132321   0.738   1.981  14.302  0.6375  0.0234 -0.4004
 3610TIP3    H232322   0.690   2.125  14.295  1.6315  0.3131 -1.6761
 3611TIP3   OH232323   2.720   3.869   1.965 -0.4464 -0.2299 -0.4140
 3611TIP3    H132324   2.636   3.910   1.986  0.0331  0.5220  0.1004
 3611TIP3    H232325   2.778   3.942   1.946 -0.1892 -0.7888 -1.9214
 3612TIP3   OH232326   0.129   1.715  15.164 -0.0677 -0.0735 -0.6055
 3612TIP3    H132327   0.205   1.735  15.109 -0.0390 -2.2605 -1.4687
 3612TIP3    H232328   0.148   1.629  15.202 -2.1280 -0.7549 -0.9442
 3613TIP3   OH232329   1.344   0.111  12.927  0.7091 -0.3285  0.3447
 3613TIP3    H132330   1.298   0.146  13.003  2.0552 -0.0556  1.0655
 3613TIP3    H232331   1.280   0.056  12.882 -0.0170 -0.7335  1.8489
 3614TIP3   OH232332   3.808   1.138   0.891  0.0195 -0.4003  0.5942
 3614TIP3    H132333   3.727   1.088   0.904  0.5585 -1.0242  1.6594
 3614TIP3    H232334   3.845   1.147   0.979  2.5735 -2.5801 -0.1347
 3615TIP3   OH232335   1.328   2.323   4.862  0.0117 -0.3454 -0.4031
 3615TIP3    H132336   1.285   2.293   4.782 -0.2945 -0.9274 -0.0213
 3615TIP3    H232337   1.340   2.244   4.914  0.0210  0.0622  0.2190
 3616TIP3   OH232338   3.234   0.827   2.407  0.2431 -0.6310  0.0780
 3616TIP3    H132339   3.234   0.917   2.440 -0.7156 -0.2004 -1.0194
 3616TIP3    H232340   3.142   0.808   2.389  0.4996 -1.6112 -0.2761
 3617TIP3   OH232341   2.727   3.301  16.511  0.1723 -0.2550 -0.8110
 3617TIP3    H132342   2.818   3.303  16.539  0.1137  0.0992 -0.6460
 3617TIP3    H232343   2.713   3.211  16.481  0.2618 -0.6155  0.1878
 3618TIP3   OH232344   5.066   0.128   2.380  0.5268  0.7009  0.2096
 3618TIP3    H132345   5.092   0.058   2.321 -1.1086  1.0515 -0.9932
 3618TIP3    H232346   5.128   0.199   2.361  0.4166  0.5819 -0.6196
 3619TIP3   OH232347   4.335   0.184   2.117  0.6977 -0.6540  0.3430
 3619TIP3    H132348   4.408   0.236   2.150 -0.1624  0.1944  0.9773
 3619TIP3    H232349   4.370   0.095   2.107  1.9693 -0.1255  0.0193
 3620TIP3   OH232350   2.796   0.542   5.203 -0.0834 -0.0080 -0.0303
 3620TIP3    H132351   2.807   0.592   5.122 -0.0887  0.8054  0.4645
 3620TIP3    H232352   2.770   0.607   5.268 -1.1242 -0.8049  0.3922
 3621TIP3   OH232353   3.253   3.427  12.960 -0.0075 -0.2506  0.6911
 3621TIP3    H132354   3.299   3.404  13.041  0.1943  1.7426  1.1986
 3621TIP3    H232355   3.172   3.376  12.963 -0.2557  0.2055  2.4258
 3622TIP3   OH232356   6.193   5.366  13.096  0.4429 -0.8340 -0.7148
 3622TIP3    H132357   6.227   5.297  13.154  0.5761  0.0448  0.2788
 3622TIP3    H232358   6.271   5.408  13.061  0.3600 -1.1847 -1.3284
 3623TIP3   OH232359   3.093   4.050   6.498  0.5201  0.2541 -0.2975
 3623TIP3    H132360   3.071   4.132   6.456 -0.2292  0.0451 -0.3259
 3623TIP3    H232361   3.017   3.994   6.483  2.2386 -1.6009 -3.1666
 3624TIP3   OH232362   5.459   3.496  12.016  0.2009 -0.0462  0.3294
 3624TIP3    H132363   5.536   3.511  11.962 -0.1260 -1.0997 -0.4579
 3624TIP3    H232364   5.385   3.513  11.959 -0.1718 -2.7337 -0.1204
 3625TIP3   OH232365   6.642   4.299   5.814 -0.3529  0.0596  0.2316
 3625TIP3    H132366   6.672   4.390   5.824 -0.2587  0.0026  0.4533
 3625TIP3    H232367   6.719   4.246   5.835  0.2451 -0.0555 -1.9106
 3626TIP3   OH232368   2.045   0.097  15.109 -0.1882  0.3224  0.1245
 3626TIP3    H132369   2.072   0.113  15.200  1.3692  1.4608 -0.4788
 3626TIP3    H232370   1.962   0.143  15.100 -0.7601 -0.4444  1.1518
 3627TIP3   OH232371   3.974   4.456  11.859  0.1106 -0.0035 -0.1170
 3627TIP3    H132372   3.967   4.537  11.909  0.2981  0.1872 -0.3993
 3627TIP3    H232373   4.026   4.398  11.914  0.5870  0.3142 -0.2243
 3628TIP3   OH232374   2.420   1.413   0.885 -0.0739 -0.1470 -0.4576
 3628TIP3    H132375   2.484   1.385   0.950 -0.5795 -2.0912 -0.7214
 3628TIP3    H232376   2.465   1.478   0.832  1.1436 -0.3162  0.3505
 3629TIP3   OH232377   3.450   5.962  16.083  0.5956 -0.0378 -0.5900
 3629TIP3    H132378   3.497   6.017  16.020  2.5792  1.5142  1.9904
 3629TIP3    H232379   3.506   5.885  16.094  0.6377  0.0416 -0.2242
 3630TIP3   OH232380   2.171   4.292  15.792  0.6985  0.2276 -0.5113
 3630TIP3    H132381   2.151   4.357  15.858  2.6261  0.1928  0.1616
 3630TIP3    H232382   2.244   4.329  15.742  1.5411 -1.1950 -0.3977
 3631TIP3   OH232383   2.078   5.509   4.161  0.4127  0.2695 -0.3233
 3631TIP3    H132384   2.046   5.428   4.200 -0.5284  1.1137  0.7641
 3631TIP3    H232385   2.018   5.576   4.195 -0.2760  1.1339 -3.0262
 3632TIP3   OH232386   3.106   4.663  16.677  0.0310 -0.2930  0.0523
 3632TIP3    H132387   3.042   4.725  16.713  1.1031  1.6488 -1.2258
 3632TIP3    H232388   3.152   4.628  16.753  0.2817  1.5043  0.7627
 3633TIP3   OH232389   1.825   5.037  11.896 -0.2947  0.4156 -0.4124
 3633TIP3    H132390   1.739   5.043  11.938 -0.1962 -1.1124  0.0717
 3633TIP3    H232391   1.806   5.012  11.805 -0.3557  0.0584 -0.3000
 3634TIP3   OH232392   4.677   5.139   6.442  0.0957  0.2262  0.4601
 3634TIP3    H132393   4.769   5.132   6.416  0.3335  0.5873  1.1827
 3634TIP3    H232394   4.661   5.233   6.451 -0.2707  0.1555  0.5773
 3635TIP3   OH232395   0.605   5.379  16.005  0.1769 -0.2689  0.0454
 3635TIP3    H132396   0.593   5.288  16.034 -0.8151  0.3406  1.7024
 3635TIP3    H232397   0.550   5.430  16.064  2.0661  1.6008  0.3227
 3636TIP3   OH232398   1.945   5.022   3.166  0.1054  0.5146  0.1634
 3636TIP3    H132399   1.948   4.958   3.238 -1.6403 -0.8330 -0.8649
 3636TIP3    H232400   2.032   5.018   3.126  0.2264 -0.8059  0.5035
 3637TIP3   OH232401   0.259   2.754   1.785 -0.5787  0.0533  0.1405
 3637TIP3    H132402   0.199   2.807   1.837  0.2226  1.1384  0.0013
 3637TIP3    H232403   0.204   2.687   1.744 -1.5551  0.5597  0.6076
 3638TIP3   OH232404   4.559   5.351  12.089 -0.3354  0.0245 -0.0770
 3638TIP3    H132405   4.632   5.289  12.090 -0.5524 -0.2472 -0.6117
 3638TIP3    H232406   4.600   5.437  12.100 -0.0383 -0.2096  0.7128
 3639TIP3   OH232407   5.188   3.790  14.696  0.1012 -0.2909  0.1708
 3639TIP3    H132408   5.102   3.755  14.672  0.4559 -2.7286  1.9808
 3639TIP3    H232409   5.172   3.841  14.775  0.1682  0.2310 -0.1499
 3640TIP3   OH232410   0.816   3.190   3.068 -0.0140  0.0836  0.0783
 3640TIP3    H132411   0.863   3.164   3.147 -1.0271  0.5481  0.8571
 3640TIP3    H232412   0.784   3.108   3.031  1.4332 -0.2469 -0.5052
 3641TIP3   OH232413   0.598   2.690  14.992 -0.1734 -0.1169 -0.4854
 3641TIP3    H132414   0.686   2.662  14.965 -0.7500 -0.6177 -1.9583
 3641TIP3    H232415   0.606   2.708  15.085  1.9012  1.3759 -0.8723
 3642TIP3   OH232416   3.683   4.660  15.730  0.1671 -0.2142  0.4383
 3642TIP3    H132417   3.595   4.696  15.738  0.9112  1.9640 -0.4885
 3642TIP3    H232418   3.672   4.579  15.680 -1.2484  0.2392 -0.0203
 3643TIP3   OH232419   5.308   3.981  16.782  0.4832 -0.6531 -0.3574
 3643TIP3    H132420   5.300   3.901  16.731  2.1526 -0.9841 -0.1828
 3643TIP3    H232421   5.306   3.952  16.874 -0.9410 -0.2398 -0.2317
 3644TIP3   OH232422   4.903   6.112  16.412  0.5606  0.4900 -0.4126
 3644TIP3    H132423   4.966   6.175  16.377  0.3453  0.0634 -1.6078
 3644TIP3    H232424   4.818   6.156  16.405  0.6110  0.7644  0.4818
 3645TIP3   OH232425   6.401   0.847   4.930  0.1057  0.5018 -0.5665
 3645TIP3    H132426   6.494   0.869   4.925  0.4942 -0.6367  0.7942
 3645TIP3    H232427   6.373   0.881   5.015 -0.9827  1.6618 -1.3616
 3646TIP3   OH232428   0.799   0.860   1.696  0.4959  0.1930 -0.0258
 3646TIP3    H132429   0.730   0.816   1.646  1.3469  0.4454 -1.4627
 3646TIP3    H232430   0.751   0.913   1.761 -0.6048 -0.7355 -0.0437
 3647TIP3   OH232431   5.509   3.207   2.310 -0.0228 -0.5276  0.2453
 3647TIP3    H132432   5.548   3.139   2.364  0.5263  1.3612  2.3651
 3647TIP3    H232433   5.429   3.232   2.356  0.8152  1.6150  0.6581
 3648TIP3   OH232434   0.028   1.805   2.263  0.2212  0.4842  0.1533
 3648TIP3    H132435  -0.060   1.843   2.254 -0.5401 -0.8576  1.4314
 3648TIP3    H232436   0.046   1.810   2.357  1.3477  0.3397 -0.0448
 3649TIP3   OH232437   6.259   0.100  14.875  0.1423  0.2934 -0.1255
 3649TIP3    H132438   6.187   0.152  14.909  0.2217  1.0121 -0.9953
 3649TIP3    H232439   6.232   0.076  14.786  1.8525  2.5050 -1.3454
 3650TIP3   OH232440   1.237   2.797  16.701  0.0217 -0.9638  0.1733
 3650TIP3    H132441   1.176   2.845  16.644  0.9611  0.0334 -0.0394
 3650TIP3    H232442   1.209   2.706  16.694 -2.1753 -0.4182  1.0249
 3651TIP3   OH232443   3.648   1.480   4.141  0.1556 -0.1748  0.1243
 3651TIP3    H132444   3.672   1.400   4.094  1.0506 -1.3622  2.4722
 3651TIP3    H232445   3.716   1.492   4.206 -0.3125  2.1728  0.2975
 3652TIP3   OH232446   1.721   3.504  16.501 -0.3145  0.1283 -0.5943
 3652TIP3    H132447   1.759   3.468  16.420  0.4362  1.5519 -0.9181
 3652TIP3    H232448   1.635   3.536  16.475 -0.6712 -0.7128 -0.4784
 3653TIP3   OH232449   2.308   6.798   0.777  0.6218 -0.3012  0.6683
 3653TIP3    H132450   2.234   6.741   0.799  1.9721 -3.2848 -1.6280
 3653TIP3    H232451   2.385   6.745   0.797  2.0848  1.6774  0.5602
 3654TIP3   OH232452   0.036   1.082  10.142  0.3272  0.4041  0.3948
 3654TIP3    H132453   0.092   1.108  10.215  0.3188  2.0568 -0.1637
 3654TIP3    H232454  -0.053   1.099  10.174  0.0305 -2.5045  1.4016
 3655TIP3   OH232455   6.681   3.311   1.343  0.4014  0.5568 -0.0835
 3655TIP3    H132456   6.766   3.350   1.361  0.5437 -0.5165  1.8609
 3655TIP3    H232457   6.701   3.228   1.301  0.4498 -0.4276  1.7809
 3656TIP3   OH232458   0.246   5.887   1.285 -0.8940  0.3255  0.4733
 3656TIP3    H132459   0.198   5.884   1.368  0.2642  1.7766  1.2521
 3656TIP3    H232460   0.201   5.954   1.233 -0.6309  0.6163  0.6131
 3657TIP3   OH232461   3.326   0.405   1.219  0.0129 -0.1169 -0.2082
 3657TIP3    H132462   3.283   0.332   1.175  0.9891  0.0586 -1.5094
 3657TIP3    H232463   3.390   0.364   1.278 -0.5008 -0.3225  0.2214
 3658TIP3   OH232464   4.079   1.503   0.306  0.5268 -0.1649  0.1528
 3658TIP3    H132465   4.041   1.416   0.298 -0.0755  0.0962  0.0877
 3658TIP3    H232466   4.146   1.508   0.238  1.1424 -0.8616  0.6898
 3659TIP3   OH232467   4.738   2.616   1.035 -0.1146 -0.0989 -0.2086
 3659TIP3    H132468   4.729   2.542   1.095 -2.3213 -0.3199 -0.7585
 3659TIP3    H232469   4.662   2.671   1.053 -0.0834  0.5319 -1.8512
 3660TIP3   OH232470   0.288   4.963  10.859 -0.3470 -0.8303 -0.1325
 3660TIP3    H132471   0.215   4.901  10.856 -1.0458 -0.4509  3.5528
 3660TIP3    H232472   0.246   5.048  10.866  0.5457 -0.2932 -1.1025
 3661TIP3   OH232473   4.427   4.337  14.667 -0.7379  0.1608 -0.0990
 3661TIP3    H132474   4.515   4.358  14.698 -0.4141  0.1409 -0.9749
 3661TIP3    H232475   4.383   4.298  14.743 -0.0676  0.3763  0.4056
 3662TIP3   OH232476   4.288   4.498  14.462  0.3913  0.0795  0.0844
 3662TIP3    H132477   4.340   4.443  14.521  2.0403  0.0075 -1.3393
 3662TIP3    H232478   4.216   4.442  14.434  0.0884 -0.1728  1.3249
 3663TIP3   OH232479   3.708   6.594  11.429 -0.0874  0.2424  0.6269
 3663TIP3    H132480   3.768   6.538  11.379 -0.9787  1.2801 -1.7904
 3663TIP3    H232481   3.708   6.677  11.380 -2.3844  0.7370  1.3865
 3664TIP3   OH232482   2.079   2.297   5.766  0.2383 -0.1281  0.2383
 3664TIP3    H132483   2.001   2.279   5.714 -0.8898 -0.1474  1.8610
 3664TIP3    H232484   2.137   2.222   5.749 -0.7077 -0.8516  0.1476
 3665TIP3   OH232485   1.111   0.276  13.148 -0.1129  0.3487  0.6839
 3665TIP3    H132486   1.176   0.250  13.213 -0.7263 -0.0097  1.1661
 3665TIP3    H232487   1.029   0.242  13.182 -0.6065  1.0831  0.2402
 3666TIP3   OH232488   3.867   2.042   0.635 -0.1009 -0.2632  0.5686
 3666TIP3    H132489   3.772   2.031   0.629  0.0422 -0.9411 -0.5772
 3666TIP3    H232490   3.878   2.126   0.681 -1.3003  1.8388 -2.6357
 3667TIP3   OH232491   4.092   3.218   5.482  0.0598 -0.1299  0.1903
 3667TIP3    H132492   4.109   3.185   5.570  1.3182 -0.5965 -0.2067
 3667TIP3    H232493   4.178   3.232   5.444 -0.4269  1.9566 -0.3045
 3668TIP3   OH232494   3.356   3.178   5.464  0.0486  0.5136  0.1835
 3668TIP3    H132495   3.356   3.212   5.553  1.1008  2.8644 -0.6184
 3668TIP3    H232496   3.266   3.185   5.435 -0.0151  1.2470  0.5470
 3669TIP3   OH232497   0.603   4.976   4.556  0.5706 -0.8412  0.6179
 3669TIP3    H132498   0.645   4.910   4.611  1.2232  0.3322  1.5722
 3669TIP3    H232499   0.592   5.052   4.613 -0.3913 -0.2001 -0.3822
 3670TIP3   OH232500   1.562   1.356  11.177  0.1589 -0.0552 -0.1218
 3670TIP3    H132501   1.601   1.328  11.095 -1.8606  1.1317 -1.5729
 3670TIP3    H232502   1.502   1.285  11.200  0.1779 -0.0525 -0.0634
 3671TIP3   OH232503   3.216   3.424   0.852  0.0573 -0.2155 -0.8500
 3671TIP3    H132504   3.157   3.362   0.895 -0.6168  2.0871  1.7677
 3671TIP3    H232505   3.161   3.470   0.789 -0.6612  0.8680  0.5111
 3672TIP3   OH232506   3.134   5.368  13.705  0.3043  0.0212  0.4501
 3672TIP3    H132507   3.193   5.437  13.675  0.4940  0.3491  1.5363
 3672TIP3    H232508   3.130   5.379  13.800 -0.1074 -1.1145  0.5863
 3673TIP3   OH232509   0.943   4.697   3.917  1.1150  0.1989  0.3523
 3673TIP3    H132510   0.873   4.665   3.860  0.9968 -0.0936  0.6598
 3673TIP3    H232511   1.023   4.685   3.866  1.6319 -4.2135  1.8125
 3674TIP3   OH232512   0.811   4.498  13.990  0.1391 -0.3709  0.2643
 3674TIP3    H132513   0.849   4.570  14.040  3.2041 -0.3392 -1.8429
 3674TIP3    H232514   0.858   4.420  14.020 -1.4470 -1.1634  0.8107
 3675TIP3   OH232515   5.120   3.926   3.297  0.5499  0.2332 -0.0973
 3675TIP3    H132516   5.096   3.988   3.366 -1.7374 -1.6710  0.9599
 3675TIP3    H232517   5.128   3.842   3.342  1.7003 -0.6141 -1.7770
 3676TIP3   OH232518   4.432   2.396  17.271  0.8166  0.0482 -0.0669
 3676TIP3    H132519   4.463   2.484  17.251 -0.9714  0.8569  0.5130
 3676TIP3    H232520   4.429   2.351  17.187  0.1870  1.0796 -0.6080
 3677TIP3   OH232521   1.136   5.484   2.274  0.5114  0.9570 -0.3342
 3677TIP3    H132522   1.084   5.550   2.226 -0.5658  0.4615  0.1266
 3677TIP3    H232523   1.138   5.517   2.364 -2.6942 -1.0768  0.6472
 3678TIP3   OH232524   0.602   1.978  16.960  0.5563 -0.0034 -0.1485
 3678TIP3    H132525   0.665   1.911  16.985  1.6483  0.6716 -0.9912
 3678TIP3    H232526   0.546   1.937  16.895  0.7548 -0.3133 -0.1231
 3679TIP3   OH232527   0.629   6.232   6.219  0.1006  0.5373 -0.0145
 3679TIP3    H132528   0.619   6.138   6.204 -1.5252  0.9603 -1.9273
 3679TIP3    H232529   0.576   6.249   6.297  1.1125 -0.2318  0.8724
 3680TIP3   OH232530   6.605   3.670  12.795  0.1718 -0.1754 -0.2668
 3680TIP3    H132531   6.584   3.755  12.834 -1.4408 -0.7738  0.2467
 3680TIP3    H232532   6.626   3.614  12.869 -0.8784 -0.7736 -0.3988
 3681TIP3   OH232533   3.392   3.267   3.742  0.3720  0.3719  0.0877
 3681TIP3    H132534   3.355   3.328   3.679  0.6830  0.0608 -0.3957
 3681TIP3    H232535   3.352   3.293   3.826  0.2142  0.9931 -0.1712
 3682TIP3   OH232536   1.776   4.575   5.285  0.5510  0.3203 -0.2772
 3682TIP3    H132537   1.831   4.496   5.284  1.2407  0.7408  1.4305
 3682TIP3    H232538   1.687   4.542   5.274  0.7239 -0.8405  1.4106
 3683TIP3   OH232539   4.246   6.340   2.388  0.3588 -0.2171 -0.2791
 3683TIP3    H132540   4.222   6.305   2.474  1.2120  1.4017  0.6676
 3683TIP3    H232541   4.304   6.414   2.408  1.1643 -0.2516 -2.2777
 3684TIP3   OH232542   5.279   1.826   3.409 -0.0888  0.2716 -0.2346
 3684TIP3    H132543   5.345   1.758   3.413  0.0080  0.4353  2.9281
 3684TIP3    H232544   5.202   1.783   3.370  0.1109 -1.5459  1.2810
 3685TIP3   OH232545   5.530   2.334   0.268  0.3385 -0.2005  0.5424
 3685TIP3    H132546   5.574   2.418   0.281  1.1730 -0.2199 -1.7674
 3685TIP3    H232547   5.600   2.269   0.279  0.7206 -0.2992 -1.8748
 3686TIP3   OH232548   4.723   1.037  17.270  0.3870  0.2514 -0.2109
 3686TIP3    H132549   4.814   1.061  17.287 -0.1170  3.1860 -1.0479
 3686TIP3    H232550   4.719   1.026  17.175  0.4307 -3.0165  0.0509
 3687TIP3   OH232551   2.864   5.384   5.150 -0.0386  0.0953 -0.0854
 3687TIP3    H132552   2.804   5.451   5.181  0.2532  0.2438  0.1659
 3687TIP3    H232553   2.836   5.304   5.195 -2.5702 -0.7895 -2.9167
 3688TIP3   OH232554   4.277   6.349  16.689 -0.0803 -0.4764  0.2198
 3688TIP3    H132555   4.266   6.403  16.767  1.4646 -1.0224  0.8470
 3688TIP3    H232556   4.188   6.335  16.657 -0.5757  1.7827  0.4649
 3689TIP3   OH232557   6.062   1.977  15.953  0.6937  0.3844  0.1505
 3689TIP3    H132558   6.093   1.887  15.947  0.5813  0.4051 -0.9580
 3689TIP3    H232559   6.135   2.030  15.920  0.2545  0.5911 -0.4964
 3690TIP3   OH232560   5.449   3.553  17.178  0.2664  0.0169 -0.2668
 3690TIP3    H132561   5.437   3.566  17.084 -0.6090 -1.0995 -0.3282
 3690TIP3    H232562   5.380   3.492  17.204 -0.7576  1.7844  1.4963
 3691TIP3   OH232563   3.355   0.019  15.920 -0.5811  0.8662 -0.0691
 3691TIP3    H132564   3.447   0.002  15.939 -0.7291  0.6652  0.4752
 3691TIP3    H232565   3.334   0.097  15.972 -0.9885  0.3128  0.6103
 3692TIP3   OH232566   4.961   2.989   3.886 -0.9108 -0.1588  0.2601
 3692TIP3    H132567   5.023   2.927   3.926  0.2558  0.5487 -0.3924
 3692TIP3    H232568   5.006   3.073   3.889 -1.5649  0.2503 -0.8342
 3693TIP3   OH232569   3.504   6.727   2.856 -0.1351 -0.7382  0.1908
 3693TIP3    H132570   3.552   6.683   2.786  0.6374  0.9943 -0.4435
 3693TIP3    H232571   3.572   6.760   2.914 -0.7079 -0.8106  0.9176
 3694TIP3   OH232572   5.594   4.347   5.532  0.2458 -0.2076  0.3086
 3694TIP3    H132573   5.647   4.427   5.539 -1.7834  1.4815 -2.1004
 3694TIP3    H232574   5.609   4.317   5.443  1.2796 -2.8810  1.2774
 3695TIP3   OH232575   1.131   0.766  17.035  0.2668 -0.1799  0.1279
 3695TIP3    H132576   1.133   0.732  16.946  1.6023 -1.2737  0.5516
 3695TIP3    H232577   1.162   0.857  17.027  1.5025 -0.6303 -0.3876
 3696TIP3   OH232578   2.812   6.773   5.292 -0.0333 -0.2974 -0.6673
 3696TIP3    H132579   2.749   6.742   5.228  0.1701 -1.8131 -0.1817
 3696TIP3    H232580   2.806   6.710   5.364  2.1453 -0.6191 -0.6887
 3697TIP3   OH232581   1.020   0.012   6.123  0.0652 -0.1859  0.2410
 3697TIP3    H132582   0.961   0.068   6.173  0.4983 -0.8662  1.5613
 3697TIP3    H232583   1.107   0.034   6.155  0.3879 -0.4652 -0.4081
 3698TIP3   OH232584   2.440   5.663  11.741 -0.2739 -0.2793  0.1153
 3698TIP3    H132585   2.352   5.626  11.737  0.0678 -1.1218 -3.5231
 3698TIP3    H232586   2.495   5.592  11.774 -0.4945 -1.0005 -1.0217
 3699TIP3   OH232587   3.163   0.073   2.987  0.3043 -0.0091  0.3603
 3699TIP3    H132588   3.082   0.070   3.039 -0.0275 -0.7483 -0.1794
 3699TIP3    H232589   3.230   0.099   3.050  0.3356 -3.0608  1.7684
 3700TIP3   OH232590   3.541   1.034   5.702  0.6672  0.8516 -0.1306
 3700TIP3    H132591   3.602   0.971   5.664  0.3336  1.1192 -1.1381
 3700TIP3    H232592   3.558   1.030   5.796  0.4395 -0.9803 -0.1278
 3701TIP3   OH232593   2.674   2.249   0.746 -0.2676 -1.0148 -0.1875
 3701TIP3    H132594   2.593   2.253   0.696 -0.0623  0.7309 -0.4527
 3701TIP3    H232595   2.701   2.158   0.742 -1.2788 -1.2742 -1.6018
 3702TIP3   OH232596   5.618   1.603  17.060 -0.2000 -0.2364 -0.2376
 3702TIP3    H132597   5.708   1.600  17.094  0.2950 -0.3948 -1.5149
 3702TIP3    H232598   5.626   1.575  16.969 -1.5645 -0.3138 -0.3486
 3703TIP3   OH232599   0.646   1.886  12.507 -0.4086  0.1537 -0.3598
 3703TIP3    H132600   0.699   1.888  12.427  2.1898  1.2428  1.2618
 3703TIP3    H232601   0.637   1.978  12.533  2.6523 -0.2112  2.8071
 3704TIP3   OH232602   3.923   2.397   3.463 -0.4372  0.2943  0.0102
 3704TIP3    H132603   3.992   2.340   3.495  0.6153  1.0438 -0.8796
 3704TIP3    H232604   3.928   2.475   3.518 -1.6324 -0.2617  0.9786
 3705TIP3   OH232605   2.759   2.017  17.285 -0.3689 -0.0918 -0.3050
 3705TIP3    H132606   2.683   2.068  17.313 -0.9125 -0.1803 -1.5748
 3705TIP3    H232607   2.748   1.932  17.328 -0.7150  0.0609 -0.0840
 3706TIP3   OH232608   4.766   5.928   1.121  0.2685  0.0362 -0.4292
 3706TIP3    H132609   4.710   5.999   1.153 -0.3652  0.2897 -1.9707
 3706TIP3    H232610   4.838   5.973   1.076  1.0546 -0.2986  0.4750
 3707TIP3   OH232611   2.665   6.556  13.426 -0.0741  0.0891  0.1725
 3707TIP3    H132612   2.640   6.480  13.479  1.0826 -1.7318 -1.7691
 3707TIP3    H232613   2.622   6.541  13.342  0.7239  1.2433 -0.4546
 3708TIP3   OH232614   3.099   3.154  10.923  0.3657  0.0054  0.4894
 3708TIP3    H132615   3.156   3.078  10.910  0.2557 -0.2789  1.5776
 3708TIP3    H232616   3.123   3.187  11.009 -1.2315 -0.2347  1.0596
 3709TIP3   OH232617   0.969   3.283   1.090  0.4052  0.2908 -0.6890
 3709TIP3    H132618   0.953   3.375   1.069 -0.0578  0.6014  0.9312
 3709TIP3    H232619   0.882   3.243   1.089  0.2608  0.4816  1.2847
 3710TIP3   OH232620   6.287   3.399  12.927 -0.3576  0.2420 -0.0890
 3710TIP3    H132621   6.274   3.420  12.834  0.4733 -1.2201 -0.5672
 3710TIP3    H232622   6.337   3.473  12.961  1.3095 -0.2184 -1.3847
 3711TIP3   OH232623   5.538   1.704   4.816 -0.2948 -0.3661  0.6697
 3711TIP3    H132624   5.545   1.692   4.721  2.4012 -2.5082  0.9829
 3711TIP3    H232625   5.446   1.722   4.832 -0.7536  0.5171 -2.3797
 3712TIP3   OH232626   3.812   6.060   5.702  0.2268  0.3072 -0.0021
 3712TIP3    H132627   3.726   6.100   5.709  0.4770  0.8283  0.1561
 3712TIP3    H232628   3.796   5.975   5.662 -0.3760  0.3429  0.1619
 3713TIP3   OH232629   4.588   3.924   5.540  0.0532  0.1406  0.0268
 3713TIP3    H132630   4.504   3.962   5.514 -0.6853 -1.3053  0.1932
 3713TIP3    H232631   4.569   3.832   5.558  1.9630 -0.6058 -1.3682
 3714TIP3   OH232632   1.765   4.013  10.823  0.4667 -0.2776 -0.2123
 3714TIP3    H132633   1.839   4.001  10.764 -0.2871 -1.5359 -0.9582
 3714TIP3    H232634   1.804   4.021  10.909  1.6319  2.0482 -0.8686
 3715TIP3   OH232635   6.728   3.202   6.080  0.1300  0.3054  0.2703
 3715TIP3    H132636   6.768   3.199   6.167 -0.1164 -1.6416  0.3678
 3715TIP3    H232637   6.782   3.144   6.026 -1.0083 -0.3010 -0.2601
 3716TIP3   OH232638   4.197   6.290  15.485  0.0924 -0.2704 -0.0302
 3716TIP3    H132639   4.203   6.372  15.535 -0.6989 -0.7427  0.8746
 3716TIP3    H232640   4.243   6.226  15.539  2.2116 -0.1023 -1.5378
 3717TIP3   OH232641   1.325   0.587   4.129 -0.4427  0.6660  0.6377
 3717TIP3    H132642   1.288   0.670   4.158 -2.0724 -0.4323  1.8743
 3717TIP3    H232643   1.250   0.529   4.118  0.5745 -0.4464 -1.0295
 3718TIP3   OH232644   0.710   0.976  14.745 -0.4681 -0.3750 -0.6581
 3718TIP3    H132645   0.766   0.903  14.720 -0.6927 -0.2715 -1.4805
 3718TIP3    H232646   0.636   0.973  14.684 -1.8118 -0.9961  0.9094
 3719TIP3   OH232647   4.855   1.339  15.998 -0.3403 -0.7303 -0.2505
 3719TIP3    H132648   4.919   1.356  15.929 -1.3126 -3.4080 -1.9432
 3719TIP3    H232649   4.771   1.364  15.959 -0.6772  0.0986  0.9345
 3720TIP3   OH232650   5.502   3.978  16.149  0.0494 -0.0785 -0.4087
 3720TIP3    H132651   5.530   4.060  16.109 -1.9738  1.0365  0.3390
 3720TIP3    H232652   5.562   3.966  16.223  0.9518  0.1972 -1.0776
 3721TIP3   OH232653   2.197   3.983  15.380  0.0319 -0.0889 -0.1294
 3721TIP3    H132654   2.209   3.913  15.316 -0.5426 -1.2283  0.9539
 3721TIP3    H232655   2.103   3.984  15.396  0.1189  0.4829  0.3545
 3722TIP3   OH232656   6.450   4.440   3.430 -0.3678  0.4890  0.6331
 3722TIP3    H132657   6.359   4.457   3.454 -0.9912  0.1105 -1.2747
 3722TIP3    H232658   6.495   4.426   3.514 -1.8564  1.5474  1.6643
 3723TIP3   OH232659   5.097   3.060  15.115  0.5777  0.1749 -0.3770
 3723TIP3    H132660   5.061   3.113  15.186 -1.1107 -0.5849 -0.6107
 3723TIP3    H232661   5.079   2.970  15.140 -0.8109 -0.0908 -2.0809
 3724TIP3   OH232662   0.135   3.166  13.329  0.2764 -0.2128 -0.4394
 3724TIP3    H132663   0.179   3.220  13.264 -2.3254  1.2347 -1.1333
 3724TIP3    H232664   0.083   3.105  13.278 -2.1165  1.2062  0.1673
 3725TIP3   OH232665   0.134   5.030   2.468 -0.1717 -0.0734 -0.6288
 3725TIP3    H132666   0.188   5.102   2.438 -2.3448  1.2710 -1.5943
 3725TIP3    H232667   0.072   5.070   2.529 -1.5535 -1.0355 -1.3349
 3726TIP3   OH232668   1.861   2.182   5.668  0.6015 -0.0421 -0.3386
 3726TIP3    H132669   1.850   2.129   5.747 -0.6625 -2.1336 -1.8553
 3726TIP3    H232670   1.775   2.222   5.653  1.2784  1.7571  0.2264
 3727TIP3   OH232671   6.316   5.164  13.232 -0.3706 -0.7550  0.1233
 3727TIP3    H132672   6.360   5.101  13.176 -1.9290 -0.1045 -1.9926
 3727TIP3    H232673   6.295   5.116  13.312 -0.1019 -2.4433 -0.7781
 3728TIP3   OH232674   3.363   6.179   2.121 -0.0978 -0.3542  0.2466
 3728TIP3    H132675   3.429   6.168   2.052 -1.1186 -1.0656 -0.6583
 3728TIP3    H232676   3.282   6.198   2.074 -0.5983  0.2728  1.3267
 3729TIP3   OH232677   4.600   4.800  15.783  0.1387  0.4005  0.2577
 3729TIP3    H132678   4.552   4.879  15.758 -0.4201 -0.1061 -0.3098
 3729TIP3    H232679   4.655   4.781  15.707 -1.0678 -0.7627 -0.3760
 3730TIP3   OH232680   6.117   3.178   1.969 -0.1861  0.0659  0.2598
 3730TIP3    H132681   6.083   3.109   2.026 -0.0575  1.4670  2.1149
 3730TIP3    H232682   6.208   3.151   1.952 -0.5586 -0.9321 -0.2551
 3731TIP3   OH232683   0.305   5.642  15.186 -0.1328  0.0113  0.3690
 3731TIP3    H132684   0.363   5.632  15.110 -0.4895 -0.2288  0.1244
 3731TIP3    H232685   0.357   5.691  15.249 -0.3226  1.4541 -0.5593
 3732TIP3   OH232686   5.979   2.730  15.561  0.3442  0.2002 -0.0019
 3732TIP3    H132687   5.975   2.824  15.575 -0.9459  0.3103 -0.8906
 3732TIP3    H232688   6.041   2.719  15.489  1.2916  0.2550  0.7794
 3733TIP3   OH232689   1.090   0.747  10.844 -0.0855  0.2581 -0.6754
 3733TIP3    H132690   0.995   0.761  10.850 -0.0121  0.4771  0.0313
 3733TIP3    H232691   1.104   0.718  10.754 -0.7103  1.0965 -1.0575
 3734TIP3   OH232692   6.076   1.400   5.749  0.3523 -0.0692  0.6015
 3734TIP3    H132693   6.138   1.473   5.741 -0.5652  0.7090  0.4267
 3734TIP3    H232694   5.997   1.439   5.785 -1.1935 -0.3305 -2.2196
 3735TIP3   OH232695   3.960   6.159   4.491  0.0998 -0.3273  0.1763
 3735TIP3    H132696   3.953   6.136   4.398 -0.1281  1.2003 -0.2139
 3735TIP3    H232697   3.894   6.106   4.534 -1.3612  0.5521 -0.8767
 3736TIP3   OH232698   6.602   4.879  14.546  0.1395  0.1790  0.0619
 3736TIP3    H132699   6.584   4.958  14.597  2.6816  1.1081 -0.3002
 3736TIP3    H232700   6.589   4.906  14.455  0.5925  0.0709 -0.0388
 3737TIP3   OH232701   3.492   6.387  14.228 -0.2029  0.3724 -0.8425
 3737TIP3    H132702   3.488   6.350  14.316 -2.3161  4.6038  1.1132
 3737TIP3    H232703   3.574   6.436  14.226 -0.3194  0.5565 -1.1494
 3738TIP3   OH232704   3.520   1.677   4.814  0.4334 -0.0732 -0.1029
 3738TIP3    H132705   3.587   1.629   4.862 -1.2206 -3.0250 -0.5322
 3738TIP3    H232706   3.438   1.633   4.835 -0.8744  0.9536 -2.6091
 3739TIP3   OH232707   0.993   1.477   0.067 -0.9920  0.0937  0.6221
 3739TIP3    H132708   0.980   1.506   0.157  2.5435 -0.0167  1.3082
 3739TIP3    H232709   1.038   1.393   0.075  0.7754  0.7932 -1.1931
 3740TIP3   OH232710   4.912   6.486  12.273 -0.0493  0.2724  0.0294
 3740TIP3    H132711   4.880   6.566  12.231 -0.1246 -0.2891 -1.0423
 3740TIP3    H232712   4.963   6.443  12.205  0.1369 -0.5039  0.6511
 3741TIP3   OH232713   3.115   6.644   4.645 -0.1205  0.3102 -0.4034
 3741TIP3    H132714   3.082   6.734   4.653  2.0426  1.1673 -0.3636
 3741TIP3    H232715   3.160   6.642   4.561  0.4110 -0.5311 -0.1110
 3742TIP3   OH232716   5.258   6.151  17.242 -1.0477  0.0384  0.1719
 3742TIP3    H132717   5.309   6.078  17.208 -2.1959 -0.7390  0.0793
 3742TIP3    H232718   5.167   6.123  17.233 -1.4849  1.2426  0.6807
 3743TIP3   OH232719   2.945   5.175   6.170  0.2626 -0.3878  0.2658
 3743TIP3    H132720   2.888   5.102   6.196 -0.7282 -0.1626 -1.1666
 3743TIP3    H232721   2.896   5.253   6.196 -0.1209 -0.1932 -0.9585
 3744TIP3   OH232722   2.728   6.430   3.099 -0.0979 -0.1896 -0.4145
 3744TIP3    H132723   2.803   6.456   3.046  1.6990 -4.1353 -0.1394
 3744TIP3    H232724   2.654   6.431   3.038  0.7809  0.6783 -1.5143
 3745TIP3   OH232725   3.424   6.608  11.476 -0.5890 -0.1071 -0.0474
 3745TIP3    H132726   3.516   6.586  11.460 -1.3511 -2.7420 -1.3340
 3745TIP3    H232727   3.392   6.537  11.531 -2.0939  0.3302 -0.3247
 3746TIP3   OH232728   5.807   0.311  15.393 -0.1745  0.0966 -0.1730
 3746TIP3    H132729   5.724   0.278  15.427 -1.0102 -0.4515 -2.6167
 3746TIP3    H232730   5.795   0.406  15.387  0.5193  0.4214  2.2817
 3747TIP3   OH232731   5.609   3.280  17.178  0.4679 -0.2669  0.0394
 3747TIP3    H132732   5.662   3.315  17.106  0.8366  1.1827  0.9676
 3747TIP3    H232733   5.545   3.223  17.135  3.2380 -2.7689 -1.0469
 3748TIP3   OH232734   5.202   1.301  12.446 -0.5086 -0.3041 -0.2486
 3748TIP3    H132735   5.143   1.372  12.471  0.7466  0.6855 -0.0342
 3748TIP3    H232736   5.244   1.330  12.365  0.0235 -0.7891 -0.1592
 3749TIP3   OH232737   2.604   3.131   3.111 -0.2452  0.0548 -0.0299
 3749TIP3    H132738   2.518   3.132   3.069 -0.8992  1.5259  1.2464
 3749TIP3    H232739   2.663   3.169   3.045 -1.0154  1.1141 -0.1407
 3750TIP3   OH232740   2.665   3.621  14.936  0.1000 -0.2928  0.0612
 3750TIP3    H132741   2.714   3.655  15.011  0.0593 -0.7933  0.3183
 3750TIP3    H232742   2.575   3.652  14.950  0.2390  0.2184 -0.1583
 3751TIP3   OH232743   0.979   0.060  14.291 -0.4473 -0.6001  0.0852
 3751TIP3    H132744   1.027  -0.013  14.331  1.7218  0.4335 -0.4922
 3751TIP3    H232745   0.970   0.123  14.363 -0.4578 -0.5787  0.0642
 3752TIP3   OH232746   0.735   1.045   2.763  0.6254  0.6829  0.1851
 3752TIP3    H132747   0.808   1.051   2.702 -0.8640 -1.4097 -1.9719
 3752TIP3    H232748   0.677   1.117   2.739  0.6536  0.6440  0.0039
 3753TIP3   OH232749   5.907   1.592  17.056 -0.3550  0.2896 -0.3530
 3753TIP3    H132750   5.951   1.654  16.998  1.2187  1.3207  1.8091
 3753TIP3    H232751   5.933   1.506  17.023 -1.1537  0.7566 -2.3413
 3754TIP3   OH232752   1.706   2.955   3.795 -0.3082  0.1443 -0.1818
 3754TIP3    H132753   1.672   2.926   3.880  0.6024  1.6878  0.7515
 3754TIP3    H232754   1.632   2.998   3.753 -0.7849 -0.6892 -0.2389
 3755TIP3   OH232755   3.440   1.304   6.568  0.7213  0.1905  0.4272
 3755TIP3    H132756   3.473   1.300   6.657  0.0795  1.2793  0.7313
 3755TIP3    H232757   3.501   1.249   6.517  2.2076  1.0527  1.1929
 3756TIP3   OH232758   1.059   4.119   5.406  0.7731  0.4399  0.4415
 3756TIP3    H132759   1.076   4.189   5.343  0.4993 -0.2368 -0.4096
 3756TIP3    H232760   0.987   4.152   5.460 -2.1429 -0.6114 -2.4347
 3757TIP3   OH232761   0.777   5.051   3.061 -0.0114 -0.4879 -0.0764
 3757TIP3    H132762   0.769   5.115   3.131  0.6711  1.3411 -1.5712
 3757TIP3    H232763   0.823   4.976   3.100 -0.0319  0.2965  1.4955
 3758TIP3   OH232764   1.950   1.554  16.694 -0.1382  0.1092 -0.3150
 3758TIP3    H132765   2.024   1.519  16.645 -0.1376  0.5367 -0.6154
 3758TIP3    H232766   1.959   1.649  16.689  0.5686  0.1922  1.5476
 3759TIP3   OH232767   3.737   1.407  16.468  0.5661  0.5300  0.0317
 3759TIP3    H132768   3.827   1.376  16.468  0.3798 -0.0157 -0.3222
 3759TIP3    H232769   3.744   1.500  16.488  1.0903  0.1671  1.6897
 3760TIP3   OH232770   5.391   6.245   0.162  0.0883 -0.0196 -0.3153
 3760TIP3    H132771   5.482   6.259   0.138 -0.1092  3.1271  0.3166
 3760TIP3    H232772   5.350   6.212   0.081  1.5930 -0.5785 -0.8722
 3761TIP3   OH232773   3.953   4.089  13.908  0.0610 -0.4202  0.3625
 3761TIP3    H132774   4.011   4.116  13.837 -0.1252  0.6919  0.6209
 3761TIP3    H232775   3.867   4.123  13.883  0.2690  1.2619  1.7933
 3762TIP3   OH232776   2.552   4.849  14.392  0.5404 -0.5706  0.5205
 3762TIP3    H132777   2.527   4.937  14.363  0.3477 -0.5927  0.6200
 3762TIP3    H232778   2.578   4.804  14.311  1.4453 -0.1635  0.5720
 3763TIP3   OH232779   1.391   0.354   6.378 -0.0864  0.3112 -0.3188
 3763TIP3    H132780   1.328   0.407   6.426 -0.9762  0.1425 -1.2777
 3763TIP3    H232781   1.404   0.277   6.434  0.7329  1.2060  0.7728
 3764TIP3   OH232782   1.937   4.813   6.200  0.3135 -0.3763  0.3380
 3764TIP3    H132783   1.910   4.812   6.292 -0.2803 -0.0171  0.1767
 3764TIP3    H232784   1.979   4.729   6.186 -0.0633 -0.6478  0.8068
 3765TIP3   OH232785   3.181   3.506   4.891 -0.2643 -0.2877 -0.2670
 3765TIP3    H132786   3.214   3.552   4.813 -0.9898 -0.0975 -0.4639
 3765TIP3    H232787   3.143   3.426   4.857 -1.5485  0.2858 -0.2453
 3766TIP3   OH232788   5.152   0.625  16.285 -0.4502  0.0894 -1.0310
 3766TIP3    H132789   5.232   0.591  16.325 -2.5116 -1.5711  2.1201
 3766TIP3    H232790   5.139   0.571  16.207 -0.7275 -2.7977  0.8821
 3767TIP3   OH232791   5.727   5.185   5.265  0.1036 -0.5192  0.5800
 3767TIP3    H132792   5.674   5.138   5.329  0.3543 -3.1710 -1.0431
 3767TIP3    H232793   5.805   5.132   5.254  2.0361  2.0211  1.0341
 3768TIP3   OH232794   3.227   3.264  15.405  0.1209  0.5436 -0.6651
 3768TIP3    H132795   3.303   3.217  15.440 -1.8399 -1.7757  0.9007
 3768TIP3    H232796   3.202   3.214  15.327 -1.1609 -0.2610  0.2136
 3769TIP3   OH232797   1.022   4.091  10.827 -0.8361 -0.3570 -1.1359
 3769TIP3    H132798   1.027   4.022  10.893  1.0407 -0.0826 -0.9116
 3769TIP3    H232799   0.992   4.047  10.748 -1.1769 -1.1029 -0.5989
 3770TIP3   OH232800   6.676   4.895   6.121 -0.3724  0.2224 -0.7079
 3770TIP3    H132801   6.648   4.908   6.212  0.9597 -0.7065 -0.1175
 3770TIP3    H232802   6.726   4.974   6.100  2.5996 -1.1024  0.7714
 3771TIP3   OH232803   6.257   2.852   6.743  0.2599  0.7265 -0.6554
 3771TIP3    H132804   6.177   2.873   6.791  0.6852 -0.5124  0.6904
 3771TIP3    H232805   6.327   2.898   6.790  0.7359 -0.8285  0.2467
 3772TIP3   OH232806   6.364   1.386  14.146 -0.7302 -0.1392  0.1480
 3772TIP3    H132807   6.400   1.299  14.128 -0.3052  0.2996 -1.1943
 3772TIP3    H232808   6.408   1.414  14.227  1.9339  0.3388 -1.3730
 3773TIP3   OH232809   0.139   4.577  12.384 -0.1873 -1.0177  0.5373
 3773TIP3    H132810   0.094   4.628  12.317 -0.1429  0.2376  1.4432
 3773TIP3    H232811   0.091   4.493  12.386  0.0402 -1.2317 -1.2929
 3774TIP3   OH232812   5.237   3.915   6.064 -0.1783  0.2209  0.0622
 3774TIP3    H132813   5.268   3.996   6.103  0.6172 -0.4739  0.8820
 3774TIP3    H232814   5.142   3.929   6.054 -0.0730  1.1965  0.2842
 3775TIP3   OH232815   4.446   0.495   6.464 -0.2050 -0.5906 -0.1005
 3775TIP3    H132816   4.538   0.482   6.440 -0.4276 -1.1375 -0.6867
 3775TIP3    H232817   4.442   0.586   6.493  0.4745 -0.4927 -0.2813
 3776TIP3   OH232818   4.328   5.923   3.265  0.5188  0.0395  0.0492
 3776TIP3    H132819   4.413   5.927   3.308  0.1506  0.7630  0.7319
 3776TIP3    H232820   4.293   6.012   3.272 -1.0755 -0.6351  1.4050
 3777TIP3   OH232821   6.280   2.955   5.277  0.1438  0.0340 -0.1678
 3777TIP3    H132822   6.298   3.043   5.244 -0.1547  0.8521  1.7123
 3777TIP3    H232823   6.240   2.909   5.203  0.8249  1.2959 -1.3487
 3778TIP3   OH232824   4.827   0.109   0.057  0.1784  0.7796 -0.0074
 3778TIP3    H132825   4.749   0.145   0.015  0.7218  0.8499 -0.9764
 3778TIP3    H232826   4.805   0.017   0.071 -0.4547  1.0185  0.6598
 3779TIP3   OH232827   1.347   4.572  17.275 -0.0461  0.4707 -0.1535
 3779TIP3    H132828   1.325   4.511  17.205 -1.4084  0.5920  0.1414
 3779TIP3    H232829   1.427   4.616  17.245 -0.6512  0.5925 -1.6748
 3780TIP3   OH232830   5.649   4.290   3.328  0.5716 -0.5412  0.1087
 3780TIP3    H132831   5.721   4.258   3.274  1.8597 -0.2849  1.6157
 3780TIP3    H232832   5.624   4.373   3.287 -0.7291 -1.8625 -1.9983
 3781TIP3   OH232833   6.765   1.051   3.408  0.2199  0.0037 -0.5606
 3781TIP3    H132834   6.670   1.040   3.402  0.1981  0.2373 -0.6369
 3781TIP3    H232835   6.800   0.970   3.370  0.0608 -1.2171  1.6892
 3782TIP3   OH232836   4.245   4.161   5.772  0.2121  0.2467  0.0948
 3782TIP3    H132837   4.220   4.202   5.855 -0.1802  0.3764 -0.0820
 3782TIP3    H232838   4.318   4.104   5.794 -1.3195 -1.4605  0.9440
 3783TIP3   OH232839   2.557   4.638  15.108  0.1661 -0.0947  0.1285
 3783TIP3    H132840   2.618   4.680  15.047 -0.4641 -0.6289 -0.9095
 3783TIP3    H232841   2.503   4.582  15.052 -0.0201 -1.0941  1.2730
 3784TIP3   OH232842   4.659   0.785   4.524  0.3987 -0.0464  0.9524
 3784TIP3    H132843   4.648   0.749   4.612  1.7763 -0.5064  0.9651
 3784TIP3    H232844   4.664   0.708   4.468  1.2695  0.1826  0.7078
 3785TIP3   OH232845   3.870   0.718   1.145 -0.3519  0.3246 -0.1636
 3785TIP3    H132846   3.922   0.748   1.071 -0.9639  1.0707 -0.3048
 3785TIP3    H232847   3.787   0.766   1.138 -0.5494  0.1540  0.8056
 3786TIP3   OH232848   2.369   2.995   5.044 -0.2678  0.3603 -0.0381
 3786TIP3    H132849   2.312   3.070   5.058  0.8196  1.3376 -0.6700
 3786TIP3    H232850   2.316   2.919   5.069 -1.7731  1.2443 -0.4423
 3787TIP3   OH232851   2.130   2.059   3.018 -0.7759 -0.0464  0.0487
 3787TIP3    H132852   2.079   2.139   3.034  0.0287  0.5419 -0.2577
 3787TIP3    H232853   2.178   2.045   3.100 -0.3210  0.2426 -0.1602
 3788TIP3   OH232854   2.710   4.744   5.035 -0.0476 -0.0171  0.2603
 3788TIP3    H132855   2.704   4.839   5.032 -0.1301 -0.0343 -1.2445
 3788TIP3    H232856   2.656   4.718   5.109 -0.2833  1.0924  0.4865
 3789TIP3   OH232857   6.753   6.601  11.722  0.3047 -0.1245  0.0727
 3789TIP3    H132858   6.704   6.613  11.641  1.7167 -1.2501 -1.0030
 3789TIP3    H232859   6.765   6.690  11.757 -1.0098  0.2934 -0.5081
 3790TIP3   OH232860   0.346   1.962   5.030  0.4098 -0.0435  0.6430
 3790TIP3    H132861   0.432   1.940   5.068  1.9735 -0.7907 -2.9120
 3790TIP3    H232862   0.358   2.049   4.992  0.2346 -0.8361 -1.3500
 3791TIP3   OH232863   5.454   0.389  14.322  0.1987 -0.2288 -0.2623
 3791TIP3    H132864   5.448   0.308  14.374  1.9818 -0.6265 -0.6246
 3791TIP3    H232865   5.418   0.366  14.237 -0.3199 -0.3139 -0.0251
 3792TIP3   OH232866   3.639   0.570   1.536  0.0095  0.3165 -0.1667
 3792TIP3    H132867   3.578   0.496   1.544  0.2266  0.1519  0.0090
 3792TIP3    H232868   3.713   0.545   1.592  1.6985 -0.9691 -2.7491
 3793TIP3   OH232869   3.435   0.708   0.260 -0.2670 -0.3597  0.3569
 3793TIP3    H132870   3.422   0.778   0.325 -0.8558 -0.3968  0.2876
 3793TIP3    H232871   3.400   0.630   0.302  0.6645 -0.6770  0.5477
 3794TIP3   OH232872   3.643   2.060  11.505 -0.2389  0.1628 -0.0355
 3794TIP3    H132873   3.727   2.035  11.466  0.2564  1.6232  0.0240
 3794TIP3    H232874   3.583   1.990  11.479  1.0440 -1.0690  0.1618
 3795TIP3   OH232875   4.035   1.039   1.952  0.1660  0.6916 -0.2776
 3795TIP3    H132876   4.092   0.976   1.995  1.8587  1.9113 -0.6390
 3795TIP3    H232877   3.976   0.986   1.899  0.2187 -0.6614  0.9424
 3796TIP3   OH232878   5.670   4.979  16.873  0.2543 -0.0840 -0.0963
 3796TIP3    H132879   5.733   5.004  16.940 -1.0501  1.0633  0.7805
 3796TIP3    H232880   5.652   5.060  16.825 -0.8271 -0.2886 -0.0642
 3797TIP3   OH232881   1.879   4.414   2.811  0.4609  0.6974 -0.3634
 3797TIP3    H132882   1.801   4.428   2.863  0.4899  1.4349 -0.5029
 3797TIP3    H232883   1.900   4.500   2.775  0.5714  0.2573 -1.4061
 3798TIP3   OH232884   1.617   6.053  11.054 -0.2583 -0.4119  0.4319
 3798TIP3    H132885   1.546   6.110  11.022  0.3326  0.8375  1.2650
 3798TIP3    H232886   1.651   6.011  10.975 -0.4179  0.7461 -0.2706
 3799TIP3   OH232887   4.709   5.149   1.141  0.0428  0.1946 -0.5773
 3799TIP3    H132888   4.631   5.205   1.136  0.7011  1.0371 -2.7487
 3799TIP3    H232889   4.677   5.062   1.119 -0.5075  0.2435 -0.0125
 3800TIP3   OH232890   0.486   1.580  11.781 -0.3162 -0.4018 -0.3297
 3800TIP3    H132891   0.429   1.631  11.724 -0.4786  0.3332  0.4536
 3800TIP3    H232892   0.428   1.551  11.852  0.7022  2.7389  2.0246
 3801TIP3   OH232893   1.084   2.028  12.249 -0.4091 -0.3129 -0.4714
 3801TIP3    H132894   1.089   2.097  12.183  1.3556 -0.3960 -0.4829
 3801TIP3    H232895   1.150   1.964  12.221 -1.9662 -1.9984 -0.4368
 3802TIP3   OH232896   3.249   4.333  16.840  0.4885  0.1044  0.1882
 3802TIP3    H132897   3.271   4.336  16.747  1.3308 -0.9090  0.3370
 3802TIP3    H232898   3.298   4.406  16.878  1.1197 -0.2254  0.0197
 3803TIP3   OH232899   5.802   2.105  15.411 -0.6501 -0.3354  0.3273
 3803TIP3    H132900   5.750   2.148  15.344  0.9448 -0.1915 -0.8715
 3803TIP3    H232901   5.765   2.135  15.494 -0.8453  1.7553 -0.4789
 3804TIP3   OH232902   1.221   1.013  13.509  0.4664 -0.2591  0.0449
 3804TIP3    H132903   1.178   1.097  13.525  1.7585  0.9717 -2.3565
 3804TIP3    H232904   1.162   0.968  13.448  0.7391 -0.2315 -0.2394
 3805TIP3   OH232905   4.892   3.054  11.485  0.2432  0.3902  0.4225
 3805TIP3    H132906   4.902   3.065  11.579  0.7339 -0.3680  0.4702
 3805TIP3    H232907   4.964   2.996  11.460 -0.3702 -0.0823 -0.2827
 3806TIP3   OH232908   3.660   0.395  11.302  0.1901  0.4199  0.2660
 3806TIP3    H132909   3.686   0.453  11.374  0.4258 -0.0165  0.5377
 3806TIP3    H232910   3.729   0.404  11.237  0.2124  0.4685  0.2965
 3807TIP3   OH232911   3.369   3.620   6.129  0.4984 -0.1289  0.1239
 3807TIP3    H132912   3.427   3.696   6.124  0.2704  0.0643  0.3938
 3807TIP3    H232913   3.282   3.655   6.110  0.3636 -0.2864  0.4433
 3808TIP3   OH232914   3.822   3.307   2.257  0.5001 -0.6077  0.1649
 3808TIP3    H132915   3.903   3.347   2.225 -0.2445  1.0965  0.3227
 3808TIP3    H232916   3.764   3.305   2.181 -0.3635  1.0632  0.7305
 3809TIP3   OH232917   5.936   3.147  14.798 -0.2633 -0.0242  0.2736
 3809TIP3    H132918   5.881   3.107  14.865  2.3921 -0.9079  2.0999
 3809TIP3    H232919   5.968   3.228  14.838 -1.0074  1.0155 -1.1532
 3810TIP3   OH232920   4.590   1.985   2.959 -0.2291  0.4930  0.3208
 3810TIP3    H132921   4.616   2.012   3.047 -1.8879  1.9023  0.4299
 3810TIP3    H232922   4.505   1.942   2.971 -1.4935  2.5447 -0.7676
 3811TIP3   OH232923   1.763   2.039  15.419 -0.0374  0.3725  0.2427
 3811TIP3    H132924   1.789   1.960  15.467 -0.8690 -0.2158 -0.2641
 3811TIP3    H232925   1.815   2.037  15.339  0.4104  0.6833  0.5209
 3812TIP3   OH232926   5.864   3.455   3.131 -0.0976 -0.3024 -0.7626
 3812TIP3    H132927   5.923   3.506   3.075 -0.9356  2.6812  0.8552
 3812TIP3    H232928   5.777   3.474   3.097 -0.6020  1.3770  1.2996
 3813TIP3   OH232929   1.436   6.652  14.979  0.3914 -0.4722  0.5041
 3813TIP3    H132930   1.410   6.602  15.056  0.6825 -0.5998  0.5215
 3813TIP3    H232931   1.450   6.741  15.012 -1.5253 -0.0119  0.2159
 3814TIP3   OH232932   3.891   4.999   4.991 -0.4199 -0.0652  0.2699
 3814TIP3    H132933   3.850   5.053   4.923  0.5315 -0.9544 -1.0449
 3814TIP3    H232934   3.973   5.044   5.010  0.6647 -1.2901 -1.2640
 3815TIP3   OH232935   6.636   1.188  13.730 -0.6519  0.0953  0.3208
 3815TIP3    H132936   6.552   1.152  13.757 -0.6943 -0.3476 -0.3623
 3815TIP3    H232937   6.619   1.224  13.643  0.5885 -2.9643 -1.3459
 3816TIP3   OH232938   1.435   4.075  16.042 -0.4419  0.1982 -0.4052
 3816TIP3    H132939   1.394   4.057  16.126 -1.2664  0.5439 -0.7290
 3816TIP3    H232940   1.529   4.080  16.062 -0.5437 -0.6153  0.3285
 3817TIP3   OH232941   1.383   4.536  12.168  0.2539 -0.0051 -0.5360
 3817TIP3    H132942   1.326   4.494  12.104 -0.9240  0.4319  0.1970
 3817TIP3    H232943   1.435   4.598  12.117  0.6620 -0.9921 -1.3323
 3818TIP3   OH232944   1.396   1.186   3.591  0.0291  0.0799 -0.1435
 3818TIP3    H132945   1.391   1.172   3.685  0.4175 -0.0165 -0.1380
 3818TIP3    H232946   1.369   1.277   3.579  0.5357  0.2684  0.1192
 3819TIP3   OH232947   5.271   6.641  14.349  0.0927 -0.6043 -0.1039
 3819TIP3    H132948   5.365   6.645  14.328  0.0610  1.6845 -0.0613
 3819TIP3    H232949   5.269   6.637  14.445  0.1288 -2.2426 -0.1453
 3820TIP3   OH232950   1.851   4.040  12.777  0.6422  0.4554  0.1136
 3820TIP3    H132951   1.801   4.111  12.815 -0.5377 -0.2683 -0.0225
 3820TIP3    H232952   1.904   4.006  12.849  1.2846  1.5107  0.1559
 3821TIP3   OH232953   4.774   5.151  10.998 -0.0523 -0.1512 -0.6174
 3821TIP3    H132954   4.714   5.091  10.954  0.2592 -0.0676 -1.1581
 3821TIP3    H232955   4.829   5.186  10.928 -0.7537  1.3836 -0.4623
 3822TIP3   OH232956   4.413   3.353   3.761  0.4304 -0.0586  0.0079
 3822TIP3    H132957   4.317   3.347   3.765  0.3656  0.7069 -0.2810
 3822TIP3    H232958   4.443   3.301   3.836 -0.1788 -1.0481 -0.4082
 3823TIP3   OH232959   4.982   2.577   0.915  0.0619 -0.3458 -0.1562
 3823TIP3    H132960   4.996   2.653   0.858 -0.1700  0.6663  1.0923
 3823TIP3    H232961   4.893   2.588   0.948  0.7082 -0.0758  1.5745
 3824TIP3   OH232962   2.109   0.613  14.548 -0.2604 -0.2369  0.5040
 3824TIP3    H132963   2.144   0.523  14.546 -0.6355 -0.4409 -3.5186
 3824TIP3    H232964   2.045   0.615  14.478  2.2297  4.0954 -2.0245
 3825TIP3   OH232965   5.271   2.132   4.804 -0.7029 -0.9563  0.0580
 3825TIP3    H132966   5.310   2.183   4.875 -1.0865  0.4067 -0.6754
 3825TIP3    H232967   5.238   2.197   4.742  2.6780 -1.9280 -3.1618
 3826TIP3   OH232968   1.139   4.579   2.782 -0.4101  0.3387  0.4952
 3826TIP3    H132969   1.126   4.507   2.720  2.6534  0.4835 -0.5262
 3826TIP3    H232970   1.102   4.548   2.864 -2.4857 -0.8361 -0.8034
 3827TIP3   OH232971   2.727   1.677   2.365  0.0384 -0.0458  0.2815
 3827TIP3    H132972   2.775   1.609   2.412 -0.5330 -0.0627  0.8584
 3827TIP3    H232973   2.661   1.707   2.428 -0.2131  0.5007 -0.2361
 3828TIP3   OH232974   4.535   5.378  12.429  0.1453  0.0301  0.0170
 3828TIP3    H132975   4.451   5.422  12.416  0.3758  0.5651  0.3330
 3828TIP3    H232976   4.585   5.437  12.485  1.1867  0.2608 -1.1331
 3829TIP3   OH232977   6.141   5.215  11.556  0.2300  0.3427 -0.1494
 3829TIP3    H132978   6.146   5.216  11.461 -1.9876  0.5433 -0.3220
 3829TIP3    H232979   6.053   5.182  11.575  0.8688 -0.4036  1.8587
 3830TIP3   OH232980   1.338   6.623  16.491  0.0182 -0.7449  0.3317
 3830TIP3    H132981   1.255   6.576  16.488 -0.0945 -0.5323 -1.4663
 3830TIP3    H232982   1.384   6.596  16.411  0.1304  1.7862 -0.5552
 3831TIP3   OH232983   1.811   6.723  16.247  0.4682  0.1318  0.0580
 3831TIP3    H132984   1.771   6.811  16.246  1.0251  0.3831 -0.7003
 3831TIP3    H232985   1.778   6.681  16.168  0.8762 -0.0408 -0.0199
 3832TIP3   OH232986   1.853   2.831  12.123 -0.1226  0.2371  0.4326
 3832TIP3    H132987   1.788   2.855  12.056  0.4951  0.2550 -0.1669
 3832TIP3    H232988   1.905   2.762  12.081 -0.3525 -0.4608  1.2610
 3833TIP3   OH232989   0.587   2.748  15.472 -0.1122 -0.4258 -0.7984
 3833TIP3    H132990   0.665   2.798  15.497  0.1036 -1.2567  0.2819
 3833TIP3    H232991   0.514   2.808  15.485  0.2056 -0.1549 -0.2362
 3834TIP3   OH232992   4.435   1.312   0.964 -0.6183  0.5042 -0.0583
 3834TIP3    H132993   4.346   1.307   0.997 -0.1178 -0.8857  1.1879
 3834TIP3    H232994   4.453   1.226   0.926 -0.2335  1.1946 -1.5354
 3835TIP3   OH232995   2.448   3.879   5.624 -0.0368  0.1396 -0.3599
 3835TIP3    H132996   2.431   3.900   5.716 -1.4333 -0.1164 -0.5407
 3835TIP3    H232997   2.476   3.787   5.626  0.9569  0.4337 -0.1027
 3836TIP3   OH232998   1.858   2.117   4.722  0.2517  0.3500 -0.0275
 3836TIP3    H132999   1.773   2.083   4.749 -0.0606  1.2223  0.1292
 3836TIP3    H233000   1.902   2.142   4.803  0.4406  0.3947 -0.1415
 3837TIP3   OH233001   6.482   0.981   1.879  0.0028  0.0736  0.2897
 3837TIP3    H133002   6.541   0.979   1.804  0.1241 -1.8040  0.3922
 3837TIP3    H233003   6.537   1.011   1.952  0.6641 -0.9190  0.2208
 3838TIP3   OH233004   6.414   0.034   3.197 -0.6975  0.2577 -0.0071
 3838TIP3    H133005   6.458   0.060   3.116 -2.1412 -1.1758 -1.3165
 3838TIP3    H233006   6.456  -0.048   3.222 -0.3936  0.5927  0.6104
 3839TIP3   OH233007   2.469   4.148  13.672 -0.4454  0.6358  0.2080
 3839TIP3    H133008   2.525   4.221  13.648  1.1762 -0.4995  0.3875
 3839TIP3    H233009   2.448   4.105  13.589 -0.3943  0.6011  0.2131
 3840TIP3   OH233010   3.003   5.545   4.752  0.0205  0.7427  0.2961
 3840TIP3    H133011   2.997   5.639   4.765 -0.9751  0.6752  0.4335
 3840TIP3    H233012   3.075   5.533   4.690 -0.1376  1.6290 -0.0652
 3841TIP3   OH233013   1.107   3.335   4.519 -0.1401 -0.1711  0.2852
 3841TIP3    H133014   1.169   3.395   4.478 -0.2211  0.8495  1.5753
 3841TIP3    H233015   1.156   3.293   4.589 -0.5409 -0.3336  0.4769
 3842TIP3   OH233016   5.868   6.217  12.178  0.1378 -0.2393  0.7026
 3842TIP3    H133017   5.838   6.126  12.183 -1.5502  0.3441  3.5117
 3842TIP3    H233018   5.917   6.222  12.096 -1.3256 -3.1813 -0.4868
 3843TIP3   OH233019   0.232   0.966  14.540  0.1162  0.6500  0.5506
 3843TIP3    H133020   0.234   1.043  14.483  2.0629  0.2407 -0.0101
 3843TIP3    H233021   0.317   0.967  14.584 -0.2592 -0.5895  1.3384
 3844TIP3   OH233022   3.091   5.857  17.025 -0.3886  0.2541 -0.5763
 3844TIP3    H133023   3.154   5.820  16.963  0.2084 -1.1666  0.8121
 3844TIP3    H233024   3.054   5.781  17.070 -2.1738  1.1450 -0.4653
 3845TIP3   OH233025   3.232   5.378  15.762  0.2351  0.1499  0.7436
 3845TIP3    H133026   3.230   5.450  15.825 -1.0494  0.4552  0.3853
 3845TIP3    H233027   3.203   5.302  15.813  2.4943 -0.3758  1.3705
 3846TIP3   OH233028   3.453   5.529  15.237 -0.1321 -0.6510 -0.0517
 3846TIP3    H133029   3.515   5.597  15.208 -1.2372  0.5454  0.3223
 3846TIP3    H233030   3.509   5.458  15.269  1.0616 -0.2434 -1.1504
 3847TIP3   OH233031   2.302   5.476  13.839  0.4472 -0.6437 -0.3661
 3847TIP3    H133032   2.208   5.469  13.858  0.7905 -1.2247  1.2793
 3847TIP3    H233033   2.323   5.395  13.793  0.3473 -1.0018  0.2155
 3848TIP3   OH233034   4.217   5.117  12.505  0.7729 -0.2397  0.0518
 3848TIP3    H133035   4.250   5.187  12.449 -0.5698 -0.0373 -0.5096
 3848TIP3    H233036   4.171   5.162  12.576 -0.2571 -0.5360 -0.4100
 3849TIP3   OH233037   2.891   1.000  14.004  0.2673 -0.3388  0.3015
 3849TIP3    H133038   2.840   0.999  13.923 -0.2195 -0.5135  0.6129
 3849TIP3    H233039   2.959   0.933  13.990  0.3083 -0.2301 -0.0379
 3850TIP3   OH233040   6.190   3.764   1.696  0.3261  0.2027 -0.1681
 3850TIP3    H133041   6.161   3.849   1.728  2.5726  1.3866 -1.0223
 3850TIP3    H233042   6.147   3.755   1.611  0.5793  0.8093 -0.3691
 3851TIP3   OH233043   1.337   1.003   0.174  0.0028 -0.7556 -0.3471
 3851TIP3    H133044   1.284   0.938   0.127  1.5227 -0.9947 -1.8193
 3851TIP3    H233045   1.362   0.959   0.256 -2.1377 -0.5703  0.4860
 3852TIP3   OH233046   3.368   2.326  10.805 -0.4503 -0.3221 -0.1979
 3852TIP3    H133047   3.448   2.283  10.775  0.3136  1.1889 -0.4060
 3852TIP3    H233048   3.394   2.376  10.882 -1.1664  0.2819 -0.3298
 3853TIP3   OH233049   2.717   3.438  14.750  0.4969  0.1195 -0.5815
 3853TIP3    H133050   2.691   3.524  14.783  4.5407  0.7879  1.3884
 3853TIP3    H233051   2.715   3.382  14.828 -1.3296 -1.5140 -1.7016
 3854TIP3   OH233052   3.110   4.370  11.303 -0.6566  0.2016 -0.1668
 3854TIP3    H133053   3.123   4.387  11.210 -1.8927 -0.0892 -0.3963
 3854TIP3    H233054   3.075   4.452  11.338 -2.2539 -0.3498 -0.3947
 3855TIP3   OH233055   5.456   0.903   5.082 -0.3844  0.3667 -0.2267
 3855TIP3    H133056   5.385   0.947   5.035 -0.7463 -1.3127 -1.3327
 3855TIP3    H233057   5.514   0.974   5.110 -2.7617  1.8665  1.2754
 3856TIP3   OH233058   2.578   5.616  12.343 -0.4134 -0.3788 -0.2321
 3856TIP3    H133059   2.658   5.651  12.384 -0.0775 -0.2866 -0.9590
 3856TIP3    H233060   2.609   5.552  12.280 -1.0311 -2.1327  1.1554
 3857TIP3   OH233061   2.865   3.675  15.115  0.2520  0.1583 -0.0065
 3857TIP3    H133062   2.899   3.730  15.186  0.4653  1.3515 -1.0148
 3857TIP3    H233063   2.940   3.659  15.058 -0.3764  1.0174 -1.1077
 3858TIP3   OH233064   6.014   2.522   1.315 -0.4134 -0.1133 -0.7370
 3858TIP3    H133065   5.943   2.568   1.271  0.3751  0.5594 -1.3529
 3858TIP3    H233066   6.031   2.574   1.394  0.9347  1.1070 -1.7774
 3859TIP3   OH233067   3.585   6.302   2.664 -0.0448 -0.7669  0.1700
 3859TIP3    H133068   3.654   6.262   2.716  1.3645  1.5481  0.2153
 3859TIP3    H233069   3.606   6.279   2.574  1.4239  0.7093  0.0893
 3860TIP3   OH233070   5.805   3.634   2.116 -0.3010  0.2661  0.1550
 3860TIP3    H133071   5.716   3.598   2.117  0.2823 -1.2364  0.1451
 3860TIP3    H233072   5.793   3.727   2.135 -2.1784  0.8090 -2.8837
 3861TIP3   OH233073   4.571   1.815   6.293  0.4069  0.8774  0.4880
 3861TIP3    H133074   4.590   1.724   6.271  2.7174  0.7934  2.4166
 3861TIP3    H233075   4.611   1.866   6.223 -0.8206  0.4601 -0.5556
 3862TIP3   OH233076   3.907   4.513  16.107  0.2685 -0.3278 -0.0766
 3862TIP3    H133077   3.911   4.555  16.021 -2.5871  1.6848  0.6113
 3862TIP3    H233078   3.864   4.429  16.091 -0.2396  0.0331 -0.6540
 3863TIP3   OH233079   4.596   5.390   6.488  0.3834 -0.8211 -0.0867
 3863TIP3    H133080   4.606   5.465   6.429 -0.9726 -1.5809 -1.3766
 3863TIP3    H233081   4.513   5.406   6.532  1.3695 -0.2857  1.6477
 3864TIP3   OH233082   1.630   1.463   0.001 -0.2487 -0.1366  0.3992
 3864TIP3    H133083   1.636   1.456  -0.094  0.3444 -0.2361  0.4448
 3864TIP3    H233084   1.567   1.535   0.015 -0.8175 -0.5298 -0.0611
 3865TIP3   OH233085   5.119   3.791   1.320 -0.3569 -0.2979 -0.1343
 3865TIP3    H133086   5.110   3.811   1.414  1.1042  0.1312 -0.0639
 3865TIP3    H233087   5.180   3.717   1.318  0.5083  0.4145 -0.7829
 3866TIP3   OH233088   0.598   2.716  11.091  0.3914  0.4782 -0.5848
 3866TIP3    H133089   0.529   2.759  11.142  0.3680 -0.8894  0.6243
 3866TIP3    H233090   0.556   2.693  11.008 -0.5321 -0.0071 -0.0038
 3867TIP3   OH233091   3.864   6.302   0.856  0.2023  0.5776  0.2692
 3867TIP3    H133092   3.842   6.355   0.933 -0.3360  1.1478 -0.2631
 3867TIP3    H233093   3.957   6.282   0.866 -0.1866 -0.6588  1.8445
 3868TIP3   OH233094   5.185   3.276  12.328 -0.5352  0.1559  0.0702
 3868TIP3    H133095   5.116   3.324  12.282  0.5886  1.3827 -0.4030
 3868TIP3    H233096   5.237   3.235  12.258  1.5173  2.4870  0.0789
 3869TIP3   OH233097   3.232   0.252   4.826 -0.5674  0.0921  0.6558
 3869TIP3    H133098   3.161   0.209   4.779 -1.4877  0.1880  1.9356
 3869TIP3    H233099   3.234   0.210   4.911  1.8869 -0.9167  0.1818
 3870TIP3   OH233100   0.112   0.006   2.503 -0.2399  0.0374  0.3959
 3870TIP3    H133101   0.084  -0.085   2.494 -0.5489  0.0637  1.0312
 3870TIP3    H233102   0.203   0.006   2.471  1.2586 -1.3563  4.0203
 3871TIP3   OH233103   5.535   2.758  15.684 -0.4350  0.4250 -0.1238
 3871TIP3    H133104   5.577   2.745  15.599 -0.4521 -0.5301 -0.0042
 3871TIP3    H233105   5.509   2.670  15.711  0.7493  0.5156  1.4633
 3872TIP3   OH233106   3.037   5.162  14.557 -0.4326 -0.7037  0.0648
 3872TIP3    H133107   2.984   5.240  14.539  0.0514 -0.7082 -1.5673
 3872TIP3    H233108   2.975   5.090  14.556 -0.6340 -0.5300 -0.1836
 3873TIP3   OH233109   0.773   1.770  17.117  0.0850 -0.5743 -0.0819
 3873TIP3    H133110   0.799   1.678  17.116  0.7749 -0.3786 -0.4019
 3873TIP3    H233111   0.855   1.819  17.127 -0.4088 -0.0346  1.8116
 3874TIP3   OH233112   4.662   3.936   3.642 -0.3545  0.5891  0.4127
 3874TIP3    H133113   4.697   4.017   3.679  0.4814  0.4736 -0.1060
 3874TIP3    H233114   4.624   3.890   3.718  1.3584  0.3472  1.1720
 3875TIP3   OH233115   1.956   2.983   0.909 -0.1278 -1.0030 -0.1475
 3875TIP3    H133116   1.878   3.007   0.958  0.6965 -0.4201  0.9196
 3875TIP3    H233117   1.929   2.907   0.857 -1.9004  0.2923 -1.1981
 3876TIP3   OH233118   3.607   6.569  13.318  0.1650 -0.7815  0.2683
 3876TIP3    H133119   3.555   6.489  13.325 -1.0504  0.1061  2.1957
 3876TIP3    H233120   3.556   6.636  13.363  2.2120  0.5429  0.8099
 3877TIP3   OH233121   0.548   4.198   0.422  0.0157 -0.4227 -0.5039
 3877TIP3    H133122   0.495   4.167   0.495 -0.5235  0.1900 -0.6139
 3877TIP3    H233123   0.541   4.129   0.356 -0.2080 -0.5924 -0.3046
 3878TIP3   OH233124   3.833   5.652  16.241 -0.2563 -0.3281 -0.6360
 3878TIP3    H133125   3.792   5.726  16.196 -2.8999 -1.1474  0.2485
 3878TIP3    H233126   3.826   5.579  16.179  1.6205 -0.0882 -1.1942
 3879TIP3   OH233127   3.916   5.494  12.407  0.5523  0.2634  0.7589
 3879TIP3    H133128   3.842   5.437  12.428  1.5930 -1.4365  0.0389
 3879TIP3    H233129   3.885   5.547  12.334  0.2049 -0.9058  0.0166
 3880TIP3   OH233130   4.706   0.815  14.162 -0.6649 -0.3001 -0.0348
 3880TIP3    H133131   4.652   0.859  14.096 -1.6201  1.2136  1.6612
 3880TIP3    H233132   4.741   0.738  14.117 -1.5264  0.4812 -2.1891
 3881TIP3   OH233133   4.012   2.307  13.988 -0.7331  0.0274 -0.7066
 3881TIP3    H133134   4.052   2.392  13.971 -1.1596  0.3273 -0.2025
 3881TIP3    H233135   4.041   2.253  13.914 -0.3657  0.5694 -0.9697
 3882TIP3   OH233136   2.535   4.169  11.833  0.2738 -0.2393 -0.4544
 3882TIP3    H133137   2.490   4.094  11.872  0.2031  0.1326  0.2074
 3882TIP3    H233138   2.465   4.228  11.805  0.3030  0.6970  1.2847
 3883TIP3   OH233139   0.519   2.636   4.665 -0.0165 -0.5335  0.5385
 3883TIP3    H133140   0.541   2.575   4.736  0.0681 -1.1336  0.0092
 3883TIP3    H233141   0.478   2.710   4.709 -0.4874 -1.1514  1.1695
 3884TIP3   OH233142   2.809   5.834   5.984 -0.2414  0.0513 -0.1316
 3884TIP3    H133143   2.723   5.837   5.943 -0.1215 -0.2327 -0.4021
 3884TIP3    H233144   2.835   5.926   5.992 -1.2789  0.2453  1.4545
 3885TIP3   OH233145   3.394   2.483  12.993 -0.6403  0.2257 -0.0325
 3885TIP3    H133146   3.422   2.554  12.935  1.3178 -0.3789  0.0796
 3885TIP3    H233147   3.348   2.422  12.936  1.7309 -0.6273 -1.1492
 3886TIP3   OH233148   5.218   2.242   1.982  0.5436 -0.1155  0.5058
 3886TIP3    H133149   5.180   2.210   1.900 -0.5219 -0.2119  1.0121
 3886TIP3    H233150   5.274   2.171   2.012  2.0904  0.4710 -0.8278
 3887TIP3   OH233151   4.722   3.884  13.963 -0.1113 -0.0849 -0.6184
 3887TIP3    H133152   4.686   3.942  13.896  0.5504 -0.0393 -0.9420
 3887TIP3    H233153   4.645   3.843  14.003 -0.6454  1.6127  0.1823
 3888TIP3   OH233154   5.869   6.237   1.302 -0.0342  0.2345  0.5636
 3888TIP3    H133155   5.892   6.208   1.214  0.5425  1.1855  0.3943
 3888TIP3    H233156   5.953   6.265   1.341 -0.4634  0.9764  0.9793
 3889TIP3   OH233157   1.942   5.777   0.776  0.6124 -0.2940 -0.0829
 3889TIP3    H133158   1.915   5.701   0.725 -1.3551  0.7502 -0.6914
 3889TIP3    H233159   1.991   5.741   0.849  2.7586 -1.8960 -2.1614
 3890TIP3   OH233160   1.304   1.201   4.955 -0.6535  0.4227  0.0252
 3890TIP3    H133161   1.361   1.128   4.932 -0.3641  0.6176  0.1168
 3890TIP3    H233162   1.310   1.207   5.050 -2.8987 -1.2439  0.3347
 3891TIP3   OH233163   4.166   4.573   4.695  0.0131  0.2390 -0.3777
 3891TIP3    H133164   4.094   4.510   4.689 -0.4295  0.7520 -0.6270
 3891TIP3    H233165   4.193   4.571   4.787  0.2344 -0.5530 -0.4500
 3892TIP3   OH233166   0.783   2.889   2.658 -0.1047 -0.2500  0.2968
 3892TIP3    H133167   0.827   2.804   2.665  0.4756  0.0086 -0.1478
 3892TIP3    H233168   0.851   2.948   2.626 -0.9174  0.0214 -1.0298
 3893TIP3   OH233169   1.242   2.756   5.178  0.2546  0.1423  0.2607
 3893TIP3    H133170   1.167   2.813   5.195  0.3200  0.3305 -0.0700
 3893TIP3    H233171   1.203   2.670   5.162  0.0444  0.3933 -0.6561
 3894TIP3   OH233172   3.795   5.990   4.616  0.0884  0.2216  0.1351
 3894TIP3    H133173   3.730   5.926   4.586 -2.7782  2.1674  1.7072
 3894TIP3    H233174   3.815   5.964   4.705 -0.0262  0.7020  0.3038
 3895TIP3   OH233175   2.373   2.054  11.835  0.4958  0.8064  0.3686
 3895TIP3    H133176   2.371   2.138  11.881  0.9010  0.3591  1.2379
 3895TIP3    H233177   2.315   1.997  11.886 -0.5088  0.8123 -0.7535
 3896TIP3   OH233178   6.574   4.126   5.000 -0.0247  0.0009  0.0393
 3896TIP3    H133179   6.592   4.201   5.059  0.7823  0.1352 -0.3570
 3896TIP3    H233180   6.479   4.123   4.993 -0.0533  1.6766 -0.7849
 3897TIP3   OH233181   2.779   6.778  15.100 -0.5064  0.4409  0.6295
 3897TIP3    H133182   2.860   6.805  15.057 -1.3759  0.3082 -1.1827
 3897TIP3    H233183   2.805   6.760  15.190  1.5471  0.0488  0.0162
 3898TIP3   OH233184   0.203   3.132  13.579  0.1217 -0.4668 -0.5671
 3898TIP3    H133185   0.178   3.120  13.487  1.4162 -1.3489 -0.8411
 3898TIP3    H233186   0.230   3.223  13.585 -0.5280 -0.2463 -0.9094
 3899TIP3   OH233187   4.111   6.781   2.324  0.2538 -0.5360 -0.2430
 3899TIP3    H133188   4.203   6.805   2.313 -0.2301  1.7292  0.1162
 3899TIP3    H233189   4.105   6.745   2.412  0.8734 -1.2150 -0.4703
 3900TIP3   OH233190   5.954   4.559   5.692  0.2758 -0.1138  0.1658
 3900TIP3    H133191   5.978   4.549   5.600 -0.7371 -0.5596 -0.0775
 3900TIP3    H233192   5.990   4.481   5.735 -0.3870 -0.5920 -0.1227
 3901TIP3   OH233193   2.854   1.857  14.684  0.1923  0.9388  0.0517
 3901TIP3    H133194   2.850   1.764  14.706  0.7670  0.4578 -1.7229
 3901TIP3    H233195   2.829   1.902  14.765 -1.4463 -0.7792  0.5792
 3902TIP3   OH233196   3.195   6.075   5.170  0.4406 -0.3377  0.1576
 3902TIP3    H133197   3.170   6.081   5.262  3.5975  1.1644  1.0281
 3902TIP3    H233198   3.243   5.992   5.164  1.1572  0.0758  0.1274
 3903TIP3   OH233199   0.344   2.890   1.349 -0.4031 -0.0225 -0.3040
 3903TIP3    H133200   0.373   2.813   1.301  0.7207 -0.2650  0.6927
 3903TIP3    H233201   0.371   2.873   1.440 -0.7430  1.2428  0.0596
 3904TIP3   OH233202   4.518   2.091  11.942 -0.1669  0.2366  0.6233
 3904TIP3    H133203   4.465   2.162  11.904 -0.7943 -0.1621  0.7483
 3904TIP3    H233204   4.484   2.079  12.030  0.1601 -0.0039  0.7212
 3905TIP3   OH233205   4.761   6.318   5.149  0.1403  0.2503  0.0493
 3905TIP3    H133206   4.682   6.370   5.136 -1.0281 -1.0823  1.4525
 3905TIP3    H233207   4.792   6.342   5.236  0.9395  0.2868 -0.2304
 3906TIP3   OH233208   0.464   5.080  12.168 -0.0599  0.3692 -0.1114
 3906TIP3    H133209   0.420   5.019  12.108 -0.2617  0.9325 -0.5425
 3906TIP3    H233210   0.557   5.067  12.151  0.1018 -2.1528  2.0837
 3907TIP3   OH233211   0.605   3.250   3.357  0.2932 -0.7301 -0.0264
 3907TIP3    H133212   0.585   3.158   3.342 -1.1904 -0.1793 -1.7589
 3907TIP3    H233213   0.701   3.254   3.359  0.4829 -1.9321 -2.8456
 3908TIP3   OH233214   4.184   2.443  13.616  0.4900  0.4865  0.3706
 3908TIP3    H133215   4.159   2.480  13.701 -0.2714  0.8937 -0.0196
 3908TIP3    H233216   4.280   2.441  13.618  0.4677 -1.2494  1.9702
 3909TIP3   OH233217   4.953   3.896   6.186  0.3282 -0.5439 -0.5465
 3909TIP3    H133218   4.927   3.806   6.205  0.2139 -0.5986 -0.9472
 3909TIP3    H233219   4.878   3.949   6.212 -0.3767 -0.7355 -2.0729
 3910TIP3   OH233220   3.342   3.484  10.678 -0.0857 -0.1805  0.2584
 3910TIP3    H133221   3.366   3.481  10.770  0.7920  0.8825  0.0816
 3910TIP3    H233222   3.263   3.431  10.672  0.1056 -0.6352  1.5351
 3911TIP3   OH233223   3.980   5.865   1.025  0.4572  0.2773  0.0325
 3911TIP3    H133224   4.033   5.814   0.964  2.5037 -0.7688  2.4961
 3911TIP3    H233225   4.034   5.942   1.044  0.4860 -0.0799  1.4886
 3912TIP3   OH233226   2.640   5.957  15.797  0.2206  0.2697  0.2282
 3912TIP3    H133227   2.574   5.896  15.763 -0.5258 -0.6851  3.0697
 3912TIP3    H233228   2.721   5.907  15.797  0.6368  0.8760 -1.6828
 3913TIP3   OH233229   0.154   2.554  12.463  0.2543  0.0414  0.4422
 3913TIP3    H133230   0.070   2.541  12.507 -0.1530 -0.6091 -0.4979
 3913TIP3    H233231   0.208   2.480  12.493  0.4417  0.3628  0.9101
 3914TIP3   OH233232   1.099   6.028   1.093  0.3145  0.1110 -0.6696
 3914TIP3    H133233   1.115   6.030   0.998 -2.0783  0.5373 -1.1264
 3914TIP3    H233234   1.046   5.950   1.107 -2.3004  1.8018 -0.3052
 3915TIP3   OH233235   2.546   6.713  15.900 -0.4573  0.1461  0.3886
 3915TIP3    H133236   2.575   6.651  15.833 -2.5085 -0.0493 -0.4116
 3915TIP3    H233237   2.491   6.776  15.852 -0.3531  1.1912  1.5749
 3916TIP3   OH233238   3.718   3.306  12.131 -0.1244  0.0590 -0.2571
 3916TIP3    H133239   3.793   3.293  12.188  1.9270  3.9998 -1.6529
 3916TIP3    H233240   3.644   3.319  12.191  1.0557 -0.1747  1.3133
 3917TIP3   OH233241   6.663   0.298  15.720 -0.1189  0.5305  0.2184
 3917TIP3    H133242   6.703   0.251  15.647 -1.8284 -0.0590 -0.3762
 3917TIP3    H233243   6.594   0.240  15.751 -1.8081  2.3001 -0.0649
 3918TIP3   OH233244   3.084   4.210   1.437 -0.0976  0.0923 -0.0929
 3918TIP3    H133245   2.992   4.214   1.412 -0.2948  1.9606  0.7017
 3918TIP3    H233246   3.100   4.118   1.458 -1.8728 -0.2062  0.0859
 3919TIP3   OH233247   5.454   6.332  13.044  0.3263 -0.1208 -0.3643
 3919TIP3    H133248   5.380   6.381  13.007  0.2088  0.4682  0.6179
 3919TIP3    H233249   5.529   6.391  13.033  0.7258 -0.8095 -1.5711
 3920TIP3   OH233250   5.611   6.324   0.826 -0.0457  0.0853 -0.1109
 3920TIP3    H133251   5.517   6.313   0.818  0.0498 -0.8885 -0.0834
 3920TIP3    H233252   5.647   6.281   0.748  0.3384  1.3578 -0.6661
 3921TIP3   OH233253   1.755   2.062  14.539  0.0817  0.2147  0.3509
 3921TIP3    H133254   1.712   1.999  14.596 -1.3093  0.2597 -0.6179
 3921TIP3    H233255   1.798   2.009  14.472 -1.0829  0.2801 -0.4601
 3922TIP3   OH233256   6.452   6.420  16.138 -0.2972  0.2031 -0.0259
 3922TIP3    H133257   6.546   6.436  16.148  0.1734 -1.7382 -0.7611
 3922TIP3    H233258   6.421   6.488  16.078  0.9931 -0.0331 -1.0013
 3923TIP3   OH233259   1.426   1.822  13.630  0.0216 -0.0340  0.0846
 3923TIP3    H133260   1.386   1.908  13.618  0.6509  0.2609  0.0698
 3923TIP3    H233261   1.364   1.774  13.684 -0.3339  0.4257  0.0920
 3924TIP3   OH233262   3.143   0.380   3.329  0.3242  0.0865 -0.4415
 3924TIP3    H133263   3.123   0.342   3.415  1.2384  1.5189  0.4508
 3924TIP3    H233264   3.059   0.381   3.283 -0.2046 -0.6059  0.4766
 3925TIP3   OH233265   5.124   2.495  17.000 -0.1619  0.3685  0.1958
 3925TIP3    H133266   5.052   2.463  17.054  0.4052 -0.2347  0.6056
 3925TIP3    H233267   5.093   2.579  16.968 -1.3541 -0.2024 -0.2390
 3926TIP3   OH233268   3.550   1.083   1.108 -0.1213  0.0987 -0.0523
 3926TIP3    H133269   3.533   1.122   1.022  0.0636 -0.2906 -0.2672
 3926TIP3    H233270   3.601   1.149   1.155 -0.8142  0.6000  0.0082
 3927TIP3   OH233271   5.693   4.616   4.142  0.0909 -0.5697 -0.2044
 3927TIP3    H133272   5.788   4.612   4.130  0.0351  1.0979 -1.7055
 3927TIP3    H233273   5.667   4.697   4.097 -1.8946 -0.3279  1.2310
 3928TIP3   OH233274   5.714   6.614   0.899 -0.0754 -0.1293 -0.3316
 3928TIP3    H133275   5.746   6.688   0.847 -0.1386  0.8612  0.9929
 3928TIP3    H233276   5.708   6.542   0.836  1.6534  0.5100 -1.3026
 3929TIP3   OH233277   5.715   3.820  16.881  0.7458  0.1357  0.1359
 3929TIP3    H133278   5.643   3.866  16.840  0.1025 -0.9111  0.0402
 3929TIP3    H233279   5.793   3.847  16.832  0.1592 -0.1151 -0.9622
 3930TIP3   OH233280   5.235   0.088  15.681  0.1327  0.3279 -0.2672
 3930TIP3    H133281   5.186   0.170  15.680 -0.7453 -0.1866 -0.2573
 3930TIP3    H233282   5.174   0.023  15.647  1.5208  0.0442 -2.4403
 3931TIP3   OH233283   6.486   3.877  12.483 -0.0641 -0.0706 -0.5510
 3931TIP3    H133284   6.414   3.897  12.543  1.0352 -0.6400  1.0387
 3931TIP3    H233285   6.549   3.830  12.537  0.7904 -1.0374 -2.2994
 3932TIP3   OH233286   2.677   6.044   5.470 -0.1462  0.0022  0.3047
 3932TIP3    H133287   2.621   6.111   5.509  0.7620  0.4444  0.8758
 3932TIP3    H233288   2.710   5.994   5.544  0.9851  0.3622  0.0547
 3933TIP3   OH233289   4.287   2.369   2.525  0.2442  0.0505 -0.3609
 3933TIP3    H133290   4.315   2.367   2.617 -1.5370 -0.5698  0.2130
 3933TIP3    H233291   4.324   2.289   2.488 -2.4883 -2.0561  1.0177
 3934TIP3   OH233292   2.777   5.925  15.073  0.3738  0.0102  0.1123
 3934TIP3    H133293   2.813   6.014  15.079  1.1084 -0.0283 -2.4646
 3934TIP3    H233294   2.798   5.897  14.984 -0.2358 -2.6027  0.7111
 3935TIP3   OH233295   0.343   6.121  12.851  0.1633 -0.0260 -0.1799
 3935TIP3    H133296   0.257   6.154  12.878  0.1298 -1.5596  1.8124
 3935TIP3    H233297   0.323   6.046  12.795  0.2731  1.2563 -2.0790
 3936TIP3   OH233298   2.396   6.121  11.309 -0.2127 -0.1390 -0.1807
 3936TIP3    H133299   2.475   6.164  11.277  0.8008 -1.0598  0.9696
 3936TIP3    H233300   2.391   6.040  11.259  0.3810 -0.7466  0.7291
 3937TIP3   OH233301   6.799   0.411   0.800  0.2744  0.3571  0.3271
 3937TIP3    H133302   6.785   0.492   0.850  0.7170 -0.4543  1.8238
 3937TIP3    H233303   6.894   0.408   0.788  0.0864  1.3411 -2.0294
 3938TIP3   OH233304   4.302   2.547  15.843 -0.0920 -0.2834 -0.2566
 3938TIP3    H133305   4.218   2.504  15.827  0.1125 -0.2830 -1.4153
 3938TIP3    H233306   4.302   2.623  15.786 -0.7219  1.7156  2.2538
 3939TIP3   OH233307   6.754   0.886   5.163 -0.1697  0.3846  0.2164
 3939TIP3    H133308   6.816   0.884   5.236 -0.9290  2.5403  1.0031
 3939TIP3    H233309   6.674   0.846   5.199  0.0403 -0.3064 -0.0693
 3940TIP3   OH233310   3.601   1.574  11.386  0.4687  0.0187  0.1484
 3940TIP3    H133311   3.623   1.581  11.479 -0.7231  0.5416  0.4057
 3940TIP3    H233312   3.524   1.517  11.383  0.0525  0.5984 -0.4545
 3941TIP3   OH233313   6.262   2.572   4.292  0.2262  0.0449  0.6626
 3941TIP3    H133314   6.280   2.620   4.373  0.7758 -0.5137  0.8735
 3941TIP3    H233315   6.257   2.481   4.319  1.7384 -0.3043 -0.1314
 3942TIP3   OH233316   3.416   0.469   0.407  0.3352  0.3560  0.2563
 3942TIP3    H133317   3.398   0.437   0.319 -0.2018  1.8469 -0.2101
 3942TIP3    H233318   3.410   0.391   0.463 -1.4290 -0.2825 -0.7352
 3943TIP3   OH233319   6.419   6.055  14.577 -0.5233 -0.0711 -0.2429
 3943TIP3    H133320   6.408   6.036  14.484 -1.0721 -0.6698 -0.0667
 3943TIP3    H233321   6.491   5.998  14.604  0.4306  0.9561 -0.5399
 3944TIP3   OH233322   2.723   6.774   3.902 -0.2884 -0.5253 -0.2174
 3944TIP3    H133323   2.808   6.810   3.928  0.9841 -3.7007  0.4090
 3944TIP3    H233324   2.729   6.765   3.807  1.8829 -4.4634  0.0932
 3945TIP3   OH233325   5.132   5.828  13.784 -1.2242 -0.1229 -0.1601
 3945TIP3    H133326   5.098   5.782  13.860 -3.1237  1.1540 -0.1636
 3945TIP3    H233327   5.068   5.810  13.715 -0.1018 -0.3742 -1.1641
 3946TIP3   OH233328   4.523   3.964   0.272 -0.3678  0.6376  0.5187
 3946TIP3    H133329   4.429   3.962   0.258 -0.3189  2.7407 -0.3491
 3946TIP3    H233330   4.546   4.057   0.271  1.9171  0.1232 -0.7540
 3947TIP3   OH233331   2.534   1.968  15.816  0.1005  0.3245 -0.5071
 3947TIP3    H133332   2.452   1.923  15.835 -1.0567  2.9845  1.5958
 3947TIP3    H233333   2.598   1.928  15.876 -0.1559 -0.4516 -0.7476
 3948TIP3   OH233334   5.550   2.612   2.479  0.1236  0.0997 -0.0467
 3948TIP3    H133335   5.617   2.674   2.510  0.0225 -0.3460  1.0978
 3948TIP3    H233336   5.595   2.559   2.413  1.3346 -1.1182  1.6943
 3949TIP3   OH233337   4.439   0.775   3.763  0.3268  0.2141 -0.0772
 3949TIP3    H133338   4.378   0.838   3.724 -0.2069  0.0431  0.4668
 3949TIP3    H233339   4.430   0.788   3.857  0.9970  0.0521  0.0128
 3950TIP3   OH233340   0.775   2.687  13.692  0.2321  0.6339  0.1369
 3950TIP3    H133341   0.735   2.729  13.768 -0.7498 -0.4577  0.2466
 3950TIP3    H233342   0.808   2.604  13.726 -0.0451  0.2195 -0.5881
 3951TIP3   OH233343   0.470   4.988  12.432 -0.0036 -0.1758 -0.5574
 3951TIP3    H133344   0.468   5.032  12.347 -0.8564  0.4471 -0.2290
 3951TIP3    H233345   0.378   4.965  12.449  0.2367 -0.8082 -0.0618
 3952TIP3   OH233346   0.218   2.241   0.157 -0.6226 -0.3028  0.0361
 3952TIP3    H133347   0.160   2.310   0.124 -0.0438 -0.1936 -0.8036
 3952TIP3    H233348   0.236   2.266   0.248 -0.7913  0.4070 -0.1169
 3953TIP3   OH233349   1.516   3.471  13.998 -0.2002 -0.0796  0.1993
 3953TIP3    H133350   1.583   3.534  14.023  1.5593 -2.0494  0.7440
 3953TIP3    H233351   1.438   3.498  14.047  0.2633  2.0634 -0.1705
 3954TIP3   OH233352   5.288   1.772  15.519 -0.5204 -1.1530  0.2261
 3954TIP3    H133353   5.324   1.771  15.431 -0.7287 -0.1186  0.1187
 3954TIP3    H233354   5.315   1.856  15.556 -3.2995  0.0092 -0.1096
 3955TIP3   OH233355   5.110   3.204   2.157 -0.1529  0.3564 -0.4069
 3955TIP3    H133356   5.044   3.165   2.215 -0.3991  0.7133 -0.4448
 3955TIP3    H233357   5.111   3.297   2.180  1.1343  0.1850  0.3609
 3956TIP3   OH233358   3.437   3.479   0.984  0.0148  0.2624  0.0325
 3956TIP3    H133359   3.425   3.498   1.077 -0.5355  0.6052 -0.1017
 3956TIP3    H233360   3.349   3.488   0.946  0.4886  1.8758 -0.8242
 3957TIP3   OH233361   0.689   5.417  15.108 -0.1792 -0.0258  0.3825
 3957TIP3    H133362   0.729   5.445  15.190 -1.0226  0.2778  0.6904
 3957TIP3    H233363   0.617   5.478  15.093 -0.2647 -0.2975 -0.3959
 3958TIP3   OH233364   2.688   6.174  13.018  0.2810  0.6718  0.0538
 3958TIP3    H133365   2.680   6.267  12.997 -1.5892  0.5208 -0.0627
 3958TIP3    H233366   2.645   6.129  12.945 -0.1946 -0.1916  0.8457
 3959TIP3   OH233367   3.719   0.322  16.260  0.1330  0.2888 -0.3553
 3959TIP3    H133368   3.775   0.318  16.183  0.5752  0.6616 -0.0590
 3959TIP3    H233369   3.719   0.415  16.285 -0.2223  0.2146 -0.0672
 3960TIP3   OH233370   3.917   1.592  11.195  0.2919  0.1583 -0.4930
 3960TIP3    H133371   3.928   1.662  11.259  0.1066  0.3357 -0.6527
 3960TIP3    H233372   3.827   1.603  11.163  0.8583  1.0023 -1.8785
 3961TIP3   OH233373   0.076   5.735  15.788 -0.2209 -0.5771  0.1426
 3961TIP3    H133374   0.024   5.760  15.711  0.4128 -0.5508 -0.2873
 3961TIP3    H233375   0.121   5.815  15.813 -0.2915 -0.6299  0.4429
 3962TIP3   OH233376   2.107   4.904   2.264 -0.3029  0.2727  0.2221
 3962TIP3    H133377   2.012   4.908   2.258 -0.2895 -1.0648 -1.5756
 3962TIP3    H233378   2.130   4.975   2.324 -2.4112  0.6472  0.6655
 3963TIP3   OH233379   4.536   0.330  12.156 -0.3827  0.4311  0.6346
 3963TIP3    H133380   4.629   0.339  12.177 -0.5220  0.1398  1.4077
 3963TIP3    H233381   4.517   0.404  12.099  0.7407 -0.5104 -1.0250
 3964TIP3   OH233382   5.256   3.842   4.095 -0.0087  0.0200 -0.2756
 3964TIP3    H133383   5.273   3.897   4.018  0.0336  1.0287  0.4395
 3964TIP3    H233384   5.182   3.787   4.069 -1.1072  1.5338 -0.4590
 3965TIP3   OH233385   3.363   5.192   2.662  0.0508 -0.0859 -0.5344
 3965TIP3    H133386   3.388   5.239   2.741  1.2637  0.0577 -0.9831
 3965TIP3    H233387   3.367   5.100   2.685  0.1844 -0.0375 -0.3684
 3966TIP3   OH233388   1.707   5.803  12.685  0.2326  0.1475 -0.6912
 3966TIP3    H133389   1.775   5.735  12.690  0.7168  0.6451 -0.4776
 3966TIP3    H233390   1.657   5.781  12.606  0.0802 -0.7395 -0.3576
 3967TIP3   OH233391   4.995   2.024  11.978  0.1827 -0.3058  0.3689
 3967TIP3    H133392   5.065   2.059  12.033  1.2107 -0.8226 -0.5651
 3967TIP3    H233393   4.973   1.940  12.017 -0.9948  0.5059  1.5345
 3968TIP3   OH233394   0.505   0.319   0.677  0.0500  0.4036  0.2271
 3968TIP3    H133395   0.507   0.362   0.591 -0.6852  0.0452  0.0293
 3968TIP3    H233396   0.586   0.348   0.719  0.1726  0.9900 -0.3867
 3969TIP3   OH233397   5.037   5.923   5.593  0.0965  1.0809 -0.0278
 3969TIP3    H133398   5.000   5.956   5.511 -1.1521  0.4169  0.2488
 3969TIP3    H233399   5.125   5.893   5.569 -1.0252 -1.2028 -1.6745
 3970TIP3   OH233400   6.706   3.899  17.133 -0.1006 -0.0603 -0.4561
 3970TIP3    H133401   6.635   3.835  17.131 -0.9264  0.8029  0.4351
 3970TIP3    H233402   6.768   3.868  17.067 -2.5586  0.6483 -3.2927
 3971TIP3   OH233403   5.091   5.540  17.271 -0.4451  0.2043  0.5805
 3971TIP3    H133404   5.158   5.597  17.306 -0.5257  2.1887 -2.1541
 3971TIP3    H233405   5.047   5.504  17.348  2.4862  0.2846  2.4355
 3972TIP3   OH233406   2.807   1.014   3.853  0.2954 -0.3141 -0.0567
 3972TIP3    H133407   2.870   0.948   3.883  0.1379 -0.1616  0.6081
 3972TIP3    H233408   2.862   1.084   3.817  0.4852 -0.4818 -0.0962
 3973TIP3   OH233409   5.306   0.529  15.826 -0.0994  0.9164 -0.4182
 3973TIP3    H133410   5.293   0.519  15.920  2.1772 -1.4568 -0.2574
 3973TIP3    H233411   5.218   0.517  15.788 -0.7800  0.2240  1.2849
 3974TIP3   OH233412   3.816   5.617   3.613  0.7768  0.2703  0.0788
 3974TIP3    H133413   3.905   5.648   3.599  1.1252 -0.9420 -0.5266
 3974TIP3    H233414   3.826   5.529   3.649 -0.1686 -0.0188 -0.3208
 3975TIP3   OH233415   3.301   6.002  14.390  0.0368  0.4938 -0.2689
 3975TIP3    H133416   3.305   5.949  14.469  1.6762  1.0599  0.0741
 3975TIP3    H233417   3.340   5.948  14.322 -1.2774  0.0470 -0.7070
 3976TIP3   OH233418   5.621   5.995  12.261 -0.5983  0.3796 -0.2155
 3976TIP3    H133419   5.670   6.012  12.341 -3.3185  0.8249  1.4875
 3976TIP3    H233420   5.557   6.067  12.257 -0.6741  0.2496 -2.7124
 3977TIP3   OH233421   3.277   3.214  16.179 -0.6184  0.4189 -0.3566
 3977TIP3    H133422   3.344   3.206  16.110 -0.8119  1.3097 -0.6617
 3977TIP3    H233423   3.327   3.215  16.261 -0.4876 -2.8875 -0.2409
 3978TIP3   OH233424   3.616   1.221  10.115 -0.2952  0.6698 -0.1310
 3978TIP3    H133425   3.544   1.255  10.062 -0.1306 -0.3482 -1.0545
 3978TIP3    H233426   3.575   1.156  10.172 -0.0904 -0.1397 -0.8774
 3979TIP3   OH233427   0.470   2.232  12.504  0.4850  0.0575  0.3857
 3979TIP3    H133428   0.465   2.173  12.429 -0.5765  0.4319  0.1352
 3979TIP3    H233429   0.563   2.235  12.527  0.7066 -0.7330 -0.3698
 3980TIP3   OH233430   2.254   2.835  13.338 -0.1598 -0.2240  0.4131
 3980TIP3    H133431   2.276   2.798  13.252  1.6378 -0.2196  0.8317
 3980TIP3    H233432   2.190   2.775  13.374 -0.4242 -0.6083 -0.6435
 3981TIP3   OH233433   1.805   6.617  15.138 -0.0551 -0.2508 -0.1209
 3981TIP3    H133434   1.792   6.524  15.118  2.1533 -0.9182  1.1943
 3981TIP3    H233435   1.826   6.657  15.054  1.9684 -1.5759 -0.3027
 3982TIP3   OH233436   6.314   5.045   3.647  0.1618 -0.5445 -0.0291
 3982TIP3    H133437   6.280   5.129   3.678 -0.4583 -0.4101 -1.0339
 3982TIP3    H233438   6.391   5.069   3.595  0.2836 -0.6444  0.1049
 3983TIP3   OH233439   2.801   0.327  16.201 -0.3285  0.2695 -0.5348
 3983TIP3    H133440   2.852   0.340  16.280  1.4378 -0.5791 -1.4887
 3983TIP3    H233441   2.846   0.257  16.153 -3.4591 -1.9964 -0.5452
 3984TIP3   OH233442   4.408   4.145   3.676 -0.1745 -0.4305 -0.2234
 3984TIP3    H133443   4.317   4.170   3.692 -0.3765 -0.3769 -1.4180
 3984TIP3    H233444   4.402   4.070   3.617  0.5528 -0.5708 -0.1235
 3985TIP3   OH233445   2.541   0.289   6.354 -0.4148 -0.1811 -0.2469
 3985TIP3    H133446   2.602   0.218   6.336  0.4846  0.8782 -1.5850
 3985TIP3    H233447   2.454   0.249   6.346  0.0715 -1.4798  0.6711
 3986TIP3   OH233448   1.706   3.264   0.273 -0.4862  0.6035  0.1411
 3986TIP3    H133449   1.684   3.174   0.296 -0.9888  0.4501 -0.8426
 3986TIP3    H233450   1.621   3.307   0.260 -0.2485  1.1617  0.4027
 3987TIP3   OH233451   0.512   5.091   2.213  0.1191  0.4296 -0.2154
 3987TIP3    H133452   0.504   5.011   2.161  1.7629 -0.7520  1.2462
 3987TIP3    H233453   0.596   5.129   2.186 -0.1936  1.1555 -0.1968
 3988TIP3   OH233454   6.636   3.110   0.207  0.3968  0.2745 -0.5410
 3988TIP3    H133455   6.647   3.088   0.299  0.5705  2.9848  0.1793
 3988TIP3    H233456   6.709   3.068   0.163  0.8186 -0.3288  0.6940
 3989TIP3   OH233457   2.837   3.165  17.268 -0.0593 -0.1381 -0.5971
 3989TIP3    H133458   2.766   3.215  17.308  1.2473  1.1491  0.2346
 3989TIP3    H233459   2.915   3.218  17.283  1.1593 -1.6912 -1.1232
 3990TIP3   OH233460   2.654   5.348   1.325 -0.8234 -0.2021  0.2470
 3990TIP3    H133461   2.634   5.317   1.237 -0.1863  1.0685 -0.3870
 3990TIP3    H233462   2.690   5.436   1.312  0.2666 -0.3794  1.6934
 3991TIP3   OH233463   6.334   0.986   0.150 -0.0960  0.3848  0.1598
 3991TIP3    H133464   6.379   0.904   0.133  0.7805  1.2006 -1.7077
 3991TIP3    H233465   6.242   0.962   0.163  0.1608 -0.8834 -0.2921
 3992TIP3   OH233466   1.155   1.143   2.285  0.1420 -0.2244  0.2808
 3992TIP3    H133467   1.088   1.187   2.337  1.4114  0.2836  1.5570
 3992TIP3    H233468   1.174   1.062   2.333 -0.7938 -1.2452 -1.0177
 3993TIP3   OH233469   0.256   5.911  15.891  0.0466  0.2996  0.0383
 3993TIP3    H133470   0.221   5.932  15.978 -1.0735 -0.0102 -0.3260
 3993TIP3    H233471   0.347   5.938  15.895  0.2845 -0.6146  1.6415
 3994TIP3   OH233472   5.110   0.279   0.719  0.2782 -0.2291 -0.1829
 3994TIP3    H133473   5.087   0.270   0.811  1.5016  3.1118  0.5968
 3994TIP3    H233474   5.086   0.195   0.680 -3.7769 -0.5211  2.3675
 3995TIP3   OH233475   4.835   3.775  12.895  0.2877 -0.2383 -0.0073
 3995TIP3    H133476   4.759   3.797  12.949  0.9854  0.8091  0.5784
 3995TIP3    H233477   4.808   3.797  12.806  0.1954  0.9753  0.2988
 3996TIP3   OH233478   2.819   0.686   4.970 -0.2955 -0.1220  0.0165
 3996TIP3    H133479   2.908   0.719   4.977 -0.0380 -1.1281  3.1397
 3996TIP3    H233480   2.828   0.603   4.922  0.1620  0.6153 -1.1934
 3997TIP3   OH233481   0.885   5.239  11.997 -0.1018  0.4048 -0.1424
 3997TIP3    H133482   0.856   5.227  11.906 -1.2432  1.2001  0.0956
 3997TIP3    H233483   0.975   5.206  11.998 -0.4495 -0.6410 -1.2968
 3998TIP3   OH233484   0.218   1.445  14.502  0.2352 -0.4144  0.4306
 3998TIP3    H133485   0.183   1.481  14.583  0.4371  1.6196 -0.3308
 3998TIP3    H233486   0.180   1.499  14.433  1.9476 -0.5330 -0.6706
 3999TIP3   OH233487   4.554   4.814  16.399 -0.0918 -0.3145 -0.2189
 3999TIP3    H133488   4.513   4.776  16.321  0.3367 -2.2292  0.4244
 3999TIP3    H233489   4.634   4.856  16.366 -1.0325  0.8554 -1.0799
 4000TIP3   OH233490   4.706   1.459   0.979 -0.1650 -0.4288  0.1317
 4000TIP3    H133491   4.627   1.407   0.992 -1.6318  1.2697 -1.4669
 4000TIP3    H233492   4.680   1.548   1.000  1.5035  0.0844  0.1611
 4001TIP3   OH233493   4.922   2.274   4.566 -0.2100 -0.6193 -0.1218
 4001TIP3    H133494   4.908   2.368   4.553  1.6260  0.1689  2.6952
 4001TIP3    H233495   4.839   2.242   4.601 -0.1819  0.4662  1.0007
 4002TIP3   OH233496   1.979   5.797  14.479 -0.1221 -0.1834  0.3614
 4002TIP3    H133497   1.945   5.742  14.409 -1.4619  0.5724  0.4001
 4002TIP3    H233498   2.073   5.778  14.480 -0.0265 -0.0914 -1.7563
 4003TIP3   OH233499   2.599   2.341   0.243  0.2412  0.4146  0.4976
 4003TIP3    H133500   2.695   2.339   0.240  0.2074 -0.3775 -0.4015
 4003TIP3    H233501   2.577   2.432   0.224  0.7800  0.0964 -2.0386
 4004TIP3   OH233502   3.049   5.402  16.949  0.0731 -0.2843 -0.4842
 4004TIP3    H133503   3.086   5.323  16.909  0.9443  0.5809 -1.4438
 4004TIP3    H233504   3.030   5.460  16.875  2.2432  1.5960  0.3054
 4005TIP3   OH233505   2.669   6.136  15.382 -0.2315  0.6129 -0.3331
 4005TIP3    H133506   2.674   6.166  15.473  0.6847  1.2695 -0.5920
 4005TIP3    H233507   2.729   6.193  15.334 -1.1762  0.6904 -1.4740
 4006TIP3   OH233508   4.892   0.081   1.211  0.3386 -0.4948  0.1799
 4006TIP3    H133509   4.850   0.165   1.190  1.2844  0.7242  2.7551
 4006TIP3    H233510   4.958   0.070   1.142  0.6492  1.2316  0.1527
 4007TIP3   OH233511   1.398   1.263   0.255 -0.0033  0.0911  0.1314
 4007TIP3    H133512   1.492   1.276   0.263  0.0945  0.1001 -0.8724
 4007TIP3    H233513   1.389   1.190   0.193 -0.6565  0.5932 -0.3794
 4008TIP3   OH233514   1.566   2.649  14.809 -0.2337 -0.5500 -0.1375
 4008TIP3    H133515   1.653   2.618  14.785 -0.0113 -0.2022  0.1958
 4008TIP3    H233516   1.508   2.611  14.743  0.1557 -0.8588 -0.3116
 4009TIP3   OH233517   3.146   6.265  11.608 -0.1908  0.2509  0.2582
 4009TIP3    H133518   3.200   6.305  11.540  0.2928 -0.2617  0.3310
 4009TIP3    H233519   3.209   6.236  11.675 -0.6501  0.6482  0.8705
 4010TIP3   OH233520   5.344   2.327  17.024 -0.5393 -0.1384  0.7943
 4010TIP3    H133521   5.378   2.304  16.938 -0.2057 -0.0933  0.9132
 4010TIP3    H233522   5.288   2.403  17.008 -0.8617 -0.4244  0.5498
 4011TIP3   OH233523   3.018   3.540   2.693  0.7611 -0.1942  0.0978
 4011TIP3    H133524   3.029   3.453   2.733 -2.1269 -1.1049 -0.8928
 4011TIP3    H233525   3.024   3.600   2.767  0.9397 -1.3928  1.1026
 4012TIP3   OH233526   5.445   2.479   2.721 -0.7445  0.0211  0.1380
 4012TIP3    H133527   5.507   2.437   2.781 -1.3226  1.3158  1.7099
 4012TIP3    H233528   5.495   2.493   2.641  0.2367 -1.1843  0.5052
 4013TIP3   OH233529   4.170   5.826  15.182  0.1129 -0.0892 -0.3392
 4013TIP3    H133530   4.199   5.755  15.125 -0.9034  0.4589 -1.6005
 4013TIP3    H233531   4.130   5.890  15.122  0.8312  1.4614  0.7786
 4014TIP3   OH233532   0.611   4.599   3.417 -0.7965 -0.0608  0.1669
 4014TIP3    H133533   0.613   4.539   3.491 -3.2843 -0.1707  0.2134
 4014TIP3    H233534   0.560   4.674   3.448 -1.0925  0.3002 -1.1364
 4015TIP3   OH233535   0.308   0.565   4.128  0.4588 -0.0435  0.3646
 4015TIP3    H133536   0.283   0.508   4.201  0.9548  0.0065  0.5790
 4015TIP3    H233537   0.230   0.569   4.072  0.5832 -1.3818  0.0568
 4016TIP3   OH233538   5.854   3.092   6.470  0.1051 -0.0877 -0.0955
 4016TIP3    H133539   5.776   3.052   6.432 -0.1134 -1.0281  1.2617
 4016TIP3    H233540   5.829   3.113   6.560  1.1461  0.4298  0.0940
 4017TIP3   OH233541   6.205   0.909  16.282  0.0491  0.1310  0.2771
 4017TIP3    H133542   6.204   1.004  16.296  0.0483  0.0997  0.4946
 4017TIP3    H233543   6.161   0.896  16.198  1.5887  0.4746 -0.6221
 4018TIP3   OH233544   0.977   1.752  11.398 -0.0977  0.0604 -0.2958
 4018TIP3    H133545   0.996   1.720  11.309  0.3565  1.3981 -0.6967
 4018TIP3    H233546   0.883   1.771  11.396  0.6380  5.1096 -2.2956
 4019TIP3   OH233547   6.538   6.473  14.134 -0.2789  0.7110 -0.2083
 4019TIP3    H133548   6.447   6.466  14.163 -0.9566  0.6626 -2.1503
 4019TIP3    H233549   6.544   6.560  14.094  0.5266  0.7048 -0.1240
 4020TIP3   OH233550   0.926   2.182   4.702 -0.4080 -0.4509  0.1205
 4020TIP3    H133551   1.015   2.148   4.711 -1.1374 -2.3061  0.6606
 4020TIP3    H233552   0.880   2.116   4.650 -2.0093 -0.5634  1.5834
 4021TIP3   OH233553   1.714   5.265   5.842 -0.1583  0.2889 -0.1047
 4021TIP3    H133554   1.667   5.182   5.852 -1.9752  1.1789 -0.7679
 4021TIP3    H233555   1.672   5.324   5.905 -0.8001  1.4357 -1.5263
 4022TIP3   OH233556   1.137   4.434   4.726  0.1925 -0.8420 -0.3306
 4022TIP3    H133557   1.160   4.489   4.800 -0.6104  0.6581 -1.1494
 4022TIP3    H233558   1.075   4.370   4.762 -1.0267  0.5308  0.1249
 4023TIP3   OH233559   4.389   3.731   5.721 -0.4962 -0.1455 -0.2471
 4023TIP3    H133560   4.295   3.743   5.708 -0.3627  0.1827 -0.9658
 4023TIP3    H233561   4.411   3.655   5.667 -0.7709 -1.7728  1.8304
 4024TIP3   OH233562   3.930   4.999  13.368 -0.3361  0.7723  0.2930
 4024TIP3    H133563   3.835   4.984  13.372 -0.0676 -0.9952  0.8694
 4024TIP3    H233564   3.960   4.988  13.458  0.4065  1.4983  0.1415
 4025TIP3   OH233565   1.838   4.931   5.969 -0.1675  0.1661  0.0704
 4025TIP3    H133566   1.839   4.885   6.053  1.4200 -0.4256 -0.2511
 4025TIP3    H233567   1.750   4.970   5.964 -0.5308 -0.3963  1.6622
 4026TIP3   OH233568   6.663   6.431   4.980 -0.2281 -0.6747 -0.6193
 4026TIP3    H133569   6.646   6.525   4.982 -1.2227 -0.7322 -2.9480
 4026TIP3    H233570   6.739   6.419   5.037  1.3060  1.8883 -1.9252
 4027TIP3   OH233571   3.340   3.298  17.251  0.5313 -0.2746 -0.1527
 4027TIP3    H133572   3.248   3.276  17.266 -0.0131  1.7990 -0.1419
 4027TIP3    H233573   3.372   3.327  17.336  0.9911 -0.3497 -0.2986
 4028TIP3   OH233574   3.414   1.462   5.673 -0.2627 -0.0889 -0.6034
 4028TIP3    H133575   3.451   1.387   5.626 -2.2684 -0.4125 -1.7863
 4028TIP3    H233576   3.437   1.537   5.618 -0.1475 -0.1154 -0.5918
 4029TIP3   OH233577   5.670   5.804  12.877  0.2068  0.1484  0.4616
 4029TIP3    H133578   5.734   5.863  12.836  0.2513  0.8978  1.5640
 4029TIP3    H233579   5.605   5.863  12.916 -1.3556 -0.5970 -0.8771
 4030TIP3   OH233580   3.900   2.740  15.467 -0.3701  0.4571 -0.4362
 4030TIP3    H133581   3.824   2.743  15.525 -1.2100 -1.3373 -1.3661
 4030TIP3    H233582   3.973   2.772  15.521 -1.3215 -0.0971  1.2578
 4031TIP3   OH233583   3.228   2.753   3.757 -0.5353  0.5438 -0.6348
 4031TIP3    H133584   3.164   2.823   3.743  1.7624  2.4598 -2.2285
 4031TIP3    H233585   3.198   2.682   3.700 -2.2474  0.5997  0.1126
 4032TIP3   OH233586   5.597   1.379  16.609 -0.1002  0.2746 -0.5725
 4032TIP3    H133587   5.558   1.464  16.586 -0.8012  0.0286 -0.3333
 4032TIP3    H233588   5.643   1.396  16.692 -0.3556  0.3945 -0.4523
 4033TIP3   OH233589   2.645   1.307   1.068  0.2603  0.1040 -0.0963
 4033TIP3    H133590   2.716   1.330   1.129  0.3314  2.0323 -0.8377
 4033TIP3    H233591   2.578   1.266   1.123  0.6898  1.0024  1.1301
 4034TIP3   OH233592   0.839   4.316  12.741  0.0162 -0.1180 -0.3654
 4034TIP3    H133593   0.812   4.374  12.670 -0.3249  0.1510 -0.0198
 4034TIP3    H233594   0.831   4.228  12.703 -0.2142  0.0196 -0.6461
 4035TIP3   OH233595   5.881   3.998  14.539  0.7238 -0.4058 -0.1580
 4035TIP3    H133596   5.832   3.918  14.561  0.1509 -0.3116 -1.0289
 4035TIP3    H233597   5.954   3.966  14.485 -0.0259 -0.2756 -1.2921
 4036TIP3   OH233598   2.085   3.321   4.028  0.1630 -0.1525 -0.5321
 4036TIP3    H133599   2.029   3.244   4.028  0.8554 -0.6758  0.6733
 4036TIP3    H233600   2.136   3.314   3.947 -0.5753 -0.3479 -0.9835
 4037TIP3   OH233601   6.102   5.657  14.739  0.4798 -0.5138 -0.6839
 4037TIP3    H133602   6.184   5.676  14.693  0.2252  0.8297 -0.6180
 4037TIP3    H233603   6.038   5.716  14.699 -0.2927 -1.0455 -0.2497
 4038TIP3   OH233604   2.744   6.238  12.358 -0.2787  0.8336  0.5427
 4038TIP3    H133605   2.758   6.286  12.439  1.6696  0.8718  0.2384
 4038TIP3    H233606   2.734   6.147  12.386  0.6335  0.8104  0.8436
 4039TIP3   OH233607   1.680   0.772  11.935 -0.2780  0.1222 -0.1546
 4039TIP3    H133608   1.770   0.794  11.961 -0.3139 -2.1984  2.4226
 4039TIP3    H233609   1.626   0.840  11.974  0.2782  1.3317 -1.4190
 4040TIP3   OH233610   4.378   0.523  11.206  0.7358  0.2512 -0.4567
 4040TIP3    H133611   4.413   0.501  11.119  1.0648 -2.0223  0.1718
 4040TIP3    H233612   4.300   0.468  11.214 -0.4558  1.9427 -0.0640
 4041TIP3   OH233613   5.821   6.312   5.007  0.0310 -0.2659  0.4548
 4041TIP3    H133614   5.848   6.392   4.961  1.4630 -0.8560  0.2158
 4041TIP3    H233615   5.727   6.308   4.995 -0.2790  2.0237  1.4712
 4042TIP3   OH233616   1.990   2.281  15.236  0.1842  0.0412 -0.4859
 4042TIP3    H133617   2.044   2.285  15.315 -0.5767  0.3861  0.0316
 4042TIP3    H233618   1.948   2.367  15.232  1.0770  0.4429 -1.8945
 4043TIP3   OH233619   4.096   4.909  15.513  0.3403 -0.0532  0.1447
 4043TIP3    H133620   4.119   4.877  15.426  1.2067 -1.1314  0.7469
 4043TIP3    H233621   4.178   4.905  15.562  0.3118  2.4312  0.4791
 4044TIP3   OH233622   0.780   2.765   1.334 -0.3177  0.0091  0.1361
 4044TIP3    H133623   0.821   2.688   1.296 -1.4679 -0.6532  0.1862
 4044TIP3    H233624   0.695   2.734   1.365  0.3590  0.6224  2.8728
 4045TIP3   OH233625   3.392   0.081  11.522 -0.5061 -0.0587 -0.4304
 4045TIP3    H133626   3.354   0.062  11.608  1.0824 -0.3852  0.2236
 4045TIP3    H233627   3.396  -0.004  11.478  2.9744 -0.7924  1.0056
 4046TIP3   OH233628   6.259   5.272   4.814 -0.4340  0.3268  0.3184
 4046TIP3    H133629   6.215   5.353   4.787 -0.2359  0.6584  0.9922
 4046TIP3    H233630   6.350   5.284   4.789 -0.5477 -0.0241 -0.3118
 4047TIP3   OH233631   0.763   4.491  12.942 -0.3638  0.1563  0.0223
 4047TIP3    H133632   0.798   4.445  12.866  1.1926  1.7846 -0.3046
 4047TIP3    H233633   0.671   4.505  12.921 -0.1632 -0.1822 -1.1773
 4048TIP3   OH233634   0.431   0.228  14.628 -0.1043 -0.3074 -0.0199
 4048TIP3    H133635   0.458   0.302  14.682  0.6375 -1.6319  1.4994
 4048TIP3    H233636   0.507   0.209  14.574 -1.0591  1.4295 -2.1302
 4049TIP3   OH233637   4.136   3.295  12.513  0.3454  0.1527  0.0891
 4049TIP3    H133638   4.111   3.230  12.578  0.0861  0.2834  0.1184
 4049TIP3    H233639   4.103   3.260  12.430  0.4870  0.0918  0.0573
 4050TIP3   OH233640   6.546   5.235   0.936  0.6017 -0.3808 -0.0020
 4050TIP3    H133641   6.600   5.159   0.913  0.9173  0.1049 -0.9318
 4050TIP3    H233642   6.609   5.302   0.964  0.6808  0.7067 -2.5352
 4051TIP3   OH233643   0.148   2.910  13.751 -0.0148 -0.5421  0.0197
 4051TIP3    H133644   0.102   2.944  13.827 -0.9402 -1.2831 -0.1991
 4051TIP3    H233645   0.181   2.989  13.706  0.1799 -0.0825  0.9415
 4052TIP3   OH233646   6.629   5.188  16.274 -0.1648 -0.9257 -0.4217
 4052TIP3    H133647   6.660   5.253  16.211 -0.1311  0.0327  0.5731
 4052TIP3    H233648   6.573   5.237  16.334 -1.3183 -2.0871 -0.4933
 4053TIP3   OH233649   4.523   1.031  14.635  0.6399 -0.2423 -0.2706
 4053TIP3    H133650   4.568   0.988  14.563  0.4669  1.5810 -1.5457
 4053TIP3    H233651   4.431   1.008  14.623  0.6069  0.0873 -0.6663
 4054TIP3   OH233652   3.956   1.572   3.405  0.1170 -0.4127 -0.2476
 4054TIP3    H133653   3.911   1.604   3.483 -0.7560  3.3084 -2.0708
 4054TIP3    H233654   4.031   1.630   3.395  1.1045 -1.8151 -1.3618
 4055TIP3   OH233655   1.283   3.987   2.757  0.0325 -0.6452  0.1459
 4055TIP3    H133656   1.280   4.080   2.778 -1.8324 -0.1340 -2.0417
 4055TIP3    H233657   1.208   3.949   2.803 -0.0763 -0.8004 -0.1595
 4056TIP3   OH233658   5.465   0.628   3.945  0.4365  0.1894  0.5665
 4056TIP3    H133659   5.526   0.607   4.016 -0.0966 -1.0251  0.6895
 4056TIP3    H233660   5.378   0.614   3.983  0.1223  0.4124 -0.0598
 4057TIP3   OH233661   5.141   3.944  15.176  0.1411 -0.1634  0.2288
 4057TIP3    H133662   5.174   4.001  15.245 -0.7848  0.6053  0.0609
 4057TIP3    H233663   5.047   3.962  15.173  0.0896 -0.5344 -0.9163
 4058TIP3   OH233664   3.260   5.424   4.845  0.5228  0.1930  0.0529
 4058TIP3    H133665   3.339   5.402   4.795 -1.2859 -0.4445 -2.8070
 4058TIP3    H233666   3.248   5.518   4.831  1.0780  0.4160  1.0130
 4059TIP3   OH233667   3.896   3.808  16.265  0.7276 -0.6810  0.1528
 4059TIP3    H133668   3.900   3.712  16.271  2.1224 -0.7411 -1.0287
 4059TIP3    H233669   3.985   3.834  16.242  0.0939  0.7915 -0.8334
 4060TIP3   OH233670   0.456   3.064   0.033  0.3650 -0.2862  0.5021
 4060TIP3    H133671   0.485   3.026   0.116  0.2377  1.5887  1.4721
 4060TIP3    H233672   0.438   3.156   0.054  0.0775  0.1804 -1.5543
 4061TIP3   OH233673   1.143   3.017  11.663  0.5354 -0.1585 -0.2372
 4061TIP3    H133674   1.063   2.977  11.630  0.1333 -0.9869  1.6421
 4061TIP3    H233675   1.199   3.025  11.586 -0.5987 -1.4021 -1.2365
 4062TIP3   OH233676   3.528   1.754  14.387  0.3151  0.2818  0.2739
 4062TIP3    H133677   3.595   1.778  14.324 -1.0316  0.4706 -1.1274
 4062TIP3    H233678   3.457   1.716  14.335 -0.3899 -0.5951  1.7786
 4063TIP3   OH233679   3.889   5.961  12.717 -0.5256 -0.1869  0.1850
 4063TIP3    H133680   3.839   5.892  12.675 -0.5304 -0.8721  1.2755
 4063TIP3    H233681   3.857   5.962  12.808  0.0477  0.6953  0.3919
 4064TIP3   OH233682   6.257   0.557  17.133  0.0817 -0.6156  0.2356
 4064TIP3    H133683   6.307   0.498  17.076  0.8471 -0.6080  0.8850
 4064TIP3    H233684   6.179   0.578  17.082  0.3717 -1.2389 -0.4930
 4065TIP3   OH233685   0.989   6.108  16.160 -0.3400  0.3443 -0.2184
 4065TIP3    H133686   1.050   6.087  16.231  0.2521  1.0007 -0.5134
 4065TIP3    H233687   0.990   6.203  16.155 -1.7027  0.3905  0.0133
 4066TIP3   OH233688   1.062   6.230  11.433  0.2851 -0.6937  0.3875
 4066TIP3    H133689   1.132   6.169  11.408 -1.0867 -2.7132  1.2049
 4066TIP3    H233690   1.092   6.270  11.514  2.2553  1.6498 -1.3350
 4067TIP3   OH233691   1.478   6.328   0.198  0.0804  0.3731  0.1481
 4067TIP3    H133692   1.527   6.304   0.119 -0.5209 -2.6417  0.5802
 4067TIP3    H233693   1.386   6.318   0.173 -0.1421  0.2744  0.9817
 4068TIP3   OH233694   6.312   4.668   4.319  0.4535  0.6471  0.1779
 4068TIP3    H133695   6.314   4.747   4.266  0.3236  1.2509  1.0591
 4068TIP3    H233696   6.244   4.684   4.385  0.2696 -0.2845  0.2341
 4069TIP3   OH233697   0.274   2.987  14.116 -0.0853 -0.3134  0.2508
 4069TIP3    H133698   0.187   2.963  14.084 -0.3605 -0.8594  1.3772
 4069TIP3    H233699   0.283   3.080  14.092 -1.2278 -0.0827  0.6665
 4070TIP3   OH233700   6.421   6.286  15.737 -0.0906 -0.4283  0.8145
 4070TIP3    H133701   6.344   6.280  15.793  0.3411 -0.6168  1.4011
 4070TIP3    H233702   6.476   6.212  15.763  0.3948 -0.1644  0.5670
 4071TIP3   OH233703   2.389   1.561  12.792  0.3357 -0.2094 -0.1136
 4071TIP3    H133704   2.373   1.526  12.705  1.2418 -2.4258  0.5344
 4071TIP3    H233705   2.314   1.532  12.844 -0.4568  1.5290 -0.2061
 4072TIP3   OH233706   1.830   6.275   2.043 -0.3226 -0.1022 -0.0964
 4072TIP3    H133707   1.811   6.222   1.965 -0.5203 -0.7544  0.3794
 4072TIP3    H233708   1.888   6.344   2.012 -0.8530 -0.0184 -0.9352
 4073TIP3   OH233709   4.969   4.177  12.933  0.0602  0.0348 -0.0745
 4073TIP3    H133710   5.043   4.168  12.993  0.5086 -2.2783 -0.8548
 4073TIP3    H233711   5.003   4.225  12.858  1.3544 -2.4558 -1.1848
 4074TIP3   OH233712   1.575   0.407   3.271  0.0191  0.3950 -0.1889
 4074TIP3    H133713   1.634   0.405   3.196  1.3800 -1.2456  0.8425
 4074TIP3    H233714   1.559   0.501   3.286  0.6135  0.7927 -1.7983
 4075TIP3   OH233715   4.001   6.131   5.170 -0.0510 -0.2952 -0.6990
 4075TIP3    H133716   3.988   6.074   5.246  0.5150 -0.4197 -0.6972
 4075TIP3    H233717   4.047   6.207   5.203 -2.6285  1.1861 -0.2751
 4076TIP3   OH233718   2.097   4.943  14.828  0.3746  0.5527 -0.2692
 4076TIP3    H133719   2.087   5.017  14.767 -0.4631  0.1857 -0.5953
 4076TIP3    H233720   2.185   4.909  14.810  0.1307  0.4346 -1.2989
 4077TIP3   OH233721   2.202   0.368  14.516  0.1026  0.6517  0.1029
 4077TIP3    H133722   2.228   0.335  14.430 -0.7448  2.3869 -0.8631
 4077TIP3    H233723   2.121   0.322  14.536 -0.2332  0.9692 -0.4997
 4078TIP3   OH233724   3.679   4.128   0.256  0.4154  0.2149  0.3491
 4078TIP3    H133725   3.591   4.161   0.236 -0.3730 -1.4706  0.9206
 4078TIP3    H233726   3.721   4.123   0.170 -0.7163 -0.7483 -0.1935
 4079TIP3   OH233727   4.566   4.724   1.885 -0.1470 -0.0097 -0.1661
 4079TIP3    H133728   4.552   4.698   1.794  0.9116  0.8994 -0.6282
 4079TIP3    H233729   4.660   4.713   1.898 -0.4659 -1.3207  1.2301
 4080TIP3   OH233730   6.065   0.085  13.206 -0.1191  0.3459 -0.5797
 4080TIP3    H133731   6.139   0.111  13.261  0.0231 -0.2709 -0.4642
 4080TIP3    H233732   6.059   0.153  13.139  0.2075  0.6868 -0.2658
 4081TIP3   OH233733   5.050   0.054  16.368 -0.2907  0.3873  0.3218
 4081TIP3    H133734   5.103   0.133  16.375  0.4356  0.0022 -0.5026
 4081TIP3    H233735   4.989   0.072  16.296  1.4203 -0.5917 -1.4834
 4082TIP3   OH233736   4.781   0.813   0.819 -0.0830 -0.5137  0.4776
 4082TIP3    H133737   4.762   0.791   0.910 -0.3244 -0.1984  0.5085
 4082TIP3    H233738   4.709   0.871   0.793 -0.1036 -0.7311  0.0346
 4083TIP3   OH233739   5.273   5.699   0.138  0.0423  0.2643 -0.6349
 4083TIP3    H133740   5.307   5.782   0.172  0.8441 -0.2837 -0.0860
 4083TIP3    H233741   5.315   5.632   0.191 -3.9569 -0.4362  2.0857
 4084TIP3   OH233742   5.467   1.791  11.230 -0.1825  0.0380 -0.1358
 4084TIP3    H133743   5.505   1.704  11.222  0.2220  0.0286  1.5443
 4084TIP3    H233744   5.441   1.798  11.322  0.6111  2.0067 -0.0116
 4085TIP3   OH233745   4.304   4.064   4.326  0.7514 -0.3503 -0.0040
 4085TIP3    H133746   4.372   4.051   4.392  0.7100 -0.3307  0.0421
 4085TIP3    H233747   4.349   4.107   4.253  0.5882  0.5235  0.3980
 4086TIP3   OH233748   0.333   3.101  16.906  0.2938 -0.9117  0.3839
 4086TIP3    H133749   0.322   3.006  16.913  0.8679 -0.9603  0.6985
 4086TIP3    H233750   0.244   3.135  16.895  0.1101 -1.5081 -0.0232
 4087TIP3   OH233751   3.571   1.594  11.668 -0.0249 -0.5271 -0.6545
 4087TIP3    H133752   3.480   1.620  11.676  0.5930  1.3452  1.3630
 4087TIP3    H233753   3.568   1.503  11.638 -2.5487 -0.7793  0.1479
 4088TIP3   OH233754   1.205   6.783   5.144 -0.0673  0.9057  0.3395
 4088TIP3    H133755   1.229   6.873   5.124  0.0658  0.5829 -1.0579
 4088TIP3    H233756   1.226   6.734   5.065 -0.7576 -0.2448  0.8357
 4089TIP3   OH233757   5.511   2.844  11.656 -0.0811  0.3044 -0.9008
 4089TIP3    H133758   5.502   2.930  11.698  2.2296 -0.7578  2.1140
 4089TIP3    H233759   5.445   2.789  11.699  1.3276 -0.4288  0.4197
 4090TIP3   OH233760   3.751   2.880  15.263  0.2798  0.0994 -0.0434
 4090TIP3    H133761   3.829   2.860  15.315  1.0760  1.7894 -0.5170
 4090TIP3    H233762   3.722   2.965  15.295 -0.8407 -0.0771 -0.5303
 4091TIP3   OH233763   0.874   2.446  13.816  0.6132 -0.4385 -0.4010
 4091TIP3    H133764   0.950   2.420  13.869  0.2455  0.3431  0.5300
 4091TIP3    H233765   0.820   2.367  13.811  0.0180 -0.1831  1.5080
 4092TIP3   OH233766   4.350   3.266  13.014  0.2497  0.0560  0.8094
 4092TIP3    H133767   4.343   3.175  13.044 -0.0059 -0.2148 -0.0259
 4092TIP3    H233768   4.260   3.299  13.020  0.1744 -0.0375  0.2560
 4093TIP3   OH233769   0.723   2.415   4.252 -0.2630  0.4446 -0.1310
 4093TIP3    H133770   0.702   2.337   4.201  0.8776 -0.2526  0.4241
 4093TIP3    H233771   0.677   2.403   4.335  2.1236 -1.0911  1.0913
 4094TIP3   OH233772   0.505   1.646   5.240  0.2459  0.0761 -0.1943
 4094TIP3    H133773   0.532   1.556   5.257 -0.7443 -0.1723  0.1311
 4094TIP3    H233774   0.525   1.661   5.148  2.2764  0.2040  0.2173
 4095TIP3   OH233775   0.620   2.950   3.284 -0.0668 -0.2111 -0.0152
 4095TIP3    H133776   0.646   2.967   3.194  2.0940  0.3524  0.6484
 4095TIP3    H233777   0.526   2.933   3.279  0.3469 -2.4594 -2.6432
 4096TIP3   OH233778   3.457   0.131   1.472  0.0044  0.1970 -0.0042
 4096TIP3    H133779   3.497   0.167   1.393 -0.2200  0.3310 -0.0579
 4096TIP3    H233780   3.456   0.204   1.534 -0.6524  0.3504 -0.1881
 4097TIP3   OH233781   3.370   4.979  16.520 -0.1370 -0.1309 -0.1930
 4097TIP3    H133782   3.374   5.075  16.516 -2.0084 -0.0457 -1.6157
 4097TIP3    H233783   3.432   4.950  16.453  1.6034 -0.0221  1.2883
 4098TIP3   OH233784   3.867   4.421   2.533  0.3827  0.3428  0.0142
 4098TIP3    H133785   3.867   4.470   2.451  0.6493  0.8664  0.3229
 4098TIP3    H233786   3.783   4.442   2.574  0.9361  1.3939  0.6414
 4099TIP3   OH233787   6.795   6.727   6.572 -0.4813 -0.5229  0.4908
 4099TIP3    H133788   6.740   6.672   6.629 -1.7614  0.7293  0.5167
 4099TIP3    H233789   6.749   6.811   6.569 -0.0904 -0.3460 -1.8599
 4100TIP3   OH233790   0.521   2.355  14.091  0.3342 -0.2854 -0.9916
 4100TIP3    H133791   0.465   2.425  14.056 -0.6734 -0.9793 -0.8119
 4100TIP3    H233792   0.564   2.318  14.013  0.8957  0.5310 -1.0853
 4101TIP3   OH233793   5.221   4.081   4.679 -0.3299  0.2007  0.1623
 4101TIP3    H133794   5.255   3.994   4.658  1.2242  1.2507 -1.9079
 4101TIP3    H233795   5.129   4.065   4.703 -0.4651 -1.8594 -1.4496
 4102TIP3   OH233796   4.448   1.529  17.152 -0.6038 -0.3988 -0.1614
 4102TIP3    H133797   4.454   1.434  17.143  0.4351 -0.3001 -0.5927
 4102TIP3    H233798   4.532   1.555  17.191  0.4652  0.6580 -2.9209
 4103TIP3   OH233799   5.499   6.435   4.896 -0.3788  0.2340  0.2798
 4103TIP3    H133800   5.472   6.488   4.821 -1.4449  0.5894  0.9050
 4103TIP3    H233801   5.509   6.497   4.967 -0.5514 -0.2572  0.7381
 4104TIP3   OH233802   5.042   2.843   5.572 -0.3426  0.1263 -0.0914
 4104TIP3    H133803   5.044   2.779   5.643 -0.3436  0.9227  0.6483
 4104TIP3    H233804   4.950   2.865   5.561 -0.1802  1.7949  1.3597
 4105TIP3   OH233805   3.725   2.632  15.126  0.4581 -0.2029  0.9554
 4105TIP3    H133806   3.746   2.721  15.154 -1.0704  0.0828  1.2844
 4105TIP3    H233807   3.704   2.641  15.033 -0.7907  0.0039  1.2387
 4106TIP3   OH233808   2.902   4.414  16.103 -0.1889  0.5856 -0.0743
 4106TIP3    H133809   2.997   4.426  16.094  0.0664 -1.5858 -0.8576
 4106TIP3    H233810   2.891   4.386  16.194  0.4126 -2.4590 -0.8342
 4107TIP3   OH233811   6.588   0.832  14.059  0.1947  0.7362 -0.0028
 4107TIP3    H133812   6.550   0.757  14.107  0.3227  0.8036  0.2053
 4107TIP3    H233813   6.512   0.884  14.032  0.0061 -0.1890 -1.3649
 4108TIP3   OH233814   0.782   4.675  14.831 -0.6166 -0.7218 -0.9072
 4108TIP3    H133815   0.786   4.764  14.866  1.8215 -0.6335 -1.2532
 4108TIP3    H233816   0.698   4.641  14.862 -2.0350  1.9500 -1.4696
 4109TIP3   OH233817   4.835   4.156  16.536  0.5167 -0.6010 -0.0657
 4109TIP3    H133818   4.860   4.107  16.614  1.3404  0.2305  0.2194
 4109TIP3    H233819   4.743   4.179  16.550  0.1994 -1.8018 -0.0833
 4110TIP3   OH233820   3.566   4.138   6.299 -0.4196  0.2294  0.3395
 4110TIP3    H133821   3.637   4.201   6.290 -0.6359  0.6735  1.5912
 4110TIP3    H233822   3.486   4.190   6.289 -0.6057 -0.2592 -1.0216
 4111TIP3   OH233823   0.856   4.917   5.294  0.2608 -0.2637  0.0418
 4111TIP3    H133824   0.951   4.923   5.281  0.1545 -1.4037 -1.5364
 4111TIP3    H233825   0.835   4.826   5.275 -1.5670  0.6228 -3.0558
 4112TIP3   OH233826   6.451   5.392  13.642  0.2903 -0.4100  0.2655
 4112TIP3    H133827   6.519   5.338  13.602 -0.5230 -1.4887  0.2775
 4112TIP3    H233828   6.499   5.462  13.686  1.4107 -1.2973  0.5221
 4113TIP3   OH233829   2.912   4.767  16.838  0.0369  0.1180  0.2679
 4113TIP3    H133830   2.964   4.729  16.909 -0.6617 -0.7222  0.3508
 4113TIP3    H233831   2.846   4.820  16.883  1.2959  1.8904  0.1431
 4114TIP3   OH233832   4.622   5.948  14.479 -0.5451  0.2141  0.0682
 4114TIP3    H133833   4.534   5.980  14.496 -1.2264  0.2749 -3.0394
 4114TIP3    H233834   4.653   5.917  14.564 -4.6822 -2.6106  0.8480
 4115TIP3   OH233835   1.539   4.553  11.779 -0.2929  0.5128  0.1364
 4115TIP3    H133836   1.462   4.496  11.777 -0.5198  0.8375 -0.3738
 4115TIP3    H233837   1.520   4.616  11.849  0.4028 -0.6460  1.4056
 4116TIP3   OH233838   6.621   1.807   5.396 -0.1578  0.3620 -0.0023
 4116TIP3    H133839   6.588   1.789   5.308 -2.4199  0.2515  0.7997
 4116TIP3    H233840   6.711   1.775   5.395 -0.7132 -1.3597 -1.7327
 4117TIP3   OH233841   5.758   2.721  11.658 -0.2748 -0.1398  0.2501
 4117TIP3    H133842   5.669   2.758  11.658 -0.4435 -0.5223 -0.4533
 4117TIP3    H233843   5.800   2.760  11.735 -0.4344  1.4987 -0.4566
 4118TIP3   OH233844   3.332   5.296  16.488 -0.0007 -0.2781  0.6757
 4118TIP3    H133845   3.247   5.300  16.443 -0.7668  0.0887  2.0875
 4118TIP3    H233846   3.391   5.346  16.432 -1.0524  0.6048  0.3117
 4119TIP3   OH233847   2.299   4.043   4.807  0.3273 -0.0587 -0.3866
 4119TIP3    H133848   2.334   3.960   4.841 -0.0467 -1.0833 -2.3949
 4119TIP3    H233849   2.212   4.050   4.846 -0.9933 -2.3203 -2.6649
 4120TIP3   OH233850   4.627   3.344   6.602 -0.3432 -0.4649 -0.5444
 4120TIP3    H133851   4.612   3.275   6.666  1.5265  0.4755  1.0385
 4120TIP3    H233852   4.627   3.425   6.653 -0.4653  0.5047 -2.0051
 4121TIP3   OH233853   5.778   0.840  17.031 -0.0714  0.4501 -0.3639
 4121TIP3    H133854   5.688   0.819  17.056  0.1197  0.1651  0.1084
 4121TIP3    H233855   5.794   0.788  16.952  0.1884 -0.7183  0.4369
 4122TIP3   OH233856   5.621   0.605  12.413 -0.6945  0.1597 -0.3204
 4122TIP3    H133857   5.599   0.568  12.327  3.0916 -0.7874 -1.0625
 4122TIP3    H233858   5.629   0.529  12.471 -0.4015  0.5175  0.1192
 4123TIP3   OH233859   1.843   3.439   3.891 -0.1103 -0.2548 -0.1778
 4123TIP3    H133860   1.862   3.502   3.821  0.2001 -0.4684 -0.2855
 4123TIP3    H233861   1.929   3.416   3.926 -0.1410 -1.4399 -0.8554
 4124TIP3   OH233862   2.889   1.783   2.770  0.1002  0.4877  0.0029
 4124TIP3    H133863   2.966   1.730   2.792  0.3555  1.2032  0.8817
 4124TIP3    H233864   2.925   1.868   2.742 -0.3512  0.6604 -0.0659
 4125TIP3   OH233865   6.188   1.386  11.448 -0.3984 -0.6115 -0.1481
 4125TIP3    H133866   6.124   1.446  11.410 -0.6447 -0.8173 -0.0624
 4125TIP3    H233867   6.211   1.327  11.376 -1.0866 -1.1860  0.0941
 4126TIP3   OH233868   0.464   4.800  16.951 -0.6133  0.2316  0.9303
 4126TIP3    H133869   0.441   4.727  16.893  0.7770  0.4548  0.0476
 4126TIP3    H233870   0.555   4.783  16.975 -0.8488  0.7015  2.2500
 4127TIP3   OH233871   5.721   0.610  11.183  0.5085 -0.2732  0.5113
 4127TIP3    H133872   5.740   0.519  11.159  1.1012  0.0741 -0.3975
 4127TIP3    H233873   5.663   0.603  11.258 -2.7948 -1.5103 -1.8837
 4128TIP3   OH233874   1.558   5.208  13.910  0.3038  0.3923 -0.4451
 4128TIP3    H133875   1.620   5.136  13.897  0.1293  0.2847 -0.6798
 4128TIP3    H233876   1.484   5.167  13.954  0.8438  0.7298  0.8255
 4129TIP3   OH233877   5.191   1.226   1.211 -0.0814  0.2702 -0.2664
 4129TIP3    H133878   5.112   1.281   1.212  0.2661  0.7703  0.4276
 4129TIP3    H233879   5.219   1.221   1.302  0.6696  0.0658 -0.4957
 4130TIP3   OH233880   2.771   2.305   2.882  0.0410  0.2822 -0.3841
 4130TIP3    H133881   2.867   2.299   2.889 -0.0790 -0.0986  3.6147
 4130TIP3    H233882   2.744   2.219   2.850  1.0076 -0.4208  0.5803
 4131TIP3   OH233883   0.295   1.756  15.923 -1.1510 -0.6751  0.1570
 4131TIP3    H133884   0.299   1.817  15.849 -1.3190 -0.6854  0.1370
 4131TIP3    H233885   0.302   1.669  15.882  0.2317 -0.6376  0.2870
 4132TIP3   OH233886   4.893   2.680  11.569 -0.4095  0.0374  0.2088
 4132TIP3    H133887   4.946   2.611  11.529 -0.4171  1.4434 -2.4303
 4132TIP3    H233888   4.918   2.678  11.662  1.0237 -2.1806 -0.1390
 4133TIP3   OH233889   5.792   3.383   3.564  0.1812 -0.3600  0.3365
 4133TIP3    H133890   5.878   3.360   3.529 -0.1769  0.9684 -1.5967
 4133TIP3    H233891   5.770   3.466   3.520 -2.6017 -1.2808 -0.2030
 4134TIP3   OH233892   4.842   5.365  14.939 -0.2521  0.6711 -0.3931
 4134TIP3    H133893   4.857   5.460  14.944 -0.0822  0.7959 -2.2632
 4134TIP3    H233894   4.921   5.325  14.973 -0.8029  1.1576  1.5727
 4135TIP3   OH233895   6.758   0.574  14.525  0.1547 -0.6999 -0.2157
 4135TIP3    H133896   6.838   0.606  14.566 -0.4556  0.5446  0.0474
 4135TIP3    H233897   6.785   0.494  14.480  1.0729 -1.4761  1.6447
 4136TIP3   OH233898   4.234   3.910  16.872  0.1981 -0.4878  0.2377
 4136TIP3    H133899   4.320   3.948  16.887 -0.1510  1.2451 -1.7527
 4136TIP3    H233900   4.173   3.980  16.893 -0.5293 -0.3809 -2.0402
 4137TIP3   OH233901   3.881   1.745   4.120 -0.4396 -0.1248 -0.5419
 4137TIP3    H133902   3.896   1.666   4.172  1.4880  0.4316 -0.1517
 4137TIP3    H233903   3.893   1.718   4.030  0.8658 -0.1793 -0.3697
 4138TIP3   OH233904   4.388   3.530   1.323 -0.4153  0.0339 -0.1757
 4138TIP3    H133905   4.430   3.557   1.241  0.6189 -0.1049  0.2833
 4138TIP3    H233906   4.413   3.598   1.385 -0.3012 -0.4173  0.2764
 4139TIP3   OH233907   1.776   0.623  15.136 -0.0771  0.4871 -0.2165
 4139TIP3    H133908   1.807   0.707  15.170 -1.1874 -0.0205  2.3045
 4139TIP3    H233909   1.765   0.638  15.043  0.4446  2.9206  0.0280
 4140TIP3   OH233910   0.180   1.106  10.664  0.5034 -0.7949 -0.1267
 4140TIP3    H133911   0.213   1.167  10.598 -0.0982 -0.6180 -0.2647
 4140TIP3    H233912   0.086   1.099  10.646  0.0241  0.4412  1.6525
 4141TIP3   OH233913   1.861   2.444   1.813  0.3934 -0.0641 -0.4521
 4141TIP3    H133914   1.924   2.506   1.850 -0.3400  1.2999 -1.4181
 4141TIP3    H233915   1.904   2.358   1.822  1.6816  0.6300  0.3663
 4142TIP3   OH233916   3.981   1.213   3.451  0.9553  0.0779 -0.5056
 4142TIP3    H133917   3.919   1.279   3.420 -1.2245 -1.3745  0.5071
 4142TIP3    H233918   3.980   1.145   3.384 -0.4973 -1.0703  0.5933
 4143TIP3   OH233919   1.713   4.811  11.324 -0.1596 -0.0395 -0.1649
 4143TIP3    H133920   1.720   4.734  11.380  0.6853  0.3261  0.2421
 4143TIP3    H233921   1.620   4.814  11.299 -0.6094 -0.0384  1.4321
 4144TIP3   OH233922   0.416   2.218  11.759  0.1828 -0.5819 -0.2780
 4144TIP3    H133923   0.458   2.199  11.675 -0.1101  0.0343 -0.5766
 4144TIP3    H233924   0.463   2.294  11.793 -1.7080  1.2379 -1.4461
 4145TIP3   OH233925   3.633   1.410  10.347 -0.5583 -0.4215 -0.6186
 4145TIP3    H133926   3.629   1.344  10.277 -0.5801 -1.3650  0.2419
 4145TIP3    H233927   3.565   1.473  10.324 -2.7145 -2.3230  0.0817
 4146TIP3   OH233928   5.667   2.994  12.726  0.3017  0.0010  0.2018
 4146TIP3    H133929   5.581   2.976  12.688  0.2320 -1.1308  0.8630
 4146TIP3    H233930   5.725   2.999  12.651 -0.3063  0.6110 -0.2422
 4147TIP3   OH233931   1.722   6.789  16.742  0.5097  0.6211  0.2032
 4147TIP3    H133932   1.809   6.801  16.703  0.7538  1.2032  0.9082
 4147TIP3    H233933   1.662   6.828  16.678  0.7849  0.4352 -0.1750
 4148TIP3   OH233934   0.302   1.235  15.886  0.3676 -0.5870 -0.7127
 4148TIP3    H133935   0.303   1.217  15.792 -0.8817  0.2412 -0.9104
 4148TIP3    H233936   0.364   1.307  15.897  0.4722 -0.6454 -0.9112
 4149TIP3   OH233937   5.796   1.983  17.298 -0.3560 -0.2046 -0.5528
 4149TIP3    H133938   5.847   1.952  17.224 -0.3599  0.0814 -0.6751
 4149TIP3    H233939   5.802   1.913  17.363  1.4388  0.4239  0.0300
 4150TIP3   OH233940   1.077   2.117   2.010  0.1775  0.2059  0.1884
 4150TIP3    H133941   1.073   2.196   1.957 -1.8942 -0.6338 -1.0112
 4150TIP3    H233942   1.168   2.113   2.040  1.1495  1.3316 -2.3590
 4151TIP3   OH233943   0.988   2.619  12.153 -0.1658  0.7309 -0.0509
 4151TIP3    H133944   1.018   2.535  12.188  0.1594  1.0452  0.4474
 4151TIP3    H233945   0.991   2.678  12.228 -1.4779  0.9238 -0.1191
 4152TIP3   OH233946   1.044   2.068  16.582  0.0192  0.6775 -0.4864
 4152TIP3    H133947   1.065   2.110  16.665  1.3257  1.0157 -0.9612
 4152TIP3    H233948   0.958   2.030  16.596  0.9420 -0.8410  1.6366
 4153TIP3   OH233949   0.381   4.466   1.204  0.3585 -0.6472 -0.2216
 4153TIP3    H133950   0.428   4.455   1.122 -0.5739  1.1480 -1.0592
 4153TIP3    H233951   0.306   4.521   1.181 -0.3768 -0.7813  1.6780
 4154TIP3   OH233952   0.478   1.616   2.883 -0.0680  0.1117 -0.5596
 4154TIP3    H133953   0.569   1.621   2.853  1.1866  0.0717  2.7926
 4154TIP3    H233954   0.447   1.532   2.850  0.5939  0.6646 -2.8255
 4155TIP3   OH233955   1.096   5.698  14.552  0.0964  0.4084  0.0012
 4155TIP3    H133956   1.057   5.686  14.639  0.1198  0.0937 -0.0301
 4155TIP3    H233957   1.148   5.619  14.538  0.3587  0.6088 -0.1607
 4156TIP3   OH233958   1.563   1.152   0.878 -0.4303 -0.1901  0.1525
 4156TIP3    H133959   1.635   1.213   0.866 -0.5732 -0.2871 -1.3638
 4156TIP3    H233960   1.500   1.175   0.810 -0.9346 -1.3709  0.1892
 4157TIP3   OH233961   6.178   2.892  15.128 -0.2583  0.7447 -0.5607
 4157TIP3    H133962   6.200   2.959  15.063 -0.7443  0.8371 -0.6355
 4157TIP3    H233963   6.151   2.816  15.076 -1.7956  1.2060 -0.4810
 4158TIP3   OH233964   3.035   3.880  10.309  0.1486 -0.3537  0.1024
 4158TIP3    H133965   2.971   3.836  10.252  0.0664 -0.7827  0.5219
 4158TIP3    H233966   3.093   3.810  10.337  1.1573  0.1281 -0.7375
 4159TIP3   OH233967   4.757   6.162   3.505  0.0612 -0.2730 -0.3585
 4159TIP3    H133968   4.798   6.075   3.501 -0.7831 -0.6217 -2.2847
 4159TIP3    H233969   4.665   6.144   3.523 -0.0240  0.2696 -0.2327
 4160TIP3   OH233970   5.819   2.343  16.564  0.3487  0.5313 -0.0326
 4160TIP3    H133971   5.839   2.415  16.625  1.2492 -0.2423  0.6179
 4160TIP3    H233972   5.762   2.383  16.498 -0.2660  1.5158  1.0450
 4161TIP3   OH233973   1.024   1.662  16.536 -0.1821  0.0831  0.3109
 4161TIP3    H133974   0.957   1.618  16.485  0.3194  1.7459 -1.9318
 4161TIP3    H233975   0.976   1.707  16.606 -1.2767  0.3164 -0.5777
 4162TIP3   OH233976   1.523   3.855   4.105  0.3152 -0.1037 -0.0432
 4162TIP3    H133977   1.539   3.826   4.195 -2.6719 -0.9127  0.3462
 4162TIP3    H233978   1.596   3.819   4.055  1.2489 -0.9417  1.8190
 4163TIP3   OH233979   0.785   1.208  15.413  0.0010 -0.6749  0.3657
 4163TIP3    H133980   0.800   1.250  15.328 -0.8100 -1.6955 -0.3113
 4163TIP3    H233981   0.869   1.216  15.458  0.0978  0.9530 -0.0334
 4164TIP3   OH233982   4.650   0.437  13.728 -0.0792  0.4007 -0.0775
 4164TIP3    H133983   4.647   0.532  13.719  1.3243  0.6171  1.3324
 4164TIP3    H233984   4.634   0.403  13.640  3.7193  2.0348 -1.5680
 4165TIP3   OH233985   5.370   2.016  17.083  0.1315 -0.3355  0.1812
 4165TIP3    H133986   5.390   1.930  17.118  0.6318  0.5616  2.2389
 4165TIP3    H233987   5.431   2.075  17.128  1.4053  0.8649 -2.7972
 4166TIP3   OH233988   6.295   0.413   3.644 -0.3601  0.1803 -0.2544
 4166TIP3    H133989   6.366   0.371   3.694 -1.1215  0.5459  1.1951
 4166TIP3    H233990   6.337   0.446   3.565  1.1641  0.7215  0.7523
 4167TIP3   OH233991   3.647   0.383  13.292  0.2779  0.2579 -0.1976
 4167TIP3    H133992   3.554   0.398  13.307  0.7693  0.5677  3.6820
 4167TIP3    H233993   3.659   0.290  13.309  0.8493  0.5091  0.8731
 4168TIP3   OH233994   0.377   6.260   4.123  0.4380 -0.2080  0.4899
 4168TIP3    H133995   0.343   6.348   4.140  0.7993 -0.2005  1.2271
 4168TIP3    H233996   0.309   6.218   4.071  0.2827  0.5206  0.0855
 4169TIP3   OH233997   5.326   0.028   5.005  0.4416  0.4870  0.2655
 4169TIP3    H133998   5.419   0.043   5.022  0.8636 -1.5478 -0.0976
 4169TIP3    H233999   5.282   0.060   5.085  1.5023  0.6899  0.7846
 4170TIP3   OH234000   3.868   0.238  14.186  0.6830  0.0114 -0.1220
 4170TIP3    H134001   3.859   0.143  14.196  0.4852  0.1551  1.3227
 4170TIP3    H234002   3.893   0.251  14.094 -0.6975 -1.3270 -0.7259
 4171TIP3   OH234003   1.369   3.081   5.007 -0.2678 -0.0422  0.0572
 4171TIP3    H134004   1.341   3.120   5.090  0.8241  2.2852 -0.5603
 4171TIP3    H234005   1.455   3.045   5.025  0.1417  0.8149 -0.1108
 4172TIP3   OH234006   4.370   0.513   0.720  0.5819 -0.0677  0.4539
 4172TIP3    H134007   4.418   0.587   0.683 -0.8653  0.8024  0.2198
 4172TIP3    H234008   4.398   0.438   0.667 -1.7794  1.2077 -2.9681
 4173TIP3   OH234009   5.654   6.186   2.424  0.7782 -1.0692  0.4273
 4173TIP3    H134010   5.653   6.161   2.331  1.1906  0.5104 -0.0458
 4173TIP3    H234011   5.563   6.203   2.445  0.9532  1.9464 -0.7503
 4174TIP3   OH234012   3.525   6.271  12.575  0.2617 -0.4772  0.5675
 4174TIP3    H134013   3.482   6.230  12.650  1.1370  0.1845  1.4612
 4174TIP3    H234014   3.527   6.203  12.508 -0.6563 -1.0386  1.0900
 4175TIP3   OH234015   5.893   4.465   3.703  0.1782  0.1348 -0.0065
 4175TIP3    H134016   5.827   4.534   3.700 -0.1007 -0.1261 -0.0083
 4175TIP3    H234017   5.947   4.486   3.779  0.2088  0.4569 -0.1180
 4176TIP3   OH234018   4.066   2.605   1.364  0.1351 -0.1019 -0.1262
 4176TIP3    H134019   4.071   2.650   1.449  0.7548  2.0706 -1.2255
 4176TIP3    H234020   3.985   2.639   1.325 -0.6688 -1.8332 -0.0534
 4177TIP3   OH234021   5.060   6.206  11.884  0.1078 -0.3224 -0.0214
 4177TIP3    H134022   5.098   6.127  11.921 -2.5868 -1.8529 -0.2898
 4177TIP3    H234023   4.971   6.209  11.917  0.1709  2.8150  0.1987
 4178TIP3   OH234024   0.388   0.512   2.706  0.9190 -0.0266 -0.0629
 4178TIP3    H134025   0.465   0.555   2.743  0.4592  0.7169  0.0542
 4178TIP3    H234026   0.318   0.577   2.714  0.0638 -1.0131  0.6331
 4179TIP3   OH234027   2.026   2.306   3.036  0.2481 -0.2143 -0.2775
 4179TIP3    H134028   2.033   2.310   2.940  1.0542  0.3335 -0.2077
 4179TIP3    H234029   2.050   2.394   3.065 -0.5593 -0.2177  0.4018
 4180TIP3   OH234030   6.305   2.777  11.593  0.1868 -0.0790  0.7238
 4180TIP3    H134031   6.289   2.833  11.516  1.7322 -1.4649 -0.6812
 4180TIP3    H234032   6.222   2.732  11.607 -0.1357  0.2359 -0.0893
 4181TIP3   OH234033   3.920   5.591  13.475  0.1035 -0.1610  0.1283
 4181TIP3    H134034   3.980   5.658  13.506  1.0407  0.1203 -2.1113
 4181TIP3    H234035   3.962   5.508  13.497  1.2734  0.0350 -1.1928
 4182TIP3   OH234036   4.668   4.225   0.914 -0.2451  0.0440 -0.4205
 4182TIP3    H134037   4.674   4.267   0.829  1.0634 -1.8064 -1.3007
 4182TIP3    H234038   4.594   4.165   0.906 -0.1266 -0.1258 -0.2451
 4183TIP3   OH234039   4.791   1.414  11.250 -0.1673 -0.3810 -0.3273
 4183TIP3    H134040   4.710   1.463  11.238 -0.3009 -1.1935 -3.5768
 4183TIP3    H234041   4.762   1.330  11.287 -0.5278  0.1302  0.5714
 4184TIP3   OH234042   2.162   4.968  12.502  0.3141 -0.2507 -0.0159
 4184TIP3    H134043   2.118   5.019  12.570  0.7466  1.0436 -0.6647
 4184TIP3    H234044   2.209   5.033  12.451 -0.1989 -1.1503 -1.7120
 4185TIP3   OH234045   1.456   0.019  15.787  0.1220 -0.0254 -0.4877
 4185TIP3    H134046   1.472   0.113  15.793 -0.9043  0.3501 -2.6937
 4185TIP3    H234047   1.518  -0.012  15.721  0.0604 -0.8177 -0.1871
 4186TIP3   OH234048   0.006   6.357   3.270 -0.3876 -0.6197 -0.3764
 4186TIP3    H134049  -0.038   6.425   3.220  0.8191 -0.5725 -1.3981
 4186TIP3    H234050   0.005   6.280   3.213  0.6442 -0.6878 -0.3092
 4187TIP3   OH234051   2.678   5.453   5.751  0.5550  0.2033 -0.0849
 4187TIP3    H134052   2.645   5.524   5.806 -3.7073 -0.5000 -1.3476
 4187TIP3    H234053   2.688   5.379   5.811 -0.8959  0.3045  0.3223
 4188TIP3   OH234054   5.653   3.249  14.112  0.4703  0.1755  0.4654
 4188TIP3    H134055   5.629   3.222  14.023 -0.5943  0.1595  0.7408
 4188TIP3    H234056   5.666   3.167  14.159 -1.3423  0.1136  0.9277
 4189TIP3   OH234057   6.123   2.467   0.882  0.1804  0.7056  0.5113
 4189TIP3    H134058   6.088   2.417   0.956  0.3741  0.6304  0.5531
 4189TIP3    H234059   6.050   2.475   0.821 -0.5282  2.2881  1.4814
 4190TIP3   OH234060   6.317   0.554  13.184 -0.0742  0.6223 -0.4375
 4190TIP3    H134061   6.271   0.544  13.267 -0.2804 -0.4966 -0.6652
 4190TIP3    H234062   6.404   0.585  13.208 -0.1619  0.3882  0.1896
 4191TIP3   OH234063   1.378   4.445  14.136 -0.2010 -0.0430 -0.2255
 4191TIP3    H134064   1.361   4.352  14.125 -1.4731  0.2867 -1.5081
 4191TIP3    H234065   1.343   4.485  14.056  0.8670  1.4734  0.0129
 4192TIP3   OH234066   0.587   5.903   3.994 -0.0523  0.3694  0.4224
 4192TIP3    H134067   0.671   5.947   4.003 -0.0677  0.6528 -0.6569
 4192TIP3    H234068   0.607   5.819   3.954 -0.3714  0.9865 -1.1485
 4193TIP3   OH234069   5.468   5.837   2.707  0.3446 -0.2560 -0.5496
 4193TIP3    H134070   5.541   5.791   2.750  0.1085  0.5258  0.7409
 4193TIP3    H234071   5.504   5.864   2.622  2.0893  1.3458  0.5964
 4194TIP3   OH234072   2.786   3.153  12.989 -0.0225 -0.4717  0.1458
 4194TIP3    H134073   2.727   3.168  13.063  3.0504  0.4571  2.6246
 4194TIP3    H234074   2.798   3.058  12.988 -1.8153 -0.7355 -0.7204
 4195TIP3   OH234075   4.315   4.566   5.733 -0.3137 -0.2117 -0.4930
 4195TIP3    H134076   4.378   4.520   5.788 -1.4126  0.9449  1.8708
 4195TIP3    H234077   4.232   4.520   5.749 -0.5110 -0.3419 -1.8225
 4196TIP3   OH234078   3.354   4.881   2.583 -0.1580 -0.3326 -0.6510
 4196TIP3    H134079   3.340   4.808   2.522 -2.3552 -0.2224 -0.3618
 4196TIP3    H234080   3.449   4.888   2.591  0.1333 -3.0922 -0.7743
 4197TIP3   OH234081   0.529   1.145   6.407  0.1502 -0.4184 -0.3816
 4197TIP3    H134082   0.555   1.055   6.386 -0.8735 -1.9300  3.8137
 4197TIP3    H234083   0.434   1.140   6.417 -0.0505  1.4300 -0.9774
 4198TIP3   OH234084   6.744   4.719   0.120 -0.5158  0.1390 -0.0951
 4198TIP3    H134085   6.821   4.748   0.169  0.1408 -0.0559 -0.9807
 4198TIP3    H234086   6.682   4.690   0.187  0.4412 -0.3195  0.6172
 4199TIP3   OH234087   6.383   2.302   2.224  0.1138 -0.2911 -0.1835
 4199TIP3    H134088   6.349   2.246   2.294  0.6288 -0.1082  0.2172
 4199TIP3    H234089   6.307   2.355   2.197  0.3105  0.9653  1.5330
 4200TIP3   OH234090   0.965   5.254  16.745  0.4684 -0.5668  0.3336
 4200TIP3    H134091   1.036   5.298  16.699  1.0892 -2.2475 -0.4172
 4200TIP3    H234092   0.897   5.243  16.679  0.4853 -1.0787  0.3978
 4201TIP3   OH234093   0.743   1.975  13.990 -0.3390 -0.2685 -0.1478
 4201TIP3    H134094   0.735   1.880  13.980  2.0061 -0.3224 -2.8357
 4201TIP3    H234095   0.829   1.988  14.029  0.0103  0.7401 -1.1850
 4202TIP3   OH234096   0.534   4.726  14.514 -0.0297  0.2034  0.1233
 4202TIP3    H134097   0.582   4.651  14.549  1.0816  0.5348 -0.6240
 4202TIP3    H234098   0.462   4.739  14.575  1.1284  0.0164  1.5929
 4203TIP3   OH234099   6.559   4.489  14.936 -0.0060  0.1905  0.5212
 4203TIP3    H134100   6.633   4.524  14.886 -0.6479  2.2532  0.8977
 4203TIP3    H234101   6.560   4.395  14.919  1.1036  0.5355 -1.5907
 4204TIP3   OH234102   4.712   6.069  10.349 -0.2722  0.4626 -0.4094
 4204TIP3    H134103   4.674   5.984  10.329  1.5092 -0.4148 -0.2530
 4204TIP3    H234104   4.675   6.093  10.435  0.6371 -1.0738  0.4516
 4205TIP3   OH234105   6.801   1.160  15.216 -0.0183  0.1144  0.3037
 4205TIP3    H134106   6.850   1.122  15.289 -0.1036  1.7229  1.2636
 4205TIP3    H234107   6.815   1.100  15.144 -0.5400 -1.9317  1.8277
 4206TIP3   OH234108   0.298   5.213  16.684 -0.5875  0.3623  0.4541
 4206TIP3    H134109   0.223   5.247  16.635 -0.3335 -1.9188 -1.7485
 4206TIP3    H234110   0.259   5.158  16.752 -0.9184  2.8472  2.4259
 4207TIP3   OH234111   0.663   6.780  13.626 -0.2769  0.4398  0.2833
 4207TIP3    H134112   0.590   6.841  13.619 -0.3468  0.1140 -3.0303
 4207TIP3    H234113   0.642   6.710  13.564  2.2998 -0.2400  0.0882
 4208TIP3   OH234114   6.644   4.690  14.740 -0.0116 -0.0595 -0.2571
 4208TIP3    H134115   6.611   4.637  14.667 -0.2784 -0.8693  0.4443
 4208TIP3    H234116   6.632   4.781  14.710 -0.2799 -0.3757 -1.1464
 4209TIP3   OH234117   2.216   2.972   5.344 -0.0413  0.8012 -0.5392
 4209TIP3    H134118   2.166   2.890   5.351 -0.8909  1.3985  0.7431
 4209TIP3    H234119   2.305   2.948   5.368  0.4017 -0.2992 -2.9162
 4210TIP3   OH234120   5.121   3.458  14.405  0.0494  0.2608  0.2208
 4210TIP3    H134121   5.051   3.408  14.363 -1.7007  1.3911  1.6182
 4210TIP3    H234122   5.190   3.394  14.422 -0.8951 -1.0298 -0.6714
 4211TIP3   OH234123   2.700   4.636  11.833 -0.1560  0.8133  0.0598
 4211TIP3    H134124   2.648   4.631  11.913 -0.5158  2.8381  0.0016
 4211TIP3    H234125   2.671   4.717  11.791  1.1812  0.6194 -1.3011
 4212TIP3   OH234126   0.246   3.226  10.793 -0.6488 -0.3278  0.4105
 4212TIP3    H134127   0.214   3.177  10.717 -2.0291 -0.5093  1.0761
 4212TIP3    H234128   0.302   3.294  10.756 -0.8960 -0.7262 -0.7305
 4213TIP3   OH234129   3.846   2.158  12.550 -0.5981 -0.2387 -0.0147
 4213TIP3    H134130   3.807   2.244  12.569 -2.2981 -0.6842 -1.2288
 4213TIP3    H234131   3.850   2.155  12.455  0.0951 -1.2397  0.0402
 4214TIP3   OH234132   5.224   0.289   6.067  0.1019 -0.2247 -0.1419
 4214TIP3    H134133   5.286   0.275   6.138 -0.7510 -0.3947  0.5795
 4214TIP3    H234134   5.252   0.227   5.999 -0.9165 -2.3094  1.2539
 4215TIP3   OH234135   6.398   5.829  13.323  0.1981 -0.4508  0.4217
 4215TIP3    H134136   6.479   5.780  13.310 -0.1588 -0.5188 -1.9304
 4215TIP3    H234137   6.331   5.761  13.336 -0.3620 -0.7720 -3.2097
 4216TIP3   OH234138   3.399   5.379  16.797 -0.3260 -0.2672  0.0027
 4216TIP3    H134139   3.306   5.373  16.771 -0.1015  2.0008 -1.6327
 4216TIP3    H234140   3.447   5.372  16.714  0.8684  0.3407  0.6227
 4217TIP3   OH234141   5.770   0.059  11.578 -0.8393 -0.2262 -0.2529
 4217TIP3    H134142   5.757   0.037  11.485  0.3883  0.4809 -0.6074
 4217TIP3    H234143   5.694   0.112  11.600  0.2221  2.0187 -1.6825
 4218TIP3   OH234144   4.228   4.114  14.500  0.1845 -0.2520  0.2941
 4218TIP3    H134145   4.262   4.025  14.500  0.3471 -0.1944 -0.0749
 4218TIP3    H234146   4.306   4.169  14.496  0.2438  0.0085  3.3730
 4219TIP3   OH234147   4.474   0.379  12.898 -0.1166  0.7288  0.4340
 4219TIP3    H134148   4.432   0.385  12.984  3.2261  1.2784  2.2036
 4219TIP3    H234149   4.483   0.285  12.881 -0.6232  0.6196  0.7556
 4220TIP3   OH234150   5.406   6.113   1.868  0.2553  0.9447 -0.5902
 4220TIP3    H134151   5.406   6.092   1.961  0.2865 -2.2777 -1.2002
 4220TIP3    H234152   5.378   6.205   1.864  1.9499  1.7666  2.6392
 4221TIP3   OH234153   2.563   2.418   5.749  0.1580 -0.1208 -0.0597
 4221TIP3    H134154   2.489   2.411   5.809  0.5558  1.1270  0.6142
 4221TIP3    H234155   2.587   2.511   5.751  1.6729 -0.4766 -0.3436
 4222TIP3   OH234156   2.264   0.374   5.337  0.4667 -0.1437 -0.0199
 4222TIP3    H134157   2.260   0.391   5.243 -2.8416 -0.1722 -0.0045
 4222TIP3    H234158   2.329   0.304   5.347 -0.4769 -1.4911 -2.5573
 4223TIP3   OH234159   4.264   2.755  15.056  0.1653  0.3606  0.6715
 4223TIP3    H134160   4.197   2.686  15.055  1.4219 -0.9442  1.5029
 4223TIP3    H234161   4.225   2.826  15.106 -0.3156 -0.7186  1.8927
 4224TIP3   OH234162   3.062   1.315  12.254 -0.6347  0.7705 -0.9799
 4224TIP3    H134163   3.023   1.401  12.270  1.4305  1.2528  2.5037
 4224TIP3    H234164   3.004   1.254  12.302 -0.4762  0.6427 -0.9499
 4225TIP3   OH234165   6.574   5.352  13.282 -0.1967 -0.2429 -0.2719
 4225TIP3    H134166   6.592   5.313  13.196 -1.7172 -2.5807  0.3837
 4225TIP3    H234167   6.518   5.288  13.326 -0.5477  1.5034  1.9829
 4226TIP3   OH234168   3.859   2.362  17.246  0.0939 -0.2568 -0.3593
 4226TIP3    H134169   3.931   2.299  17.248 -0.1012 -0.4802 -0.3880
 4226TIP3    H234170   3.781   2.311  17.266 -0.0054  0.0626  0.0946
 4227TIP3   OH234171   4.939   5.994   1.378  0.1945  0.0759  0.2216
 4227TIP3    H134172   4.910   6.038   1.458  0.6300  2.7513 -0.9529
 4227TIP3    H234173   4.888   6.036   1.309 -0.9742 -2.9157 -0.8913
 4228TIP3   OH234174   4.218   2.714   5.194  0.0921 -0.0273  0.8261
 4228TIP3    H134175   4.294   2.742   5.144 -1.1269  0.4121 -0.8745
 4228TIP3    H234176   4.252   2.649   5.256  1.7358 -0.2661 -0.2760
 4229TIP3   OH234177   2.417   5.842  12.283  0.5089 -0.0668 -0.5316
 4229TIP3    H134178   2.380   5.867  12.199 -1.2440 -2.5449 -0.6092
 4229TIP3    H234179   2.445   5.751  12.271 -1.5227 -1.1678  1.9865
 4230TIP3   OH234180   4.313   0.010   3.439 -0.1413 -0.3178 -0.3563
 4230TIP3    H134181   4.359   0.082   3.481  1.0645 -1.4485  0.3223
 4230TIP3    H234182   4.341   0.013   3.347  1.1700 -0.8699  0.0076
 4231TIP3   OH234183   4.139   3.426  13.048  0.4025  0.2285 -0.1398
 4231TIP3    H134184   4.049   3.439  13.018  0.1680  1.4053  0.9450
 4231TIP3    H234185   4.189   3.494  13.003  0.5553  0.2287  0.0292
 4232TIP3   OH234186   5.794   0.327  14.376  0.4823 -0.0582 -0.0223
 4232TIP3    H134187   5.773   0.272  14.451  1.1855 -0.5531 -0.1739
 4232TIP3    H234188   5.890   0.326  14.371  0.4887  0.8386 -0.2878
 4233TIP3   OH234189   5.154   4.307  12.100  0.6275 -0.1518 -0.5608
 4233TIP3    H134190   5.145   4.282  12.008 -0.1011 -0.3681 -0.4419
 4233TIP3    H234191   5.072   4.277  12.141  0.9099  0.0089  0.1406
 4234TIP3   OH234192   6.497   6.796  13.532  0.1808  0.0893  0.0533
 4234TIP3    H134193   6.504   6.881  13.490  0.9465  0.8591  1.6474
 4234TIP3    H234194   6.542   6.806  13.616 -0.4394 -1.6431  0.6591
 4235TIP3   OH234195   2.663   2.213  16.029  0.0203 -0.1007 -0.1372
 4235TIP3    H134196   2.751   2.216  16.068 -0.2768  0.3235  0.5444
 4235TIP3    H234197   2.677   2.228  15.936  0.6207  0.6896  0.0685
 4236TIP3   OH234198   2.054   6.250  14.239  0.2418  0.0613 -0.3271
 4236TIP3    H134199   2.115   6.195  14.287  0.7320 -0.3455 -1.3829
 4236TIP3    H234200   1.984   6.190  14.212  0.4532  0.0774 -0.9295
 4237TIP3   OH234201   1.315   1.394  16.745 -0.4045  0.3995  0.2042
 4237TIP3    H134202   1.402   1.414  16.709  0.2797 -1.3041  0.7853
 4237TIP3    H234203   1.254   1.419  16.675  0.5662  1.3111 -0.3441
 4238TIP3   OH234204   2.687   6.529  12.496  0.3458 -0.6338  0.0413
 4238TIP3    H134205   2.673   6.580  12.416  1.7188 -0.1204  0.1100
 4238TIP3    H234206   2.777   6.547  12.521 -0.3497  0.0337  2.2850
 4239TIP3   OH234207   3.039   5.480  15.029 -0.2683  0.0837 -0.0573
 4239TIP3    H134208   3.002   5.403  15.071  0.7068 -0.6731 -0.5415
 4239TIP3    H234209   3.010   5.554  15.083 -1.9636 -0.5175 -0.0927
 4240TIP3   OH234210   0.912   5.152  16.993 -0.0987 -0.4429  0.2689
 4240TIP3    H134211   0.818   5.146  16.977 -0.0540  1.4044 -0.9796
 4240TIP3    H234212   0.949   5.176  16.908  1.4361 -0.5644  0.8730
 4241TIP3   OH234213   2.772   6.495  16.217  1.2482  0.6439  0.1801
 4241TIP3    H134214   2.752   6.439  16.142  0.1806 -0.8156  1.5116
 4241TIP3    H234215   2.844   6.450  16.262 -1.1731 -1.1021  2.6094
 4242TIP3   OH234216   5.544   6.219   3.758  0.0806 -0.1364  0.4878
 4242TIP3    H134217   5.552   6.144   3.699 -0.2646 -1.0157  1.5137
 4242TIP3    H234218   5.596   6.195   3.835 -0.1939  0.5934  0.9168
 4243TIP3   OH234219   6.300   2.221   6.150  0.3560  0.5231  0.7241
 4243TIP3    H134220   6.323   2.143   6.201  1.6326  0.8026  0.6042
 4243TIP3    H234221   6.248   2.274   6.211 -2.3368 -1.2732  0.1906
 4244TIP3   OH234222   1.394   3.881   3.878  0.2669 -0.2709 -0.4173
 4244TIP3    H134223   1.302   3.897   3.899  0.4733  2.7086 -1.4268
 4244TIP3    H234224   1.433   3.857   3.962 -1.1496 -0.1921  0.2977
 4245TIP3   OH234225   6.403   6.630   2.267  1.0060 -0.1047  0.6226
 4245TIP3    H134226   6.419   6.701   2.331 -2.0742  0.4334  0.9824
 4245TIP3    H234227   6.372   6.557   2.321  0.1366 -0.2667 -0.0831
 4246TIP3   OH234228   5.941   4.192   5.461  0.2892  0.2194 -0.0614
 4246TIP3    H134229   5.901   4.145   5.535  0.9859 -0.4983 -0.1211
 4246TIP3    H234230   5.928   4.133   5.386 -0.1361  0.8035 -0.4549
 4247TIP3   OH234231   3.758   2.599   1.737  0.4487 -0.5441  0.5036
 4247TIP3    H134232   3.712   2.547   1.803  0.8854  0.5936  1.7366
 4247TIP3    H234233   3.714   2.684   1.739  1.0786 -0.2026  0.0047
 4248TIP3   OH234234   5.801   4.353  13.061  0.2118  0.3024 -0.3619
 4248TIP3    H134235   5.722   4.406  13.076  0.6034  1.1145 -1.0524
 4248TIP3    H234236   5.826   4.373  12.971  1.0335 -0.1866 -0.2484
 4249TIP3   OH234237   5.307   1.666   5.165  0.4825 -0.0797 -0.4318
 4249TIP3    H134238   5.366   1.737   5.187 -0.1824  0.5691 -0.7165
 4249TIP3    H234239   5.233   1.708   5.121  1.3833 -1.2062 -3.2814
 4250TIP3   OH234240   1.808   1.425   6.223 -0.2580 -0.1854  0.9710
 4250TIP3    H134241   1.848   1.405   6.308  0.8787 -1.4284  0.1819
 4250TIP3    H234242   1.875   1.400   6.159 -0.9675  1.0442 -0.2882
 4251TIP3   OH234243   2.208   3.105   0.963  0.8150 -1.0294 -0.3700
 4251TIP3    H134244   2.118   3.076   0.949  1.0182 -2.7098  1.3798
 4251TIP3    H234245   2.253   3.084   0.882 -0.1189 -1.1247 -0.8835
 4252TIP3   OH234246   6.353   3.327  12.068 -0.2096 -0.2019  0.6054
 4252TIP3    H134247   6.444   3.352  12.081 -0.3148  0.3632  0.2841
 4252TIP3    H234248   6.312   3.338  12.154 -0.5032  1.8125  0.2519
 4253TIP3   OH234249   0.237   5.754  11.189  0.3881  0.0408  0.0352
 4253TIP3    H134250   0.158   5.709  11.217  0.0176  0.7718  0.1676
 4253TIP3    H234251   0.271   5.699  11.118  0.0358 -0.5334  0.2994
 4254TIP3   OH234252   6.556   3.922  13.920 -0.1929 -0.6224 -0.2779
 4254TIP3    H134253   6.528   3.864  13.849 -0.0778 -1.0881  0.0500
 4254TIP3    H234254   6.583   4.003  13.876 -1.2347 -0.4714 -0.6711
 4255TIP3   OH234255   0.993   5.274  10.984  0.5493 -0.0727  0.3562
 4255TIP3    H134256   0.915   5.256  10.931  1.2385 -0.2380 -0.6276
 4255TIP3    H234257   1.026   5.187  11.008 -0.7675 -0.0085  2.6280
 4256TIP3   OH234258   0.111   6.418  15.919  0.3720 -0.6001  0.1453
 4256TIP3    H134259   0.176   6.387  15.981 -0.6818 -1.2693  0.9470
 4256TIP3    H234260   0.111   6.513  15.930  1.8005 -0.4960 -0.4873
 4257TIP3   OH234261   5.810   4.361   4.279  0.3750 -0.0846  0.1594
 4257TIP3    H134262   5.751   4.396   4.212  0.1618 -0.8058 -0.0442
 4257TIP3    H234263   5.752   4.312   4.338  0.7415 -0.6495  0.0575
 4258TIP3   OH234264   6.243   0.360  16.756 -0.2331 -0.7208  0.6827
 4258TIP3    H134265   6.165   0.324  16.797 -0.8267  0.8133  0.9619
 4258TIP3    H234266   6.278   0.422  16.821  0.1894 -0.0632 -0.1440
 4259TIP3   OH234267   3.802   0.071   1.365 -0.0034 -0.0566 -0.0796
 4259TIP3    H134268   3.835  -0.017   1.385  2.4061  0.3891 -1.6398
 4259TIP3    H234269   3.861   0.130   1.412  0.4377  0.7646 -1.5904
 4260TIP3   OH234270   0.618   4.621  12.397  0.3379 -0.5483  0.4366
 4260TIP3    H134271   0.656   4.678  12.464  0.8059 -2.6736  2.0507
 4260TIP3    H234272   0.636   4.668  12.315  1.6069  1.1347  1.5810
 4261TIP3   OH234273   5.226   0.329  12.141 -0.3088  0.3716  0.5169
 4261TIP3    H134274   5.144   0.363  12.103 -0.0445 -1.4672 -1.9754
 4261TIP3    H234275   5.232   0.240  12.106  1.8553 -0.1821  2.1587
 4262TIP3   OH234276   0.516   3.060  12.650 -0.0599 -0.0981  0.1781
 4262TIP3    H134277   0.579   3.042  12.580 -0.5704 -0.7376 -0.1319
 4262TIP3    H234278   0.483   2.974  12.675 -0.4293  0.1901  0.6944
 4263TIP3   OH234279   5.185   2.181  13.196 -0.0537  0.1944  0.5385
 4263TIP3    H134280   5.130   2.245  13.153 -0.5672 -1.4485 -1.3895
 4263TIP3    H234281   5.270   2.224  13.205 -0.6850  1.5183  0.3696
 4264TIP3   OH234282   5.713   0.922  11.446 -0.3332 -0.6055  0.1291
 4264TIP3    H134283   5.776   0.937  11.376 -2.1869 -1.0218 -1.6988
 4264TIP3    H234284   5.762   0.871  11.511  1.0886 -1.2749 -1.3930
 4265TIP3   OH234285   5.138   1.528   1.792  0.4251  0.6474 -0.5658
 4265TIP3    H134286   5.220   1.481   1.782  0.0283  0.2445 -2.1306
 4265TIP3    H234287   5.164   1.620   1.799  1.1561  0.3297  1.7888
 4266TIP3   OH234288   2.180   0.941   0.282 -0.4128  0.7211  0.1679
 4266TIP3    H134289   2.249   0.876   0.268  0.7441  1.7361  0.9284
 4266TIP3    H234290   2.225   1.016   0.318 -2.1403  0.8915  2.1666
 4267TIP3   OH234291   4.578   2.963   5.283  0.7112 -0.3201 -0.1200
 4267TIP3    H134292   4.543   3.003   5.203  0.0448  1.1982  0.8671
 4267TIP3    H234293   4.503   2.918   5.321  1.1756 -1.5510 -0.6325
 4268TIP3   OH234294   1.155   6.580  16.117  0.3432 -0.1967  0.3627
 4268TIP3    H134295   1.224   6.515  16.108  1.3275  0.8380  0.2659
 4268TIP3    H234296   1.157   6.630  16.035  0.4261  0.7330  0.9117
 4269TIP3   OH234297   3.872   0.292   0.940  0.0842 -0.0006 -0.1240
 4269TIP3    H134298   3.786   0.250   0.945 -1.0703  2.1810 -0.6042
 4269TIP3    H234299   3.853   0.383   0.919  2.3737  1.1619  2.2380
 4270TIP3   OH234300   5.949   0.220  11.729  0.1031  0.0287 -0.3146
 4270TIP3    H134301   5.875   0.178  11.685 -1.8386  0.5702  2.2293
 4270TIP3    H234302   6.012   0.149  11.741 -0.3164 -0.6476 -1.7535
 4271TIP3   OH234303   5.147   4.792   1.193 -0.0504  0.2112  0.0587
 4271TIP3    H134304   5.054   4.780   1.215  0.1538  2.2645  2.5507
 4271TIP3    H234305   5.171   4.711   1.147 -2.8202 -0.7938  0.1640
 4272TIP3   OH234306   4.826   5.622  16.939  0.6938 -0.3141 -0.7760
 4272TIP3    H134307   4.762   5.684  16.905  2.0933  1.9285  0.4448
 4272TIP3    H234308   4.883   5.604  16.865 -0.4031 -1.1170 -1.4557
 4273TIP3   OH234309   6.193   1.704   4.914 -0.2237 -0.0312  0.0986
 4273TIP3    H134310   6.170   1.788   4.954 -0.5730 -0.4579  0.7987
 4273TIP3    H234311   6.163   1.711   4.823 -0.2895  0.5783  0.1656
 4274TIP3   OH234312   3.759   0.098  15.501  0.3813  0.3195  0.3641
 4274TIP3    H134313   3.697   0.066  15.566 -0.0384  0.4503  0.0348
 4274TIP3    H234314   3.830   0.137  15.552  0.1590  0.2351  0.7412
 4275TIP3   OH234315   2.139   2.321   2.781 -0.0467  0.1474  0.5208
 4275TIP3    H134316   2.171   2.403   2.744 -1.7674  0.8496  0.4746
 4275TIP3    H234317   2.210   2.291   2.837  0.7922  1.4467  0.2184
 4276TIP3   OH234318   4.778   5.679  14.676 -0.5176  0.6364 -0.4417
 4276TIP3    H134319   4.799   5.701  14.767 -0.8538  0.3782 -0.3000
 4276TIP3    H234320   4.682   5.680  14.672 -0.5738 -1.0544 -0.3586
 4277TIP3   OH234321   6.385   2.393  16.370  0.0988  0.2724 -0.1324
 4277TIP3    H134322   6.295   2.360  16.369 -0.0596  0.6767 -1.1419
 4277TIP3    H234323   6.379   2.479  16.327  0.9352  0.3732 -0.0614
 4278TIP3   OH234324   2.704   2.555   2.988  0.3093 -0.1537 -0.2144
 4278TIP3    H134325   2.776   2.562   3.050 -0.6724 -1.2455  1.1093
 4278TIP3    H234326   2.719   2.471   2.943 -0.5329 -0.7947  0.6507
 4279TIP3   OH234327   4.508   5.285  15.240 -0.3668 -0.2983 -1.0130
 4279TIP3    H134328   4.453   5.207  15.239  0.2602 -0.7673 -0.0906
 4279TIP3    H234329   4.598   5.253  15.244 -0.1110  0.4560 -0.2877
 4280TIP3   OH234330   5.850   2.325  13.913  0.0442 -0.2115  0.1199
 4280TIP3    H134331   5.913   2.258  13.941 -0.6287 -1.1007 -0.4336
 4280TIP3    H234332   5.768   2.277  13.901 -1.0806  1.0804  1.9201
 4281TIP3   OH234333   0.960   2.988  14.796  0.0114  0.4158  0.2665
 4281TIP3    H134334   0.900   2.956  14.730 -0.9075 -0.7816  1.6188
 4281TIP3    H234335   0.904   3.013  14.870  1.0684  0.6669  1.0120
 4282TIP3   OH234336   1.093   4.054   0.730  0.2655  0.5062 -0.2883
 4282TIP3    H134337   1.003   4.035   0.755  0.7334 -0.6110  0.6425
 4282TIP3    H234338   1.123   4.119   0.793  0.4070  0.1669 -0.0051
 4283TIP3   OH234339   2.689   0.402   1.508 -0.5748 -0.0468  0.2561
 4283TIP3    H134340   2.704   0.409   1.602 -0.3434 -0.1682  0.2275
 4283TIP3    H234341   2.721   0.315   1.485  0.8342  0.5629 -0.2176
 4284TIP3   OH234342   0.292   1.762  16.929 -0.1713  0.2035  0.6064
 4284TIP3    H134343   0.359   1.707  16.970 -0.5811  0.0210  1.0435
 4284TIP3    H234344   0.302   1.746  16.835 -0.9953 -1.4947  0.7590
 4285TIP3   OH234345   0.843   0.897  10.969  0.0210 -0.2919  0.0684
 4285TIP3    H134346   0.923   0.944  10.945 -0.7242  0.5561 -0.7919
 4285TIP3    H234347   0.800   0.953  11.034 -1.5563  0.9536 -1.9625
 4286TIP3   OH234348   4.988   3.091   4.450  0.0965 -0.0801 -0.6140
 4286TIP3    H134349   4.899   3.095   4.484  0.7237 -0.9770  1.2499
 4286TIP3    H234350   4.979   3.052   4.363 -1.0957 -2.8296  0.6538
 4287TIP3   OH234351   1.542   1.327   5.936  0.1396  1.0706 -0.6300
 4287TIP3    H134352   1.500   1.346   5.852 -1.5484 -0.5097 -0.2178
 4287TIP3    H234353   1.494   1.380   6.000 -1.7010 -1.0594 -0.0948
 4288TIP3   OH234354   3.199   2.812   4.758 -0.6856 -0.1579  0.2699
 4288TIP3    H134355   3.138   2.836   4.827  0.1767 -0.5050  1.1676
 4288TIP3    H234356   3.196   2.716   4.756  1.1464 -0.2746  1.5609
 4289TIP3   OH234357   1.360   4.443   6.250 -0.3603 -0.2901  0.1925
 4289TIP3    H134358   1.388   4.514   6.192 -0.4865 -0.1675  0.2820
 4289TIP3    H234359   1.441   4.415   6.294 -0.5402  0.8289  1.3052
 4290TIP3   OH234360   0.649   4.572  15.395 -0.3014  0.5963 -0.0482
 4290TIP3    H134361   0.555   4.586  15.381 -0.2220  1.1220 -0.0972
 4290TIP3    H234362   0.671   4.635  15.464 -0.0274  0.3281  0.1073
 4291TIP3   OH234363   1.364   0.272   4.685  0.0070  0.4921 -0.1848
 4291TIP3    H134364   1.346   0.181   4.710  0.3998  0.7386  1.0535
 4291TIP3    H234365   1.442   0.296   4.735 -0.1225  1.5355 -0.4609
 4292TIP3   OH234366   2.695   0.731  13.497 -0.1752  0.1219  0.7320
 4292TIP3    H134367   2.632   0.659  13.503 -1.3503  1.0194 -0.2620
 4292TIP3    H234368   2.644   0.805  13.464  1.4590  0.7921 -0.4759
 4293TIP3   OH234369   3.980   2.732   6.529  0.5965  0.2340  0.2710
 4293TIP3    H134370   4.008   2.811   6.484 -0.6706  0.3220 -0.3922
 4293TIP3    H234371   3.900   2.705   6.485  0.2647 -0.6652  1.3543
 4294TIP3   OH234372   5.553   1.545  13.871  0.2144  0.2927 -0.3216
 4294TIP3    H134373   5.608   1.602  13.817 -1.0385 -1.1868 -3.4050
 4294TIP3    H234374   5.599   1.461  13.869 -1.4736 -0.6712 -2.0426
 4295TIP3   OH234375   1.046   5.060  12.679 -0.0465  0.1700 -0.3410
 4295TIP3    H134376   1.095   5.140  12.698 -2.7391  1.6274  1.0424
 4295TIP3    H234377   1.100   4.989  12.715  0.8399  1.6969  1.5218
 4296TIP3   OH234378   3.799   6.233  13.415 -0.2799 -0.5312 -0.1455
 4296TIP3    H134379   3.847   6.228  13.497  1.0155 -0.5276 -0.8782
 4296TIP3    H234380   3.820   6.319  13.379 -2.4526  0.3160  0.4436
 4297TIP3   OH234381   1.691   3.972  11.196 -0.4405  0.8006 -0.0625
 4297TIP3    H134382   1.754   3.958  11.126 -0.8188  1.6564 -0.5882
 4297TIP3    H234383   1.744   3.973  11.276 -0.0499 -0.5206 -0.2739
 4298TIP3   OH234384   3.890   2.272  11.161 -0.7532 -0.5114  0.4458
 4298TIP3    H134385   3.890   2.310  11.073 -1.0848  0.7435  0.9583
 4298TIP3    H234386   3.813   2.217  11.164 -2.0751  1.2632  0.6621
 4299TIP3   OH234387   2.258   0.558   0.752 -0.4432  0.4583 -0.4294
 4299TIP3    H134388   2.202   0.609   0.812 -0.3395 -0.0008  0.0590
 4299TIP3    H234389   2.230   0.468   0.765  1.8589 -0.0695  1.4349
 4300TIP3   OH234390   2.012   4.263  15.163 -0.5840  0.1078  0.4125
 4300TIP3    H134391   2.005   4.342  15.109 -0.6277 -1.0972 -1.4204
 4300TIP3    H234392   2.074   4.286  15.232  0.4553  1.3066 -0.8813
 4301TIP3   OH234393   5.433   1.385  14.104  0.3737 -0.2591  0.2516
 4301TIP3    H134394   5.468   1.450  14.043 -2.5081 -0.9338 -2.4096
 4301TIP3    H234395   5.444   1.301  14.059 -2.2021 -0.7483  0.3569
 4302TIP3   OH234396   2.071   3.888   4.332 -0.4528  0.1918 -0.4726
 4302TIP3    H134397   2.007   3.899   4.261 -1.5066  2.9640  0.7610
 4302TIP3    H234398   2.156   3.901   4.289 -1.0690  1.8062 -1.2883
 4303TIP3   OH234399   2.872   6.590   5.479 -0.0067 -0.2739  0.3752
 4303TIP3    H134400   2.907   6.602   5.391 -0.3927  1.4564  0.4211
 4303TIP3    H234401   2.860   6.495   5.488 -1.2878 -0.3963 -1.9552
 4304TIP3   OH234402   4.896   6.751  13.675 -0.5654  0.0152 -0.6164
 4304TIP3    H134403   4.936   6.761  13.762 -0.7532  2.1114 -0.7022
 4304TIP3    H234404   4.970   6.757  13.614 -0.7117  1.7677 -0.6846
 4305TIP3   OH234405   0.425   2.075   2.943 -0.2997  0.6958 -0.1893
 4305TIP3    H134406   0.488   2.140   2.974 -0.8969  0.9608  0.5089
 4305TIP3    H234407   0.381   2.118   2.869  0.8042  0.2431 -1.1357
 4306TIP3   OH234408   1.027   3.530   4.121 -0.0417 -0.3016 -0.1461
 4306TIP3    H134409   0.955   3.536   4.058 -0.5786 -2.3471  0.2035
 4306TIP3    H234410   1.038   3.620   4.152 -2.2127  0.1579 -0.4866
 4307TIP3   OH234411   3.806   1.474   6.812 -0.0144 -0.3109  0.3488
 4307TIP3    H134412   3.891   1.464   6.770 -1.3620 -0.6008 -2.6185
 4307TIP3    H234413   3.793   1.569   6.817  1.0358 -0.2151  2.2434
 4308TIP3   OH234414   4.721   4.538  12.786  0.0738 -0.4765  0.4168
 4308TIP3    H134415   4.670   4.514  12.709  0.5492 -1.1597  0.3060
 4308TIP3    H234416   4.773   4.613  12.757 -1.7428  1.0480  0.8970
 4309TIP3   OH234417   2.914   3.853   0.408  0.0561  0.2262  0.3210
 4309TIP3    H134418   2.837   3.839   0.353  0.8448  0.6595 -0.9051
 4309TIP3    H234419   2.988   3.823   0.355  0.7971  0.2754  1.2952
 4310TIP3   OH234420   5.902   2.744   2.948 -0.0065  0.2121  0.1560
 4310TIP3    H134421   5.857   2.808   3.003  0.0065 -0.9446  1.5689
 4310TIP3    H234422   5.833   2.687   2.916  0.1292  0.1432 -0.0131
 4311TIP3   OH234423   0.077   4.986   3.800  0.3113  0.9563  0.2605
 4311TIP3    H134424   0.053   4.910   3.748 -2.3987  0.6374  1.7930
 4311TIP3    H234425   0.148   4.955   3.856  0.5368  0.1479 -0.4564
 4312TIP3   OH234426   3.170   1.221   0.538 -0.4751  0.4287  0.4651
 4312TIP3    H134427   3.130   1.143   0.577 -0.2621  0.7046  1.2466
 4312TIP3    H234428   3.182   1.281   0.611 -0.5899  1.1805 -0.1268
 4313TIP3   OH234429   3.643   4.468  15.382 -0.0890 -0.1209  0.0216
 4313TIP3    H134430   3.632   4.390  15.328 -1.1987  0.0707 -0.0564
 4313TIP3    H234431   3.568   4.467  15.441  0.4624  0.3233  0.7437
 4314TIP3   OH234432   0.803   2.501   1.260 -0.5090  0.0295  0.4591
 4314TIP3    H134433   0.865   2.441   1.301  0.5301 -0.3170 -1.4864
 4314TIP3    H234434   0.717   2.468   1.286  0.0512 -1.7363  0.2279
 4315TIP3   OH234435   0.088   0.807   3.303  0.5002  0.2171 -0.2503
 4315TIP3    H134436   0.181   0.827   3.287  0.3879  0.2364 -0.9225
 4315TIP3    H234437   0.057   0.773   3.219  0.1988 -0.9527  0.3221
 4316TIP3   OH234438   6.461   6.543  15.249  0.5708 -0.5632 -0.1758
 4316TIP3    H134439   6.543   6.525  15.203 -0.1100 -0.5633 -1.4308
 4316TIP3    H234440   6.395   6.550  15.179 -0.6933 -1.5882  0.8612
 4317TIP3   OH234441   6.430   5.360   2.598 -0.5844  0.1025  0.1367
 4317TIP3    H134442   6.423   5.266   2.582 -0.0880  0.5228 -3.2260
 4317TIP3    H234443   6.346   5.395   2.570 -0.3839  0.7684  0.3599
 4318TIP3   OH234444   6.367   0.058  15.420  0.2452  0.0638 -0.0415
 4318TIP3    H134445   6.379  -0.036  15.432  0.7039 -0.3594 -3.1744
 4318TIP3    H234446   6.454   0.091  15.398 -0.1841  0.9447 -0.4753
 4319TIP3   OH234447   1.005   2.765  16.083 -0.3413  0.1042 -0.0478
 4319TIP3    H134448   1.090   2.807  16.092  0.0401 -0.4390 -0.9869
 4319TIP3    H234449   0.992   2.718  16.166  1.1227 -1.3258 -0.5770
 4320TIP3   OH234450   3.398   5.754   3.725 -0.0016 -0.1616  0.2372
 4320TIP3    H134451   3.395   5.702   3.805  2.8072  0.8083  1.0817
 4320TIP3    H234452   3.451   5.702   3.664  2.3779  1.3251  0.9081
 4321TIP3   OH234453   0.211   6.518   6.650 -0.0079 -0.5611  0.1616
 4321TIP3    H134454   0.214   6.423   6.658 -0.5951 -0.6279 -0.3075
 4321TIP3    H234455   0.121   6.541   6.674 -0.6493 -0.3932 -2.1447
 4322TIP3   OH234456   1.340   5.346   3.246  0.0203  0.0022  0.0126
 4322TIP3    H134457   1.427   5.361   3.285  0.1351  0.4377 -0.4058
 4322TIP3    H234458   1.359   5.308   3.160 -0.2146 -0.0782 -0.0034
 4323TIP3   OH234459   0.096   0.880   0.751 -0.3677  0.3394  0.2707
 4323TIP3    H134460   0.103   0.839   0.664 -2.2562  0.6136 -0.0531
 4323TIP3    H234461   0.152   0.957   0.745 -0.0356  0.0511 -0.5182
 4324TIP3   OH234462   2.818   4.575   4.869 -0.3878  0.3689  0.4178
 4324TIP3    H134463   2.766   4.632   4.925 -0.8580  0.5094 -0.1547
 4324TIP3    H234464   2.757   4.543   4.803 -0.4568 -1.8383  1.4637
 4325TIP3   OH234465   3.964   6.794  14.209  0.5385  0.2134 -0.2367
 4325TIP3    H134466   4.007   6.772  14.292 -0.4463  0.4412  0.3555
 4325TIP3    H234467   3.995   6.727  14.148  0.8046 -0.3290  0.4702
 4326TIP3   OH234468   0.326   0.290   2.582  0.7570 -1.3502 -0.2130
 4326TIP3    H134469   0.231   0.289   2.590  0.7949 -1.7891  0.2089
 4326TIP3    H234470   0.352   0.377   2.613  0.5753 -1.6022  0.6855
 4327TIP3   OH234471   3.635   2.991   2.047  0.1432  0.0246 -0.4130
 4327TIP3    H134472   3.628   2.953   2.135  0.9536  1.4683  0.3022
 4327TIP3    H234473   3.628   3.085   2.060  1.1561  0.3245 -1.7998
 4328TIP3   OH234474   1.622   4.919  17.288  0.5613  0.2978  0.7289
 4328TIP3    H134475   1.568   4.983  17.334  1.2183  1.7502 -0.4320
 4328TIP3    H234476   1.697   4.970  17.255  1.0732 -1.0523 -0.2943
 4329TIP3   OH234477   1.469   3.785   2.384 -0.4100  0.8192 -0.2280
 4329TIP3    H134478   1.532   3.857   2.388 -1.6215  1.9194  0.2124
 4329TIP3    H234479   1.454   3.771   2.291  0.7823  0.2503 -0.3469
 4330TIP3   OH234480   4.371   3.630  14.251 -0.1291  0.2198  0.0597
 4330TIP3    H134481   4.422   3.651  14.330 -0.8133  1.6236  0.1530
 4330TIP3    H234482   4.319   3.554  14.276  1.7373 -1.1638  0.0193
 4331TIP3   OH234483   2.755   4.248  16.805  0.0863 -0.1469  0.2496
 4331TIP3    H134484   2.820   4.292  16.860  2.1863 -2.5371 -0.1411
 4331TIP3    H234485   2.804   4.219  16.728 -2.2528  0.9925 -1.7966
 4332TIP3   OH234486   0.308   2.713   3.798 -0.2439  0.7569  0.1668
 4332TIP3    H134487   0.334   2.800   3.826  0.5405  0.5858  0.0150
 4332TIP3    H234488   0.217   2.722   3.769 -1.1518  0.9385  2.7882
 4333TIP3   OH234489   5.872   3.024   1.099 -0.2975 -0.4708 -0.0679
 4333TIP3    H134490   5.939   2.961   1.072 -0.4894 -0.0859 -1.5510
 4333TIP3    H234491   5.794   2.998   1.050 -0.2097  1.2821 -1.2275
 4334TIP3   OH234492   0.839   4.120  14.681  0.2056 -0.0852  0.1977
 4334TIP3    H134493   0.860   4.135  14.773 -0.1403  2.4605 -0.0793
 4334TIP3    H234494   0.771   4.184  14.661  0.7213 -0.1660 -1.9898
 4335TIP3   OH234495   5.928   5.139   1.376  0.4553  0.2940  0.6218
 4335TIP3    H134496   5.848   5.089   1.391  0.0122  1.3251  1.8716
 4335TIP3    H234497   5.964   5.102   1.295 -1.4420  0.0255 -0.1620
 4336TIP3   OH234498   3.493   1.784   3.564 -0.0188  0.4017  0.1809
 4336TIP3    H134499   3.532   1.698   3.574  0.0996  0.4415  0.0714
 4336TIP3    H234500   3.416   1.783   3.621 -1.0294 -0.3927 -1.1265
 4337TIP3   OH234501   2.157   3.715  13.400 -0.1706 -0.2899  0.4714
 4337TIP3    H134502   2.191   3.678  13.481 -1.2880  0.1663  1.1702
 4337TIP3    H234503   2.216   3.789  13.381  0.3456 -0.6584  0.6289
 4338TIP3   OH234504   3.774   3.177  16.411 -0.1606  0.1109  0.2099
 4338TIP3    H134505   3.745   3.091  16.441 -0.9599  0.6983  1.1626
 4338TIP3    H234506   3.760   3.174  16.316 -0.7079 -0.6198  0.2999
 4339TIP3   OH234507   6.017   1.664  13.456  0.2524 -0.5296 -0.5434
 4339TIP3    H134508   6.003   1.671  13.361  0.1412 -2.0810 -0.6701
 4339TIP3    H234509   5.957   1.728  13.493  0.5087  0.3122 -1.5318
 4340TIP3   OH234510   0.798   3.966   6.139 -0.6630  0.6808 -0.3310
 4340TIP3    H134511   0.844   4.049   6.128  1.3455 -0.3475 -0.2197
 4340TIP3    H234512   0.799   3.952   6.234 -0.2487  0.1555 -0.4095
 4341TIP3   OH234513   2.043   1.663   1.272  0.1323 -1.0182  0.3539
 4341TIP3    H134514   2.137   1.647   1.280  0.5920  1.2233  0.1006
 4341TIP3    H234515   2.011   1.663   1.363  0.7374 -0.0685  0.5890
 4342TIP3   OH234516   2.686   4.242   3.631  0.3243 -0.4952 -0.1082
 4342TIP3    H134517   2.732   4.307   3.579  0.0829  0.2612  0.5986
 4342TIP3    H234518   2.609   4.219   3.579 -0.7256  1.3686  0.5147
 4343TIP3   OH234519   1.810   3.071  15.812 -0.1587 -0.0146 -0.6373
 4343TIP3    H134520   1.812   3.165  15.831 -0.7899  0.0039 -0.6471
 4343TIP3    H234521   1.893   3.053  15.768 -0.9200  0.9339 -2.5320
 4344TIP3   OH234522   4.445   0.785  16.115 -0.2777 -0.0237  0.4494
 4344TIP3    H134523   4.489   0.825  16.040 -1.1233 -1.9373 -1.1796
 4344TIP3    H234524   4.516   0.751  16.169  0.4310 -2.1755 -1.6195
 4345TIP3   OH234525   3.455   5.818  14.253 -0.3366 -0.1708 -0.1806
 4345TIP3    H134526   3.505   5.775  14.323 -0.5882  0.5218  0.4378
 4345TIP3    H234527   3.517   5.879  14.213  0.2719 -1.6759 -1.6185
 4346TIP3   OH234528   4.419   5.981  15.920 -0.3515  0.0190 -0.0880
 4346TIP3    H134529   4.498   6.035  15.924 -1.0644  1.0067  1.4931
 4346TIP3    H234530   4.424   5.925  15.998 -1.4997  0.5507  0.3989
 4347TIP3   OH234531   4.157   2.158  11.190  0.5975 -0.3333 -0.5089
 4347TIP3    H134532   4.067   2.181  11.169  0.5627 -0.8264 -0.9310
 4347TIP3    H234533   4.191   2.118  11.110  0.9018 -0.9827 -0.0681
 4348TIP3   OH234534   5.535   6.405  17.109 -0.1042  0.2854  0.3837
 4348TIP3    H134535   5.568   6.316  17.123  0.3754  0.3969 -0.0220
 4348TIP3    H234536   5.610   6.462  17.126 -0.5682  0.6602  1.2433
 4349TIP3   OH234537   6.685   3.487   1.590 -0.2959  1.4589  0.6800
 4349TIP3    H134538   6.624   3.561   1.592 -3.4677 -0.9619  0.9040
 4349TIP3    H234539   6.661   3.439   1.510  2.2616  1.0265  0.0861
 4350TIP3   OH234540   1.937   6.720   5.675 -0.1067 -0.0150 -0.2696
 4350TIP3    H134541   2.020   6.674   5.684 -0.0475 -0.1433 -1.3601
 4350TIP3    H234542   1.886   6.694   5.752  0.8690  0.0923  0.4275
 4351TIP3   OH234543   5.967   1.230  15.452 -0.2314 -0.0768 -0.1440
 4351TIP3    H134544   6.034   1.296  15.435  2.1404 -1.5831  2.4857
 4351TIP3    H234545   6.016   1.149  15.464 -2.6500 -1.5083  0.7865
 4352TIP3   OH234546   1.745   3.428  13.111  0.2170  0.0041 -0.2112
 4352TIP3    H134547   1.750   3.384  13.195  0.4732  0.8628  0.2306
 4352TIP3    H234548   1.815   3.388  13.058 -0.8376 -1.5143 -0.5038
 4353TIP3   OH234549   5.762   1.833   1.090 -0.3715 -0.3077  0.4083
 4353TIP3    H134550   5.711   1.776   1.148 -2.1529 -0.2955 -1.0596
 4353TIP3    H234551   5.823   1.774   1.045 -0.4975 -0.6595  0.6922
 4354TIP3   OH234552   3.543   1.391  16.114  0.3789  0.2984  0.0449
 4354TIP3    H134553   3.587   1.363  16.034  0.8869 -0.2746  0.5192
 4354TIP3    H234554   3.449   1.382  16.094  0.5187 -1.1145 -0.0549
 4355TIP3   OH234555   5.918   4.441  16.333 -0.1924  0.1193 -0.5374
 4355TIP3    H134556   5.845   4.379  16.339 -1.3089  1.2389 -1.7178
 4355TIP3    H234557   5.877   4.526  16.344  0.8834  0.7984 -1.5301
 4356TIP3   OH234558   6.324   4.905   3.269 -0.4728  0.1158  0.6610
 4356TIP3    H134559   6.277   4.871   3.345  2.1406  0.7772  2.7736
 4356TIP3    H234560   6.316   5.000   3.277  0.9432  0.2381  0.9715
 4357TIP3   OH234561   2.909   0.173  15.344 -0.7781 -0.0052  0.3235
 4357TIP3    H134562   2.827   0.198  15.301 -1.0809 -0.4488  0.6276
 4357TIP3    H234563   2.968   0.153  15.272 -0.8132  0.6956  0.0962
 4358TIP3   OH234564   4.108   0.344  12.978  0.3423 -0.2155 -0.2895
 4358TIP3    H134565   4.099   0.249  12.972  0.2353 -0.3445  1.3633
 4358TIP3    H234566   4.194   0.358  13.017  0.1999  0.3425 -0.1647
 4359TIP3   OH234567   2.253   4.258   5.874 -0.5295  0.0395 -0.2135
 4359TIP3    H134568   2.160   4.262   5.898 -0.9337 -1.6117 -1.2936
 4359TIP3    H234569   2.291   4.198   5.938 -0.2200  0.6385  0.1682
 4360TIP3   OH234570   5.284   1.459  12.007  0.3584 -0.0137 -0.0784
 4360TIP3    H134571   5.208   1.502  12.046 -0.5954  0.1225 -1.9757
 4360TIP3    H234572   5.248   1.413  11.931  2.2423  0.3761 -1.2486
 4361TIP3   OH234573   0.219   6.067   2.519 -0.1980 -0.0961  0.3019
 4361TIP3    H134574   0.235   6.152   2.560  1.2165  0.6942 -1.7600
 4361TIP3    H234575   0.147   6.083   2.458 -0.7052 -0.7034  0.7132
 4362TIP3   OH234576   5.233   2.820  15.700 -0.0071  0.3307 -0.6975
 4362TIP3    H134577   5.323   2.792  15.686  0.4737  1.4513 -0.0510
 4362TIP3    H234578   5.200   2.761  15.768  0.3483  0.0989 -0.7218
 4363TIP3   OH234579   4.135   2.543  13.932 -0.3516 -0.4962 -0.3292
 4363TIP3    H134580   4.227   2.568  13.931 -0.5583  0.6808  2.1385
 4363TIP3    H234581   4.088   2.621  13.903 -0.6426 -0.4955  0.1266
 4364TIP3   OH234582   5.780   6.291  11.132 -0.2227 -0.2171 -0.5094
 4364TIP3    H134583   5.784   6.329  11.044  1.4912  0.0845 -0.3411
 4364TIP3    H234584   5.867   6.251  11.144 -0.4353 -0.2567  1.0483
 4365TIP3   OH234585   1.095   0.580  15.886  0.1492  0.3603 -0.5747
 4365TIP3    H134586   1.112   0.524  15.962  1.4747 -0.7723 -1.6548
 4365TIP3    H234587   1.029   0.642  15.917 -0.2868 -0.8600  1.1180
 4366TIP3   OH234588   4.054   6.332   0.566 -0.2635 -0.2218  0.4775
 4366TIP3    H134589   4.017   6.412   0.529  1.4167  1.1184  1.5285
 4366TIP3    H234590   4.111   6.362   0.637  0.3394 -2.3703  0.9963
 4367TIP3   OH234591   5.271   6.505   4.668  0.3784  0.8309  0.1963
 4367TIP3    H134592   5.328   6.571   4.706  0.2911  0.7130  0.5315
 4367TIP3    H234593   5.266   6.528   4.575 -2.2653  3.2614  0.8089
 4368TIP3   OH234594   6.691   0.524   1.368  0.2190  0.2865 -0.1701
 4368TIP3    H134595   6.648   0.496   1.287 -3.0272  2.5575  0.5712
 4368TIP3    H234596   6.667   0.456   1.432 -0.4340  0.3887 -0.2941
 4369TIP3   OH234597   4.875   2.639   0.039 -0.0227 -1.0965  0.7140
 4369TIP3    H134598   4.966   2.668   0.032 -0.1838 -0.8197 -0.3673
 4369TIP3    H234599   4.844   2.675   0.122 -0.2112  1.8818 -0.5202
 4370TIP3   OH234600   6.483   4.381  13.879 -0.7559  0.2199  0.1203
 4370TIP3    H134601   6.446   4.423  13.802  1.1440 -1.6555 -1.9695
 4370TIP3    H234602   6.559   4.434  13.902  0.7530 -1.0848 -1.5825
 4371TIP3   OH234603   4.651   1.703  12.723  0.3860 -0.3984 -0.5300
 4371TIP3    H134604   4.709   1.739  12.656  1.2595 -0.0618  0.3848
 4371TIP3    H234605   4.685   1.615  12.738  1.2153  0.0994  0.6167
 4372TIP3   OH234606   3.131   5.012   3.617  0.4530  0.2330  0.1400
 4372TIP3    H134607   3.193   5.069   3.662 -0.3758 -0.0489  1.6783
 4372TIP3    H234608   3.048   5.059   3.620 -0.0785 -0.7231  0.7885
 4373TIP3   OH234609   5.574   1.717   4.206 -0.0090  0.1137  0.4552
 4373TIP3    H134610   5.529   1.680   4.130  0.8456 -2.1989  0.9968
 4373TIP3    H234611   5.521   1.793   4.230 -2.3073 -1.1370 -0.3288
 4374TIP3   OH234612   3.242   4.944  14.294 -0.4460  0.0361  0.6036
 4374TIP3    H134613   3.232   4.922  14.387 -0.0102  1.2850  0.9692
 4374TIP3    H234614   3.228   5.039  14.290  0.4694  0.1514 -0.4564
 4375TIP3   OH234615   5.696   4.604   5.601 -0.1174  0.7687  0.0652
 4375TIP3    H134616   5.786   4.618   5.631 -0.1473  1.1691 -0.0310
 4375TIP3    H234617   5.699   4.625   5.508 -0.2375  0.4562 -0.0097
 4376TIP3   OH234618   3.363   1.714  15.985  0.4188  0.4617  0.3971
 4376TIP3    H134619   3.309   1.640  15.957  0.3107  0.2223  1.2009
 4376TIP3    H234620   3.404   1.684  16.066  1.6956  0.6731 -0.1421
 4377TIP3   OH234621   3.436   5.729  16.760 -0.0074 -0.1596  0.1696
 4377TIP3    H134622   3.488   5.697  16.687  0.5867 -0.6061  0.7878
 4377TIP3    H234623   3.422   5.822  16.740 -0.0538 -0.3297 -0.6219
 4378TIP3   OH234624   0.765   6.579  14.362 -0.2996  0.0180 -0.3566
 4378TIP3    H134625   0.842   6.572  14.305 -0.1572 -0.6018 -0.1014
 4378TIP3    H234626   0.691   6.577  14.302 -0.1172  0.9572 -0.6303
 4379TIP3   OH234627   0.913   3.141  13.642 -0.2679 -0.2738  0.2082
 4379TIP3    H134628   0.917   3.142  13.738 -1.4895  1.2175  0.2811
 4379TIP3    H234629   0.820   3.136  13.622 -0.2906  2.5588 -0.8264
 4380TIP3   OH234630   6.699   6.805  15.706 -0.3637  0.0238 -0.4597
 4380TIP3    H134631   6.620   6.847  15.739  0.2509  0.0794  1.0011
 4380TIP3    H234632   6.678   6.712  15.704 -0.4899  0.0450 -0.1542
 4381TIP3   OH234633   2.638   6.288   1.283  0.6080 -0.5154 -0.2421
 4381TIP3    H134634   2.685   6.213   1.321  0.2701 -0.1138  0.9986
 4381TIP3    H234635   2.621   6.346   1.357  1.0773  0.9307 -1.2230
 4382TIP3   OH234636   4.968   5.435  13.837  0.3373 -0.4385 -0.1067
 4382TIP3    H134637   4.910   5.394  13.901 -0.1369  1.2803  0.6358
 4382TIP3    H234638   4.910   5.472  13.771  0.7971 -1.6158 -1.2187
 4383TIP3   OH234639   4.035   2.333  16.001 -0.4847  0.2234 -0.0265
 4383TIP3    H134640   4.042   2.405  15.939  2.5819  0.0696  0.0296
 4383TIP3    H234641   4.094   2.266  15.967 -0.6737 -0.8955  1.7467
 4384TIP3   OH234642   3.805   1.418  10.062  0.3370  0.1536  0.2438
 4384TIP3    H134643   3.744   1.490  10.066  0.3947  0.2027  0.2445
 4384TIP3    H234644   3.751   1.339  10.073  0.5854  0.2793  3.0495
 4385TIP3   OH234645   3.097   5.189  16.242 -0.2811 -0.5992 -0.0155
 4385TIP3    H134646   3.021   5.201  16.185  0.3541 -1.4476 -1.0713
 4385TIP3    H234647   3.148   5.120  16.201  1.0820 -0.0393  0.6634
 4386TIP3   OH234648   5.174   4.039   0.736 -0.2299  0.7015  0.1042
 4386TIP3    H134649   5.135   4.126   0.746 -0.9768  0.5803 -1.5223
 4386TIP3    H234650   5.129   3.986   0.802 -2.3281  0.7538 -1.2018
 4387TIP3   OH234651   1.101   1.839   2.235  0.4848  0.0117 -0.4604
 4387TIP3    H134652   1.037   1.891   2.283 -2.3363 -3.8619  0.4855
 4387TIP3    H234653   1.081   1.856   2.143  0.8387  1.8184 -0.2318
 4388TIP3   OH234654   6.600   3.577  15.893  0.6920 -0.4409 -0.5261
 4388TIP3    H134655   6.655   3.498  15.894 -0.0081 -0.9550 -1.3562
 4388TIP3    H234656   6.513   3.545  15.867  0.3328  0.5627 -0.5794
 4389TIP3   OH234657   2.305   4.692  15.256 -0.4368  0.1769  0.0687
 4389TIP3    H134658   2.370   4.655  15.197 -1.0267 -0.1445 -0.3901
 4389TIP3    H234659   2.228   4.707  15.201 -1.2436 -0.8129  0.8920
 4390TIP3   OH234660   5.880   4.487  15.990  0.3656  0.1961  0.1705
 4390TIP3    H134661   5.852   4.574  15.961  1.4893  0.7011  0.5666
 4390TIP3    H234662   5.901   4.498  16.083 -0.4881 -0.7547  0.4989
 4391TIP3   OH234663   2.057   3.010  16.433  0.1749  0.0942  0.3262
 4391TIP3    H134664   2.112   3.082  16.402  0.2416 -0.1515 -0.1418
 4391TIP3    H234665   2.092   2.988  16.519  1.3303 -0.5903 -0.2944
 4392TIP3   OH234666   1.696   4.192  12.577 -0.2289 -0.0155  0.2768
 4392TIP3    H134667   1.783   4.174  12.613 -0.5797  1.0433  1.7031
 4392TIP3    H234668   1.679   4.117  12.519  1.1643 -0.7886  0.8161
 4393TIP3   OH234669   5.435   0.897  12.990 -0.2273 -0.0923 -0.3379
 4393TIP3    H134670   5.442   0.982  13.033 -1.5593  1.8203 -3.5537
 4393TIP3    H234671   5.341   0.879  12.987  0.0670 -2.1656  1.0186
 4394TIP3   OH234672   4.706   2.466   5.400 -0.5602  0.4560  0.6558
 4394TIP3    H134673   4.784   2.484   5.346  1.0107 -2.2368  1.8306
 4394TIP3    H234674   4.730   2.497   5.487 -0.3334 -1.2383  1.2402
 4395TIP3   OH234675   4.673   6.148  15.943  0.0927  0.8108 -0.1411
 4395TIP3    H134676   4.758   6.180  15.913  0.3365  0.0239 -0.3185
 4395TIP3    H234677   4.688   6.122  16.034  0.0373  0.6763 -0.1709
 4396TIP3   OH234678   0.793   1.040   0.898  0.3163 -0.0642 -0.5801
 4396TIP3    H134679   0.727   1.097   0.860  0.0987 -0.3839 -0.6830
 4396TIP3    H234680   0.781   0.956   0.854 -0.3227 -0.6040  0.5848
 4397TIP3   OH234681   6.185   5.117   3.882  0.3949 -0.1570 -0.4302
 4397TIP3    H134682   6.192   5.054   3.811  1.0472 -0.3864 -0.1708
 4397TIP3    H234683   6.270   5.113   3.926 -0.6470 -1.4582  1.5792
 4398TIP3   OH234684   3.114   3.559  11.178 -0.6493  0.5483  0.5806
 4398TIP3    H134685   3.169   3.609  11.237  0.1008 -0.4392  0.7449
 4398TIP3    H234686   3.127   3.600  11.092  0.8696 -0.0647  0.4889
 4399TIP3   OH234687   6.554   5.691   1.126  0.0585 -0.5317  0.3618
 4399TIP3    H134688   6.578   5.688   1.219  0.5583 -0.0464  0.2561
 4399TIP3    H234689   6.479   5.632   1.118  0.1014 -0.6833  1.0477
 4400TIP3   OH234690   1.503   5.392  17.215  0.0915  0.0450  0.4888
 4400TIP3    H134691   1.497   5.328  17.286 -1.1924 -0.8718 -0.4026
 4400TIP3    H234692   1.520   5.475  17.259  0.6292 -0.7121  1.7596
 4401TIP3   OH234693   2.743   0.289  14.316  0.1102 -0.3605 -0.2536
 4401TIP3    H134694   2.734   0.328  14.402  2.3940 -0.7437  0.2213
 4401TIP3    H234695   2.815   0.337  14.275 -0.4221 -0.7028 -1.6627
 4402TIP3   OH234696   6.627   4.812   0.653 -0.0520  0.2041 -0.0112
 4402TIP3    H134697   6.647   4.840   0.564  1.1731 -0.9346 -0.1248
 4402TIP3    H234698   6.559   4.873   0.683 -0.2736  0.7799 -1.6047
 4403TIP3   OH234699   3.463   0.489   2.128 -0.1534 -0.1719 -0.2102
 4403TIP3    H134700   3.557   0.491   2.148 -0.3902 -0.3949  0.9983
 4403TIP3    H234701   3.437   0.581   2.121  0.1456 -0.1099 -0.5157
 4404TIP3   OH234702   4.408   5.336  13.257 -0.2179  0.3357 -0.1833
 4404TIP3    H134703   4.349   5.410  13.246  0.5810  1.0756  0.3173
 4404TIP3    H234704   4.464   5.339  13.179 -0.1906  0.2686 -0.1654
 4405TIP3   OH234705   2.666   0.524  12.543  0.1078 -0.0581  0.4095
 4405TIP3    H134706   2.670   0.549  12.636 -2.9294  0.3105  0.5342
 4405TIP3    H234707   2.629   0.600  12.499 -0.1964 -0.8748 -0.7998
 4406TIP3   OH234708   4.119   6.028  12.122  0.2740 -0.2352  0.1544
 4406TIP3    H134709   4.203   5.982  12.115 -0.3567 -1.1933 -2.0851
 4406TIP3    H234710   4.061   5.965  12.164  0.1702 -0.3373 -0.1408
 4407TIP3   OH234711   5.524   4.363   1.364  0.1877  0.2851  0.1062
 4407TIP3    H134712   5.599   4.408   1.401  0.9546 -0.5560 -0.3827
 4407TIP3    H234713   5.454   4.428   1.365  1.3375  1.5934 -0.9093
 4408TIP3   OH234714   4.912   5.369  12.506 -0.1668 -0.2407  0.1418
 4408TIP3    H134715   5.007   5.352  12.503 -0.1560 -0.3592  1.0392
 4408TIP3    H234716   4.903   5.460  12.478  0.3727  0.2928  1.6107
 4409TIP3   OH234717   0.361   0.952   0.819 -0.5850 -0.0657  0.4586
 4409TIP3    H134718   0.383   0.864   0.790 -1.8420 -0.5420  0.8939
 4409TIP3    H234719   0.424   1.009   0.774  0.3896 -1.1885  0.3498
 4410TIP3   OH234720   2.177   3.314   0.550 -0.7930 -0.1695 -0.4723
 4410TIP3    H134721   2.241   3.315   0.622 -1.2763  1.8268 -0.0217
 4410TIP3    H234722   2.098   3.277   0.589 -1.4971  2.1593  0.5268
 4411TIP3   OH234723   3.526   5.879  15.341  0.2860  0.2724  0.3067
 4411TIP3    H134724   3.496   5.942  15.276  0.7287  0.2567  0.0858
 4411TIP3    H234725   3.609   5.914  15.373  0.8707 -0.5160 -0.2985
 4412TIP3   OH234726   2.343   1.021  15.496 -0.2081  0.0640 -0.5570
 4412TIP3    H134727   2.338   0.998  15.403  0.4414  0.9772 -0.8332
 4412TIP3    H234728   2.395   0.951  15.536  0.5529  0.2909 -1.1207
 4413TIP3   OH234729   3.765   5.230  13.543  0.4035 -0.0008 -0.2971
 4413TIP3    H134730   3.806   5.182  13.615 -1.1482 -2.4251 -0.9109
 4413TIP3    H234731   3.770   5.171  13.468 -3.5381 -0.2893 -0.5523
 4414TIP3   OH234732   3.521   0.184  14.789  0.3068  0.0072 -0.2815
 4414TIP3    H134733   3.453   0.211  14.852  0.6788  2.6963 -0.8842
 4414TIP3    H234734   3.569   0.114  14.833  0.6486  1.8531  2.5394
 4415TIP3   OH234735   1.637   4.879  13.580 -0.2474  0.0380  0.0916
 4415TIP3    H134736   1.726   4.882  13.615 -0.8444  0.7363  1.6241
 4415TIP3    H234737   1.645   4.914  13.491  0.4581  4.3236  1.5989
 4416TIP3   OH234738   4.722   2.128  16.468 -0.1906  0.5546 -0.1473
 4416TIP3    H134739   4.721   2.141  16.563 -0.2449  0.7008 -0.1679
 4416TIP3    H234740   4.644   2.076  16.449  1.1609 -1.7850  0.2154
 4417TIP3   OH234741   4.450   0.020   5.709 -0.2286  0.2615 -0.6211
 4417TIP3    H134742   4.537   0.055   5.692 -0.3847  0.7389 -0.4473
 4417TIP3    H234743   4.393   0.060   5.643 -0.4732  0.6221 -0.1978
 4418TIP3   OH234744   0.940   6.251   0.882 -0.7320 -0.1875  0.5645
 4418TIP3    H134745   0.854   6.239   0.922 -1.0963  0.9430  0.1611
 4418TIP3    H234746   0.953   6.346   0.881  1.2639 -0.3747  2.1651
 4419TIP3   OH234747   5.949   2.688   5.930 -0.1012 -0.0815  0.1520
 4419TIP3    H134748   6.028   2.731   5.898 -2.1718  1.6602 -3.1172
 4419TIP3    H234749   5.930   2.733   6.013  1.2780  0.8178  0.0159
 4420TIP3   OH234750   1.459   2.419  12.140 -0.0455 -0.3442 -0.1201
 4420TIP3    H134751   1.403   2.417  12.217  0.3006 -0.2434  0.1373
 4420TIP3    H234752   1.442   2.337  12.094 -2.4344  0.8305 -1.5128
 4421TIP3   OH234753   0.595   2.367  11.124 -0.3812  0.3968  0.1222
 4421TIP3    H134754   0.671   2.330  11.080 -0.8295  1.4743 -1.6752
 4421TIP3    H234755   0.600   2.461  11.107 -0.9425  0.7823  1.8831
 4422TIP3   OH234756   1.759   3.427  11.123 -0.1246 -0.2531  0.2261
 4422TIP3    H134757   1.716   3.410  11.039 -2.0808  0.6404  0.9788
 4422TIP3    H234758   1.760   3.342  11.167 -0.5145 -0.4228 -0.0855
 4423TIP3   OH234759   6.720   4.263  16.623 -0.3627 -0.5304 -0.3289
 4423TIP3    H134760   6.793   4.322  16.605 -0.5186  0.2466  1.4188
 4423TIP3    H234761   6.642   4.319  16.614 -0.5632 -0.6683  0.5212
 4424TIP3   OH234762   0.575   4.469  15.950  0.5840 -0.2246 -0.0380
 4424TIP3    H134763   0.646   4.407  15.930  0.9101  0.4501 -1.0843
 4424TIP3    H234764   0.498   4.431  15.908  0.6021 -0.3482  0.0410
 4425TIP3   OH234765   2.089   1.101   4.102  0.5856 -0.1455 -0.0161
 4425TIP3    H134766   2.027   1.035   4.071  0.8522 -0.9672  1.1342
 4425TIP3    H234767   2.156   1.105   4.033 -1.3013  1.6423 -1.8639
 4426TIP3   OH234768   2.483   2.014   3.107  0.2874 -0.3593 -1.0098
 4426TIP3    H134769   2.576   1.995   3.091  0.7461  0.0706  0.9760
 4426TIP3    H234770   2.454   1.944   3.165 -0.7171 -0.6129 -1.7891
 4427TIP3   OH234771   2.457   4.672   3.230 -0.1046  0.5144  0.0783
 4427TIP3    H134772   2.478   4.579   3.222 -0.9926  0.3470 -0.3952
 4427TIP3    H234773   2.361   4.676   3.226 -0.0573  1.4987 -0.5471
 4428TIP3   OH234774   5.821   6.099   2.816  0.0456  0.5349  0.3798
 4428TIP3    H134775   5.817   6.125   2.908  0.4514 -0.4781  0.7081
 4428TIP3    H234776   5.895   6.038   2.812  0.2539  0.8410 -0.6904
 4429TIP3   OH234777   2.750   2.813  14.498 -0.4410  0.3810  0.0698
 4429TIP3    H134778   2.723   2.757  14.426  0.1704  0.5283 -0.2798
 4429TIP3    H234779   2.811   2.875  14.459  2.4050 -1.4840  1.2299
 4430TIP3   OH234780   0.404   6.334   2.185  0.2504 -0.2270  0.0868
 4430TIP3    H134781   0.409   6.423   2.148 -0.1608 -0.7125 -1.1962
 4430TIP3    H234782   0.329   6.294   2.140  1.2411 -1.6620 -0.3418
 4431TIP3   OH234783   4.526   3.179   0.015  0.4205 -0.5452 -0.2798
 4431TIP3    H134784   4.522   3.087   0.044 -0.5956 -0.1350  0.9682
 4431TIP3    H234785   4.435   3.205   0.007  0.7087  0.4686 -0.3208
 4432TIP3   OH234786   5.630   2.007   5.708  0.3618  0.2400  0.1004
 4432TIP3    H134787   5.556   2.062   5.680 -0.6659 -1.1558 -0.0074
 4432TIP3    H234788   5.693   2.013   5.636  0.5559  1.7473  0.3574
 4433TIP3   OH234789   4.079   4.089  13.213 -0.1876 -0.0246 -0.0092
 4433TIP3    H134790   4.027   4.166  13.189  1.3377  0.9197 -0.4438
 4433TIP3    H234791   4.016   4.028  13.249 -1.5119  1.2932  0.0139
 4434TIP3   OH234792   4.405   6.725  11.252 -0.1355  0.0248  0.0823
 4434TIP3    H134793   4.461   6.754  11.324  0.3666 -0.7067 -0.0008
 4434TIP3    H234794   4.402   6.799  11.192 -0.0806  0.4272  0.5678
 4435TIP3   OH234795   0.630   2.199   1.069  0.1319  0.1171 -0.3279
 4435TIP3    H134796   0.684   2.137   1.119 -1.2647  0.5849  1.9095
 4435TIP3    H234797   0.636   2.281   1.118 -3.8410 -0.2274  1.1105
 4436TIP3   OH234798   5.115   5.056   0.227  0.9707  0.4412 -0.1474
 4436TIP3    H134799   5.171   5.130   0.249  1.0056  0.8045 -1.4289
 4436TIP3    H234800   5.084   5.073   0.138 -2.6567  1.1849  1.0663
 4437TIP3   OH234801   5.326   6.376   1.894  0.1957 -0.5527  0.4426
 4437TIP3    H134802   5.351   6.415   1.811 -1.3049  0.8859  0.6142
 4437TIP3    H234803   5.311   6.451   1.952 -0.8295 -1.4497  1.3851
 4438TIP3   OH234804   2.325   1.656   1.325 -0.3573 -0.4686  0.9447
 4438TIP3    H134805   2.355   1.721   1.263  0.3231 -3.0503 -1.6620
 4438TIP3    H234806   2.297   1.706   1.402  1.9763  2.6752 -0.0705
 4439TIP3   OH234807   1.184   3.653  15.361  0.6055  0.7008 -0.0984
 4439TIP3    H134808   1.188   3.574  15.415  0.4963  1.9614  1.8527
 4439TIP3    H234809   1.263   3.702  15.384 -0.6510  2.4024  0.8459
 4440TIP3   OH234810   3.526   3.990  16.408  0.4401  0.6182  0.4878
 4440TIP3    H134811   3.478   3.912  16.436 -0.3613  0.8257 -0.2824
 4440TIP3    H234812   3.505   4.055  16.475 -0.9285  0.9125 -0.1929
 4441TIP3   OH234813   0.117   1.277  12.998 -0.3225  0.1114  0.2903
 4441TIP3    H134814   0.207   1.282  12.965 -0.7479 -0.1586 -0.9512
 4441TIP3    H234815   0.118   1.332  13.076  0.8225  0.4357  0.0794
 4442TIP3   OH234816   5.341   5.910  16.196 -0.3187 -0.2389 -0.7145
 4442TIP3    H134817   5.297   5.828  16.172  2.8499 -2.3104 -0.0556
 4442TIP3    H234818   5.314   5.927  16.286 -2.2402  0.4382 -1.3635
 4443TIP3   OH234819   3.595   5.568   5.890 -0.2254  0.7437  0.0448
 4443TIP3    H134820   3.529   5.621   5.935 -1.4986 -0.0185 -0.8727
 4443TIP3    H234821   3.608   5.611   5.806 -0.1726  0.4125 -0.1170
 4444TIP3   OH234822   4.312   4.942  12.197  0.5578 -0.5435  0.3199
 4444TIP3    H134823   4.252   4.925  12.269 -0.3338 -0.1952 -0.3326
 4444TIP3    H234824   4.348   5.029  12.215 -0.7015  0.1466 -0.3403
 4445TIP3   OH234825   6.025   1.044   5.158 -0.4177  0.0799  0.2352
 4445TIP3    H134826   5.972   1.097   5.098  2.0696  0.5113 -1.7287
 4445TIP3    H234827   6.037   0.961   5.112 -1.3368 -0.9506  1.7494
 4446TIP3   OH234828   5.390   4.038  11.721  0.5450 -0.4189 -0.4143
 4446TIP3    H134829   5.467   4.095  11.717 -0.3788  0.8950 -0.3766
 4446TIP3    H234830   5.317   4.099  11.732 -0.4034 -1.6956  0.5750
 4447TIP3   OH234831   6.745   2.622  13.730  0.1215 -0.2928 -0.6339
 4447TIP3    H134832   6.686   2.566  13.781  1.3383 -0.4433  0.6711
 4447TIP3    H234833   6.712   2.711  13.744 -1.2858 -0.5482 -1.9961
 4448TIP3   OH234834   3.411   0.008   0.469 -0.9765  0.5193 -0.1978
 4448TIP3    H134835   3.399  -0.048   0.392 -1.2778  0.3835 -0.0525
 4448TIP3    H234836   3.358  -0.033   0.537  0.8030 -0.4566  0.6539
 4449TIP3   OH234837   6.219   2.915   0.289 -0.2691  0.3907  0.6117
 4449TIP3    H134838   6.212   2.930   0.195  1.0614  0.6576  0.5370
 4449TIP3    H234839   6.211   3.002   0.327 -0.4457  0.3257  0.7241
 4450TIP3   OH234840   1.570   6.073  15.895 -0.0616  0.6413  0.4485
 4450TIP3    H134841   1.553   5.986  15.859  0.4723  1.1354 -1.0751
 4450TIP3    H234842   1.491   6.093  15.946 -1.2031  0.1745 -1.0303
 4451TIP3   OH234843   5.502   6.695  12.817  0.0460 -0.0753  0.2061
 4451TIP3    H134844   5.504   6.779  12.771  2.4155  0.4680  1.1174
 4451TIP3    H234845   5.449   6.712  12.895 -0.3329  0.2658 -0.1212
 4452TIP3   OH234846   4.000   0.129  16.646  0.6372 -0.6660 -0.1576
 4452TIP3    H134847   3.950   0.114  16.565  1.6672  0.8453 -1.1279
 4452TIP3    H234848   3.953   0.200  16.690  0.8353 -0.5736 -0.0943
 4453TIP3   OH234849   5.161   1.553   0.315 -0.2716 -0.2420 -0.2608
 4453TIP3    H134850   5.087   1.498   0.340 -2.1288  2.0986 -0.2330
 4453TIP3    H234851   5.146   1.636   0.360  1.4052  0.9241 -1.6944
 4454TIP3   OH234852   4.405   5.916  14.241 -0.1702  0.2682 -0.1685
 4454TIP3    H134853   4.401   5.945  14.149  0.1171  0.2706 -0.1828
 4454TIP3    H234854   4.436   5.993  14.289  0.5815 -0.0019 -0.2048
 4455TIP3   OH234855   5.055   0.808  11.272 -0.3721 -0.3053 -0.0900
 4455TIP3    H134856   4.989   0.868  11.308 -1.3195 -1.4232  0.0709
 4455TIP3    H234857   5.091   0.855  11.197 -0.2360  0.9625  0.7224
 4456TIP3   OH234858   1.121   4.442  11.592 -0.6091 -0.3514 -0.0399
 4456TIP3    H134859   1.056   4.502  11.628 -0.0948 -0.5958  1.3437
 4456TIP3    H234860   1.084   4.355  11.608 -0.5565 -0.4567 -0.4727
 4457TIP3   OH234861   3.346   1.482  14.991  0.3644 -0.0759 -0.4799
 4457TIP3    H134862   3.350   1.538  14.915  1.2542  0.3018 -0.1681
 4457TIP3    H234863   3.324   1.395  14.956  2.2620 -0.2509 -1.3647
 4458TIP3   OH234864   0.121   3.969  14.718 -0.2381  0.1116 -0.1371
 4458TIP3    H134865   0.105   3.886  14.674  1.7867 -1.6966  2.2920
 4458TIP3    H234866   0.116   3.949  14.811  3.7344  1.7931  0.6480
 4459TIP3   OH234867   0.508   6.058  16.366  0.6108  0.1945  0.2860
 4459TIP3    H134868   0.593   6.029  16.332  0.1459 -1.6478  0.5596
 4459TIP3    H234869   0.459   5.977  16.381 -0.3874  1.0715  2.2468
 4460TIP3   OH234870   4.883   3.576   3.654 -0.0750 -0.4472 -0.2730
 4460TIP3    H134871   4.927   3.655   3.685  0.6073 -2.3111  4.2929
 4460TIP3    H234872   4.791   3.590   3.676 -0.5475  0.1939 -2.3892
 4461TIP3   OH234873   3.622   0.213   4.064 -0.2711 -0.0667  0.4444
 4461TIP3    H134874   3.716   0.222   4.045 -0.4480  0.9736 -0.0244
 4461TIP3    H234875   3.604   0.283   4.127 -1.3777  2.0246 -1.9881
 4462TIP3   OH234876   1.735   2.873  14.644  0.2075 -0.1085  0.1370
 4462TIP3    H134877   1.763   2.944  14.586 -1.0506 -0.2927 -0.7587
 4462TIP3    H234878   1.767   2.794  14.601 -1.2922 -0.2939 -0.7090
 4463TIP3   OH234879   6.247   4.443  15.243  0.6577 -0.4341  0.5752
 4463TIP3    H134880   6.230   4.442  15.149  0.0907 -0.8654  0.6731
 4463TIP3    H234881   6.210   4.361  15.275  4.3629 -2.2761  0.5971
 4464TIP3   OH234882   2.072   5.740   3.944 -0.0145  0.3427  0.0826
 4464TIP3    H134883   2.027   5.762   4.026 -0.3135  0.9735 -0.2426
 4464TIP3    H234884   2.154   5.788   3.948  1.6004 -2.3013  1.5525
 4465TIP3   OH234885   5.978   1.467  12.568  0.2722  0.2523  0.5642
 4465TIP3    H134886   5.961   1.389  12.515 -2.0560  1.2431 -0.3060
 4465TIP3    H234887   5.951   1.540  12.511  0.5239  1.5561  2.0549
 4466TIP3   OH234888   3.133   1.723   2.192  0.3219 -0.0818  0.4027
 4466TIP3    H134889   3.174   1.698   2.109 -2.0360 -0.7488 -0.6567
 4466TIP3    H234890   3.106   1.640   2.231 -1.7930  0.3691  0.0263
 4467TIP3   OH234891   0.077   5.562  12.045  0.2471  0.3004 -0.4874
 4467TIP3    H134892   0.167   5.542  12.071  0.6000  1.2150 -0.9730
 4467TIP3    H234893   0.074   5.657  12.039 -0.3533  0.2146 -1.8494
 4468TIP3   OH234894   0.553   6.174   4.305 -0.3641  0.1426 -0.3092
 4468TIP3    H134895   0.505   6.186   4.223  0.5803 -0.2783 -0.9357
 4468TIP3    H234896   0.494   6.120   4.358 -1.0669  0.5774 -0.6279
 4469TIP3   OH234897   5.491   4.951  11.599 -0.2236  0.4828 -0.3612
 4469TIP3    H134898   5.503   4.857  11.583 -0.2930  0.5727 -0.9944
 4469TIP3    H234899   5.465   4.957  11.690 -1.9360 -0.2524 -0.7710
 4470TIP3   OH234900   6.074   3.481  13.892 -0.1452  0.0512  0.6255
 4470TIP3    H134901   6.138   3.542  13.856  0.0157 -0.1254  0.6129
 4470TIP3    H234902   5.992   3.502  13.847 -0.2886  0.8122  1.2009
 4471TIP3   OH234903   6.345   6.542  13.538  0.3180 -0.4437  0.3638
 4471TIP3    H134904   6.423   6.597  13.541  0.9942 -1.2618 -1.0284
 4471TIP3    H234905   6.278   6.598  13.499  0.8959 -0.4594 -0.6855
 4472TIP3   OH234906   0.509   4.069  14.102  0.3825  0.8355 -0.1762
 4472TIP3    H134907   0.603   4.069  14.087  0.3781  0.7596 -0.2046
 4472TIP3    H234908   0.486   3.976  14.108  0.2223  0.8385 -0.7144
 4473TIP3   OH234909   1.224   6.343  16.020  0.0062 -0.0868  0.4521
 4473TIP3    H134910   1.163   6.344  15.947  0.3372 -2.4442  0.0701
 4473TIP3    H234911   1.260   6.255  16.020 -0.9857 -0.6602  4.3133
 4474TIP3   OH234912   5.207   2.074   1.505  0.2054 -0.3575 -0.3648
 4474TIP3    H134913   5.298   2.071   1.475  0.5367  1.1512  0.3911
 4474TIP3    H234914   5.200   2.156   1.554 -1.4467 -0.6688 -0.0013
 4475TIP3   OH234915   3.041   6.599  14.573  0.0165 -0.1248  0.5759
 4475TIP3    H134916   3.065   6.692  14.568  2.0310 -0.6621 -1.2644
 4475TIP3    H234917   2.977   6.587  14.504 -0.1362 -0.1417  0.7198
 4476TIP3   OH234918   2.799   5.720   1.636  0.0865 -0.7132 -0.0456
 4476TIP3    H134919   2.880   5.729   1.686 -0.0034  0.2170 -0.0496
 4476TIP3    H234920   2.801   5.793   1.573 -0.9136 -0.4504  0.2007
 4477TIP3   OH234921   2.908   4.592   1.137 -0.1575  0.1888  0.0261
 4477TIP3    H134922   2.892   4.682   1.110 -2.7991 -0.1849  0.1076
 4477TIP3    H234923   2.892   4.592   1.231 -1.1611 -0.5294 -0.1286
 4478TIP3   OH234924   0.176   1.074  16.081  0.4791 -0.3676  0.0058
 4478TIP3    H134925   0.222   0.990  16.084  2.4144  0.6337  0.2215
 4478TIP3    H234926   0.240   1.134  16.042 -0.7285  1.0805  0.1927
 4479TIP3   OH234927   2.212   4.919  11.717  0.1177 -0.0612 -0.0482
 4479TIP3    H134928   2.162   4.988  11.673  0.0102  0.9641  1.5848
 4479TIP3    H234929   2.154   4.889  11.787  0.1784 -1.8281 -0.7025
 4480TIP3   OH234930   4.999   3.155   1.908 -0.5869  0.5815  0.0021
 4480TIP3    H134931   5.022   3.165   2.000 -4.3651 -0.9913  1.3638
 4480TIP3    H234932   5.042   3.228   1.863  3.9436 -0.3106  2.3253
 4481TIP3   OH234933   6.418   2.766   2.914 -0.2969 -0.0315  0.6542
 4481TIP3    H134934   6.324   2.765   2.897 -0.2728 -0.7799  0.5052
 4481TIP3    H234935   6.454   2.824   2.847 -0.9684  2.9347  2.6642
 4482TIP3   OH234936   0.266   0.057  13.467 -0.3638  0.6187 -0.5433
 4482TIP3    H134937   0.195   0.066  13.404 -0.9683 -1.2031 -0.1726
 4482TIP3    H234938   0.223   0.032  13.549  0.7313 -1.7435 -0.6136
 4483TIP3   OH234939   1.838   2.021   2.807 -0.0747 -0.1800  0.4437
 4483TIP3    H134940   1.845   2.085   2.736 -2.3753 -1.5240 -1.1077
 4483TIP3    H234941   1.782   2.064   2.872  1.5559  0.8231  1.2478
 4484TIP3   OH234942   5.867   0.080  17.129 -0.1552  0.1444 -0.8072
 4484TIP3    H134943   5.925   0.014  17.092  0.5695  0.4498 -0.2261
 4484TIP3    H234944   5.916   0.162  17.123  0.4005  0.0620  1.6676
 4485TIP3   OH234945   0.803   4.307  15.223 -0.0580  0.0383  0.3860
 4485TIP3    H134946   0.731   4.332  15.165 -0.6518 -0.7800  0.7655
 4485TIP3    H234947   0.867   4.379  15.213  0.3819 -0.5849 -2.1515
 4486TIP3   OH234948   3.395   4.548  14.771 -0.2540  0.2574 -0.4323
 4486TIP3    H134949   3.469   4.585  14.722 -0.6596  2.0284  0.2002
 4486TIP3    H234950   3.369   4.471  14.722  1.2850  0.2580 -1.3020
 4487TIP3   OH234951   2.609   0.358  12.858 -0.3292 -0.0231  0.0788
 4487TIP3    H134952   2.650   0.444  12.864  2.6184 -1.3304  0.7880
 4487TIP3    H234953   2.616   0.322  12.947 -0.8429 -1.2708 -0.3590
 4488TIP3   OH234954   2.855   6.014   4.461 -0.4891 -0.1385 -0.7968
 4488TIP3    H134955   2.821   6.095   4.499  1.7160 -0.2318  1.6641
 4488TIP3    H234956   2.950   6.019   4.472 -0.2221 -2.8150 -1.0302
 4489TIP3   OH234957   4.881   0.468   4.126  0.1220 -0.7364 -0.8540
 4489TIP3    H134958   4.914   0.441   4.040  0.3932 -1.3015 -0.5758
 4489TIP3    H234959   4.828   0.394   4.156  0.4452 -0.7553 -0.3132
 4490TIP3   OH234960   1.607   6.423   4.814 -0.4104  0.3511 -0.4121
 4490TIP3    H134961   1.525   6.375   4.807  0.2924 -1.1790  1.1097
 4490TIP3    H234962   1.661   6.391   4.742 -1.2032  1.6000 -1.6173
 4491TIP3   OH234963   6.099   3.284  15.877  0.4542 -0.2203 -0.3746
 4491TIP3    H134964   6.104   3.248  15.966 -0.0515  0.2627 -0.1445
 4491TIP3    H234965   6.013   3.325  15.872  1.0333  1.0503 -0.5728
 4492TIP3   OH234966   5.637   4.798   3.340 -0.2534  0.3865  0.0321
 4492TIP3    H134967   5.597   4.712   3.351 -1.1913  0.5896 -1.5135
 4492TIP3    H234968   5.565   4.860   3.348  0.5032  1.1228  1.7508
 4493TIP3   OH234969   6.224   0.764   2.199 -0.0219  0.2311  0.8045
 4493TIP3    H134970   6.248   0.706   2.271  1.0530  1.3982  1.4146
 4493TIP3    H234971   6.188   0.706   2.133 -1.6781 -0.8163  2.5256
 4494TIP3   OH234972   5.022   0.483   1.648  0.2375  0.1904  0.0252
 4494TIP3    H134973   4.969   0.532   1.585  1.8767  1.2958 -0.5689
 4494TIP3    H234974   5.010   0.391   1.623 -0.7199  0.4638 -0.5983
 4495TIP3   OH234975   4.880   2.800  15.059 -0.1135 -0.0411  0.6864
 4495TIP3    H134976   4.887   2.796  15.155 -2.0218  0.8835  0.9231
 4495TIP3    H234977   4.798   2.847  15.044  0.8440  1.0716 -1.4234
 4496TIP3   OH234978   6.546   6.325   4.165  0.4456  0.2640  0.1486
 4496TIP3    H134979   6.460   6.311   4.126  1.9239  0.9254 -3.7755
 4496TIP3    H234980   6.557   6.251   4.224 -1.3113 -2.0617 -2.1880
 4497TIP3   OH234981   5.221   0.127   3.727 -0.7444 -0.1119  0.0471
 4497TIP3    H134982   5.286   0.186   3.689  1.1070  1.4646  4.9363
 4497TIP3    H234983   5.266   0.044   3.738 -0.5848  0.0493  0.6230
 4498TIP3   OH234984   4.452   3.323   0.384  0.7092 -0.5102  0.1697
 4498TIP3    H134985   4.467   3.418   0.380  1.6340 -0.6372  0.4569
 4498TIP3    H234986   4.356   3.315   0.381  0.6444  0.3497 -1.1920
 4499TIP3   OH234987   5.072   0.914   0.056 -0.3392  0.0690 -0.5054
 4499TIP3    H134988   5.041   0.990   0.007  1.5615  0.9918 -0.3910
 4499TIP3    H234989   5.004   0.896   0.120 -0.4882  2.2019 -0.0132
 4500TIP3   OH234990   2.376   1.493   0.407 -0.1666 -0.7965 -0.0120
 4500TIP3    H134991   2.288   1.529   0.419  0.4251  0.7023  0.0757
 4500TIP3    H234992   2.433   1.552   0.457  1.1303 -0.5254 -1.7009
 4501TIP3   OH234993   6.415   2.508   3.970  0.5592  0.0192  0.7370
 4501TIP3    H134994   6.436   2.463   4.051 -0.4753  1.2922  1.7632
 4501TIP3    H234995   6.351   2.452   3.926  0.1747 -0.0845  1.4258
 4502TIP3   OH234996   4.968   3.840   0.251 -0.0802 -0.4349 -0.2093
 4502TIP3    H134997   4.987   3.845   0.344 -0.8296  0.3223 -0.0842
 4502TIP3    H234998   5.043   3.794   0.213  0.6465  0.0387  0.6334
 4503TIP3   OH234999   1.614   6.591  13.590 -0.2894 -0.5144 -0.0029
 4503TIP3    H135000   1.523   6.596  13.621  0.0362 -0.6019  1.0052
 4503TIP3    H235001   1.618   6.508  13.542 -1.1521  0.2686 -1.5130
 4504TIP3   OH235002   5.796   6.253  15.103 -0.2736 -0.2711  0.2650
 4504TIP3    H135003   5.708   6.222  15.078 -1.1511  2.3130 -0.1978
 4504TIP3    H235004   5.823   6.308  15.029  0.2373  1.7073  1.8386
 4505TIP3   OH235005   3.819   4.927   5.664 -0.1783  0.2755  0.1257
 4505TIP3    H135006   3.812   5.014   5.702 -0.8678  0.7636 -1.0573
 4505TIP3    H235007   3.730   4.893   5.664  0.1531 -0.6462  1.0263
 4506TIP3   OH235008   1.139   4.694  13.681  0.1264 -0.0571 -0.2443
 4506TIP3    H135009   1.086   4.773  13.689  0.9811  0.6637 -1.3616
 4506TIP3    H235010   1.227   4.721  13.706  0.2671 -0.8878  0.2214
 4507TIP3   OH235011   2.912   5.414   4.135  0.0329 -0.6317  0.1510
 4507TIP3    H135012   2.914   5.363   4.216  1.2229 -0.5888  0.1770
 4507TIP3    H235013   2.822   5.409   4.104 -0.3190 -1.0479  1.2286
 4508TIP3   OH235014   1.858   4.407   1.817 -0.3708 -0.0785 -0.5250
 4508TIP3    H135015   1.819   4.338   1.764 -0.6183  1.3790 -2.3679
 4508TIP3    H235016   1.941   4.426   1.773  0.5704 -0.4208  1.0271
 4509TIP3   OH235017   0.675   2.530  16.383  0.6685 -0.3141 -0.7734
 4509TIP3    H135018   0.636   2.607  16.425  1.7884 -0.8903  1.5124
 4509TIP3    H235019   0.767   2.553  16.369  1.3762 -1.6008  1.2207
 4510TIP3   OH235020   1.073   2.378   3.912 -0.2929  0.6043 -0.0360
 4510TIP3    H135021   1.041   2.443   3.975 -1.0055 -1.7474  2.1863
 4510TIP3    H235022   1.168   2.389   3.913 -0.3437  1.0813  0.9247
 4511TIP3   OH235023   4.933   3.213   5.897  0.6900  0.3907 -0.3017
 4511TIP3    H135024   4.912   3.271   5.970 -0.1088 -2.5151  1.9822
 4511TIP3    H235025   4.851   3.168   5.878  1.0678  0.5782 -2.5575
 4512TIP3   OH235026   4.179   3.971   2.773  0.5075  0.2124  1.1385
 4512TIP3    H135027   4.249   3.946   2.834 -0.3770 -0.8532  1.7757
 4512TIP3    H235028   4.109   3.908   2.791 -1.3427  2.3274  1.8292
 4513TIP3   OH235029   3.628   2.865   1.787 -0.0355 -0.3245 -0.0141
 4513TIP3    H135030   3.678   2.939   1.754  2.3675 -2.0629 -0.5828
 4513TIP3    H235031   3.616   2.883   1.880 -1.6437  1.8389 -0.5705
 4514TIP3   OH235032   5.832   3.178  13.137 -0.4202 -0.6194 -0.3243
 4514TIP3    H135033   5.921   3.194  13.105 -0.3267  0.3646  0.3750
 4514TIP3    H235034   5.777   3.196  13.061 -0.1616  1.1071 -0.1448
 4515TIP3   OH235035   0.150   1.759   4.911 -0.2069  0.1728 -0.0141
 4515TIP3    H135036   0.233   1.802   4.931  0.0499 -0.1992 -0.2715
 4515TIP3    H235037   0.084   1.812   4.957  0.2239  0.1577  0.6401
 4516TIP3   OH235038   2.093   0.349   5.067  0.4267  0.3247 -0.2784
 4516TIP3    H135039   2.116   0.257   5.083  1.9217  0.6468 -0.4620
 4516TIP3    H235040   2.093   0.389   5.154 -0.4123  0.1148 -0.1787
 4517TIP3   OH235041   3.877   3.158  13.134 -0.3356  0.4852  0.0091
 4517TIP3    H135042   3.921   3.095  13.191  1.1268  0.6762 -0.8519
 4517TIP3    H235043   3.849   3.106  13.058  1.5492  0.9362 -1.0612
 4518TIP3   OH235044   3.221   5.850  16.197  0.7637 -0.0973 -0.0671
 4518TIP3    H135045   3.268   5.787  16.251  1.0717 -0.9775 -1.3109
 4518TIP3    H235046   3.289   5.890  16.142  0.4489  0.7137  0.1091
 4519TIP3   OH235047   1.375   1.665   4.296 -0.3892  0.3137 -0.3439
 4519TIP3    H135048   1.436   1.594   4.317 -1.2015 -1.1358 -2.5166
 4519TIP3    H235049   1.414   1.708   4.220 -0.0856  2.0525  0.7428
 4520TIP3   OH235050   0.291   5.936   4.715  0.6494  0.0778 -0.3867
 4520TIP3    H135051   0.204   5.895   4.716  0.3115  0.7441  1.2252
 4520TIP3    H235052   0.351   5.864   4.694 -0.0172 -1.0883  1.4560
 4521TIP3   OH235053   1.450   5.659  14.459 -0.8277 -0.2103 -0.2245
 4521TIP3    H135054   1.389   5.722  14.421  0.3470  0.9645 -0.2584
 4521TIP3    H235055   1.487   5.704  14.534 -0.6206 -1.2235  0.2930
 4522TIP3   OH235056   1.932   0.540  12.780  0.3075 -0.4816  0.3813
 4522TIP3    H135057   1.883   0.464  12.811  1.2165 -0.8186  1.0461
 4522TIP3    H235058   1.869   0.591  12.730 -0.9376 -0.4675  1.9032
 4523TIP3   OH235059   3.069   1.911  15.563  0.2890  0.0464  0.0193
 4523TIP3    H135060   3.053   1.972  15.491 -3.2142 -0.4176  0.2135
 4523TIP3    H235061   3.112   1.836  15.522 -1.2650 -0.0391 -1.5782
 4524TIP3   OH235062   3.084   6.754  15.966  0.7902  0.0813  0.0227
 4524TIP3    H135063   3.137   6.772  15.888 -0.3062 -2.1614 -1.3313
 4524TIP3    H235064   3.131   6.683  16.010  0.1779 -0.2394  0.1550
 4525TIP3   OH235065   0.632   6.206   3.960  0.5177  0.2717  0.1629
 4525TIP3    H135066   0.601   6.144   3.894 -0.4447  0.0043  0.8418
 4525TIP3    H235067   0.557   6.264   3.975  0.5008 -0.0663  1.4778
 4526TIP3   OH235068   0.567   5.369  11.080  0.2009 -0.3088 -0.0972
 4526TIP3    H135069   0.496   5.371  11.144 -0.8882  0.6477 -1.2681
 4526TIP3    H235070   0.555   5.285  11.035  0.2607 -0.4726  0.1910
 4527TIP3   OH235071   1.378   5.148   0.031  0.0855  0.5023 -0.4423
 4527TIP3    H135072   1.449   5.197   0.073  0.4920  0.8040 -1.4539
 4527TIP3    H235073   1.307   5.212   0.024 -0.4447  0.0966  0.9097
 4528TIP3   OH235074   5.868   1.294  16.327 -0.2768  0.2537  0.4619
 4528TIP3    H135075   5.875   1.231  16.256  2.3918  1.3259 -0.3696
 4528TIP3    H235076   5.821   1.247  16.396 -0.7234 -1.6905 -1.0587
 4529TIP3   OH235077   3.562   3.107  13.840 -0.1475 -0.2146  0.3268
 4529TIP3    H135078   3.623   3.116  13.767  0.1438 -0.5094  0.5314
 4529TIP3    H235079   3.568   3.190  13.887  0.4952 -0.4400  0.6498
 4530TIP3   OH235080   6.504   0.787   1.160 -0.1814 -0.0573  0.3992
 4530TIP3    H135081   6.588   0.827   1.184  0.0015  0.2652 -0.7114
 4530TIP3    H235082   6.528   0.710   1.109 -0.5551 -0.5003  0.8878
 4531TIP3   OH235083   3.902   3.505  14.282 -0.1163  0.0519 -0.0598
 4531TIP3    H135084   3.816   3.499  14.240  0.4649 -1.1351 -1.1347
 4531TIP3    H235085   3.917   3.599  14.294 -0.7950  0.3580 -1.4984
 4532TIP3   OH235086   2.187   6.677   3.147 -0.0143  0.1820  0.2787
 4532TIP3    H135087   2.144   6.715   3.224 -1.8896 -2.3367  0.6049
 4532TIP3    H235088   2.174   6.743   3.079 -0.8067  1.2675  1.4157
 4533TIP3   OH235089   3.442   4.964   4.295  0.3009 -0.4763 -0.2028
 4533TIP3    H135090   3.503   4.936   4.363 -1.3045  0.4984  1.7271
 4533TIP3    H235091   3.414   4.883   4.252  2.3399 -0.9985 -0.6593
 4534TIP3   OH235092   2.058   0.955  14.673  0.4209 -0.0652  0.1714
 4534TIP3    H135093   2.016   1.014  14.610  1.6813  1.1252  0.4103
 4534TIP3    H235094   1.988   0.894  14.698 -1.7519  2.8832  1.9301
 4535TIP3   OH235095   5.984   5.652   3.472 -0.6420 -0.2732 -0.3684
 4535TIP3    H135096   5.922   5.589   3.437 -1.7734  0.7850 -0.3463
 4535TIP3    H235097   6.026   5.691   3.395 -0.8362 -0.1865 -0.4304
 4536TIP3   OH235098   5.898   5.067   2.133  0.2901  0.1842  0.4310
 4536TIP3    H135099   5.971   5.116   2.171  0.9124  0.6349 -1.2751
 4536TIP3    H235100   5.927   4.976   2.132  0.4346  0.2285  0.6460
 4537TIP3   OH235101   4.541   0.244  15.332  0.7045 -0.2047  0.2003
 4537TIP3    H135102   4.598   0.304  15.379 -0.3444  0.7258  0.3351
 4537TIP3    H235103   4.459   0.246  15.381  0.4006 -1.1404 -0.2591
 4538TIP3   OH235104   4.858   5.187   3.584  0.0944  0.4740  0.0349
 4538TIP3    H135105   4.832   5.263   3.533 -2.6864 -0.0057  0.6138
 4538TIP3    H235106   4.898   5.224   3.663 -0.2664  1.3144 -0.1642
 4539TIP3   OH235107   5.895   6.775  14.006 -0.1231  0.0001  0.2416
 4539TIP3    H135108   5.830   6.762  13.937  1.0212 -1.4222 -0.6422
 4539TIP3    H235109   5.901   6.689  14.048 -0.4550  0.7268  1.8364
 4540TIP3   OH235110   5.293   1.157  11.543 -0.1119  0.2178 -0.1772
 4540TIP3    H135111   5.361   1.159  11.610  1.3861 -2.4336 -1.4334
 4540TIP3    H235112   5.225   1.100  11.579 -0.4414  0.7352  0.0265
 4541TIP3   OH235113   2.956   3.989   6.195 -0.0420  0.0063 -0.1600
 4541TIP3    H135114   2.992   4.077   6.207 -0.2320  0.0699 -0.0572
 4541TIP3    H235115   2.934   3.960   6.283  1.0907 -0.6054 -0.0501
 4542TIP3   OH235116   5.483   6.582   2.297 -0.2645 -0.2070 -0.3312
 4542TIP3    H135117   5.489   6.535   2.380  0.2865 -0.0939 -0.3037
 4542TIP3    H235118   5.457   6.671   2.322 -0.0971 -0.1722 -0.2772
 4543TIP3   OH235119   0.035   5.581  12.778  0.5572 -0.0447  0.3481
 4543TIP3    H135120   0.098   5.538  12.720  0.5703  0.2399  0.1446
 4543TIP3    H235121   0.079   5.587  12.862  1.4121  1.5066 -0.1669
 4544TIP3   OH235122   2.476   1.695  16.829 -0.7347  0.0292  0.5277
 4544TIP3    H135123   2.477   1.660  16.740 -0.5554  2.6444 -0.5948
 4544TIP3    H235124   2.386   1.724  16.843 -0.3840  1.2064  0.4832
 4545TIP3   OH235125   6.370   0.577  10.700 -0.5216 -0.6642 -0.8160
 4545TIP3    H135126   6.449   0.552  10.747 -0.7316 -0.8459 -0.5569
 4545TIP3    H235127   6.304   0.513  10.728 -1.2786  0.6031  0.4414
 4546TIP3   OH235128   4.033   0.547   0.926  0.5194 -0.0204  0.1446
 4546TIP3    H135129   4.062   0.519   1.013  1.7437  1.3236  0.2092
 4546TIP3    H235130   4.037   0.643   0.929 -2.1615  0.1919 -0.4995
 4547TIP3   OH235131   2.429   0.063   3.563 -0.6715  0.0343  0.7227
 4547TIP3    H135132   2.524   0.068   3.576 -0.1542  1.9554 -2.5815
 4547TIP3    H235133   2.392   0.126   3.624  0.4798  1.1145  0.3534
 4548TIP3   OH235134   5.270   3.621   5.090 -0.2493 -0.7013 -0.6753
 4548TIP3    H135135   5.201   3.612   5.024 -1.5576  1.6037  0.2500
 4548TIP3    H235136   5.332   3.682   5.052 -0.6771  0.1333 -0.0714
 4549TIP3   OH235137   3.880   1.850   2.755 -0.3319  0.0826 -0.5921
 4549TIP3    H135138   3.864   1.834   2.848  0.4808 -2.6669 -0.8286
 4549TIP3    H235139   3.964   1.896   2.752  1.3745 -2.7357  0.0357
 4550TIP3   OH235140   2.421   2.913   2.979  0.4249 -0.1933  0.0383
 4550TIP3    H135141   2.394   3.004   2.971 -1.3511 -0.4924  1.8906
 4550TIP3    H235142   2.352   2.863   2.934  0.6847 -0.6972  0.1858
 4551TIP3   OH235143   1.356   4.635   7.018 -0.5748  0.8607 -0.1312
 4551TIP3    H135144   1.384   4.585   6.941  1.1585 -0.5201  1.3071
 4551TIP3    H235145   1.424   4.703   7.028  0.2746 -0.1346  1.2010
 4552TIP3   OH235146   4.878   0.161  12.025 -0.2004 -0.2693 -0.5964
 4552TIP3    H135147   4.809   0.175  11.960 -2.2848  0.4277  1.6099
 4552TIP3    H235148   4.929   0.242  12.025 -1.2206  0.4005 -0.2722
 4553TIP3   OH235149   6.794   3.089   1.613 -0.0814 -0.1836 -0.7891
 4553TIP3    H135150   6.870   3.145   1.630  0.0006 -0.6132  0.3267
 4553TIP3    H235151   6.816   3.044   1.532  0.1078  0.9416 -1.3924
 4554TIP3   OH235152   6.773   4.841  13.926  0.2251  0.7787 -0.8072
 4554TIP3    H135153   6.833   4.770  13.903 -0.5129 -0.0163 -0.3569
 4554TIP3    H235154   6.728   4.862  13.844 -0.1655  0.1122 -0.7762
 4555TIP3   OH235155   1.955   3.188  15.221  0.2748 -0.3777 -0.5237
 4555TIP3    H135156   1.892   3.241  15.269  0.6043 -0.9116  0.5352
 4555TIP3    H235157   1.933   3.098  15.245  0.1152 -0.6957 -1.8070
 4556TIP3   OH235158   2.200   1.651  10.439  0.0039  0.1246 -0.8005
 4556TIP3    H135159   2.220   1.680  10.528  1.7643 -1.2694 -0.6898
 4556TIP3    H235160   2.175   1.559  10.449 -0.2294  0.0812 -1.7023
 4557TIP3   OH235161   4.383   0.196  11.936 -0.0299  0.1275  0.0505
 4557TIP3    H135162   4.305   0.149  11.906  0.1089 -0.2899  0.3365
 4557TIP3    H235163   4.372   0.204  12.031 -0.7227  1.9115 -0.1446
 4558TIP3   OH235164   6.100   2.843  11.389 -0.0152  0.1733 -0.1546
 4558TIP3    H135165   6.110   2.748  11.385  1.5384  0.3313 -0.6303
 4558TIP3    H235166   6.013   2.859  11.351 -0.0225 -1.0056 -0.6966
 4559TIP3   OH235167   1.465   0.581  12.427 -0.4014 -0.2769 -0.2052
 4559TIP3    H135168   1.374   0.613  12.421 -1.0416 -2.1909 -2.5586
 4559TIP3    H235169   1.458   0.499  12.476  0.1546 -0.1797  0.0383
 4560TIP3   OH235170   4.454   6.088  13.992 -0.1274 -0.4002 -0.9354
 4560TIP3    H135171   4.410   6.007  13.966 -2.2270  0.3665 -0.0168
 4560TIP3    H235172   4.465   6.136  13.909 -0.5221 -0.8507 -1.2584
 4561TIP3   OH235173   0.468   5.528  16.190 -0.2306 -0.1452 -0.4123
 4561TIP3    H135174   0.425   5.553  16.108  0.1157 -1.7637 -1.1427
 4561TIP3    H235175   0.460   5.604  16.246 -0.0101  1.2116 -2.1469
 4562TIP3   OH235176   2.500   0.701  12.972 -0.0321  0.2650  0.3311
 4562TIP3    H135177   2.474   0.776  13.026 -1.9684 -1.7550  2.3682
 4562TIP3    H235178   2.427   0.640  12.978  0.8629 -1.2391 -2.4498
 4563TIP3   OH235179   3.146   0.378   0.058  0.0297 -0.2958  0.2836
 4563TIP3    H135180   3.074   0.441   0.062  0.1932 -0.1107  0.2689
 4563TIP3    H235181   3.122   0.319  -0.014  1.1392  1.2843 -1.4588
 4564TIP3   OH235182   3.693   1.776  10.993 -0.0780  0.2588  0.8316
 4564TIP3    H135183   3.716   1.803  11.082  2.0431  0.3184  0.3097
 4564TIP3    H235184   3.630   1.705  11.006  1.3551 -0.8257  2.4526
 4565TIP3   OH235185   2.435   1.131  16.473 -0.1364  0.1338 -0.0044
 4565TIP3    H135186   2.519   1.092  16.447 -0.2202 -0.0003 -0.0749
 4565TIP3    H235187   2.371   1.092  16.413 -0.3085 -0.0612  0.3044
 4566TIP3   OH235188   3.985   5.833  14.739 -0.2026 -0.2386  0.2620
 4566TIP3    H135189   3.939   5.776  14.677 -0.6760  0.3870  0.0127
 4566TIP3    H235190   3.917   5.859  14.802  0.3885 -1.2872  1.3816
 4567TIP3   OH235191   5.251   3.949   4.369  0.3086  0.3932  0.3465
 4567TIP3    H135192   5.187   3.887   4.332  0.0941  0.4103  0.6885
 4567TIP3    H235193   5.230   3.952   4.462  0.4003  0.8893  0.3496
 4568TIP3   OH235194   3.759   2.913  11.938  0.0414  0.6563 -0.8250
 4568TIP3    H135195   3.755   2.998  11.894  1.4955  1.4871  0.5240
 4568TIP3    H235196   3.787   2.934  12.027 -1.5815 -1.0659  0.1595
 4569TIP3   OH235197   4.674   5.774  12.006 -0.1191  0.1966 -0.2799
 4569TIP3    H135198   4.752   5.736  12.046 -0.8778 -2.4624 -1.1200
 4569TIP3    H235199   4.605   5.762  12.072 -0.4229 -0.0659 -0.6439
 4570TIP3   OH235200   4.693   4.654   0.890 -0.1938 -0.1324 -0.0301
 4570TIP3    H135201   4.689   4.738   0.844 -1.2630  1.4517  2.6821
 4570TIP3    H235202   4.637   4.596   0.839 -0.8944  1.3607 -1.0327
 4571TIP3   OH235203   0.359   1.844   3.923  0.4508  0.3442  0.6755
 4571TIP3    H135204   0.330   1.790   3.849 -0.9034  1.2603  0.5218
 4571TIP3    H235205   0.318   1.804   3.999  0.8030  0.1772  0.7823
 4572TIP3   OH235206   0.692   5.939  12.228  0.4790  0.7631 -0.0674
 4572TIP3    H135207   0.650   5.989  12.298 -0.9320  1.8242 -1.5883
 4572TIP3    H235208   0.668   5.848  12.246 -1.0960  1.1719  0.0422
 4573TIP3   OH235209   5.070   6.708  11.568  0.3004 -0.4415 -0.1700
 4573TIP3    H135210   5.015   6.784  11.590 -0.7625 -1.0672 -0.5789
 4573TIP3    H235211   5.074   6.657  11.649  1.8593  0.5328  0.3988
 4574TIP3   OH235212   6.746   4.504   3.449  0.2267 -0.4415 -0.3970
 4574TIP3    H135213   6.711   4.593   3.439 -1.4164 -1.2213 -2.5359
 4574TIP3    H235214   6.675   4.447   3.418  0.1904 -2.7340  3.3110
 4575TIP3   OH235215   4.766   4.642  16.340  0.4096  0.0494  0.4182
 4575TIP3    H135216   4.730   4.637  16.252  0.3795 -2.6967  0.5145
 4575TIP3    H235217   4.768   4.736  16.360 -0.4822  0.6684 -2.1016
 4576TIP3   OH235218   2.553   2.318   3.110 -0.2814 -0.2920 -0.7396
 4576TIP3    H135219   2.511   2.235   3.091 -1.3426  0.3434 -1.2873
 4576TIP3    H235220   2.641   2.310   3.073  0.2559 -1.7801  0.7549
 4577TIP3   OH235221   2.635   4.335   4.957  0.1354  0.3225  0.2168
 4577TIP3    H135222   2.648   4.397   4.884  0.1158 -0.2219 -0.2589
 4577TIP3    H235223   2.580   4.382   5.019  0.6819  1.0348  0.1803
 4578TIP3   OH235224   0.773   6.488   4.843  0.1015 -0.3787  0.0617
 4578TIP3    H135225   0.705   6.431   4.807  1.0917 -1.9828  0.6397
 4578TIP3    H235226   0.799   6.445   4.924  3.1036 -0.8778 -1.0502
 4579TIP3   OH235227   1.187   0.668   0.886  0.2717 -0.4746  0.0182
 4579TIP3    H135228   1.270   0.703   0.918 -1.8265  3.0525  2.4498
 4579TIP3    H235229   1.210   0.610   0.814  4.6948  1.5462 -0.4826
 4580TIP3   OH235230   4.497   5.609   2.165  0.2251 -0.2475 -0.6334
 4580TIP3    H135231   4.547   5.563   2.097 -0.9760  0.2816 -1.9299
 4580TIP3    H235232   4.477   5.694   2.126 -0.6426  0.0037  0.3156
 4581TIP3   OH235233   5.780   4.006  13.329 -0.0360  0.3646  0.1521
 4581TIP3    H135234   5.764   3.976  13.239  0.4352 -0.2303  0.2611
 4581TIP3    H235235   5.761   3.930  13.383  3.1398 -0.4831  0.2943
 4582TIP3   OH235236   3.795   3.100   3.357 -0.1614  0.1600  0.0009
 4582TIP3    H135237   3.711   3.101   3.310 -0.4658  2.9442  0.4393
 4582TIP3    H235238   3.796   3.182   3.407  0.5807 -2.0913  4.1458
 4583TIP3   OH235239   2.449   0.802   5.062 -0.0966 -0.7657 -0.6269
 4583TIP3    H135240   2.447   0.735   5.130  2.0913  0.3992  0.6924
 4583TIP3    H235241   2.464   0.753   4.981  1.2729 -1.9170  0.2692
 4584TIP3   OH235242   0.619   1.657  15.914 -0.0381  0.2732  0.0276
 4584TIP3    H135243   0.680   1.674  15.842 -0.7478  1.0476 -0.4138
 4584TIP3    H235244   0.571   1.740  15.924 -1.1147 -0.3630  0.2607
 4585TIP3   OH235245   0.796   6.519   0.459 -0.4398 -0.6406  0.5208
 4585TIP3    H135246   0.762   6.448   0.513 -0.2142 -0.6267  0.6811
 4585TIP3    H235247   0.890   6.521   0.477 -0.1163 -1.5349 -0.9110
 4586TIP3   OH235248   4.515   3.813  10.217  0.0159  0.4750  0.6310
 4586TIP3    H135249   4.441   3.870  10.197 -0.5848 -0.2341  0.8109
 4586TIP3    H235250   4.477   3.726  10.230  0.7583  0.2868  1.7105
 4587TIP3   OH235251   1.922   0.823   0.213  0.6352  0.0336 -0.2387
 4587TIP3    H135252   1.885   0.754   0.268  1.8243 -1.6518 -1.4477
 4587TIP3    H235253   1.997   0.856   0.263  0.9837 -0.6402 -0.3052
 4588TIP3   OH235254   1.857   6.438   0.458 -0.6772  0.1780 -0.8405
 4588TIP3    H135255   1.930   6.500   0.449 -2.1892  1.8749 -2.1957
 4588TIP3    H235256   1.851   6.395   0.373 -0.0015 -1.5064 -0.0869
 4589TIP3   OH235257   1.306   5.776   3.265 -0.0856  0.2323  0.7355
 4589TIP3    H135258   1.311   5.690   3.223 -4.0201  0.1989  0.0267
 4589TIP3    H235259   1.278   5.758   3.354  0.0800  0.7579  0.9010
 4590TIP3   OH235260   1.814   5.120   4.133 -0.0535 -0.4087  0.2864
 4590TIP3    H135261   1.806   5.092   4.224  1.7277 -2.3549 -0.0670
 4590TIP3    H235262   1.782   5.210   4.132  0.7220 -0.0208  2.9997
 4591TIP3   OH235263   6.744   5.184  14.515 -0.0481 -0.2124  0.1697
 4591TIP3    H135264   6.654   5.218  14.521 -1.2584 -2.9969 -0.8093
 4591TIP3    H235265   6.767   5.196  14.423  0.1443 -0.5754  0.1721
 4592TIP3   OH235266   2.912   4.093   0.040  0.0250 -0.0423  0.1000
 4592TIP3    H135267   2.862   4.089  -0.042  0.1671 -0.4589  0.0337
 4592TIP3    H235268   2.919   4.002   0.069  0.6089  0.0295  0.1943
 4593TIP3   OH235269   5.585   5.713   3.475 -0.4152 -0.7185 -0.4943
 4593TIP3    H135270   5.558   5.625   3.449 -0.0654 -1.0131  0.0981
 4593TIP3    H235271   5.574   5.714   3.570  0.6701 -0.5144 -0.3520
 4594TIP3   OH235272   2.360   4.708   3.623 -0.0216  0.1439 -0.2915
 4594TIP3    H135273   2.334   4.780   3.564  1.1579 -0.1428 -1.1988
 4594TIP3    H235274   2.439   4.672   3.583  0.6714 -0.2385  1.3561
 4595TIP3   OH235275   2.073   1.965   6.308  0.3426 -0.2118 -0.7985
 4595TIP3    H135276   2.134   1.977   6.235 -0.0915  0.4287 -1.0715
 4595TIP3    H235277   2.128   1.938   6.381  1.1015  1.2752 -0.7862
 4596TIP3   OH235278   2.689   1.004  12.944  0.4493 -0.0880 -0.0636
 4596TIP3    H135279   2.653   1.092  12.930  1.4992  0.1671 -1.3583
 4596TIP3    H235280   2.691   0.993  13.039 -4.1918 -0.6284  0.2135
 4597TIP3   OH235281   2.516   3.462  12.035  0.3522  0.1612  0.0607
 4597TIP3    H135282   2.468   3.400  12.090 -1.8677 -0.8819 -2.7544
 4597TIP3    H235283   2.448   3.520  12.000  2.0934  2.7915  0.7833
 4598TIP3   OH235284   3.088   4.291   4.571  0.2019 -0.3588 -0.5378
 4598TIP3    H135285   3.013   4.232   4.581 -0.3369  0.0499 -1.9329
 4598TIP3    H235286   3.095   4.334   4.656 -0.6799 -0.9496 -0.1445
 4599TIP3   OH235287   6.499   5.473  16.302  0.2852  0.3454  0.1577
 4599TIP3    H135288   6.512   5.450  16.394 -0.3654 -0.8120 -0.0225
 4599TIP3    H235289   6.440   5.549  16.304 -2.8492 -1.9225  0.6662
 4600TIP3   OH235290   3.201   1.392   3.945 -0.2532  0.2363  0.2098
 4600TIP3    H135291   3.232   1.351   4.026  2.3620  0.7504 -0.4487
 4600TIP3    H235292   3.198   1.486   3.965  0.9756  0.4249 -0.4381
 4601TIP3   OH235293   0.819   0.240  15.478  0.1557  0.0823 -0.6226
 4601TIP3    H135294   0.730   0.214  15.453  0.6632 -0.3353 -2.0888
 4601TIP3    H235295   0.856   0.276  15.398  1.0302  1.0494  0.2051
 4602TIP3   OH235296   6.401   5.344   4.170  0.7339  0.0722  0.2779
 4602TIP3    H135297   6.402   5.266   4.115  0.0995  1.9717 -2.6516
 4602TIP3    H235298   6.493   5.361   4.190  0.9231 -1.0150  0.3626
 4603TIP3   OH235299   3.720   3.769   5.798 -0.0435 -0.2316 -0.2126
 4603TIP3    H135300   3.653   3.794   5.734 -0.8802 -1.9844 -0.0638
 4603TIP3    H235301   3.726   3.674   5.791  2.5140 -0.1351 -0.2670
 4604TIP3   OH235302   2.292   2.867   2.720 -0.0467 -0.2857 -0.2744
 4604TIP3    H135303   2.376   2.865   2.674 -0.0054  0.5204 -0.2382
 4604TIP3    H235304   2.246   2.788   2.689 -0.2105  0.4713 -2.0563
 4605TIP3   OH235305   6.295   4.438   0.106  0.3274  0.1017  0.2313
 4605TIP3    H135306   6.242   4.404   0.178 -1.0456  2.6618  0.5404
 4605TIP3    H235307   6.271   4.384   0.030 -1.3395  0.0264  0.7933
 4606TIP3   OH235308   3.075   6.509  15.279  0.1688  0.2816  0.3081
 4606TIP3    H135309   3.105   6.430  15.324  2.3158  2.0620  2.2265
 4606TIP3    H235310   2.985   6.522  15.310 -1.0563 -2.4082 -1.6501
 4607TIP3   OH235311   2.634   3.672   4.278 -0.2330  0.6697 -0.4080
 4607TIP3    H135312   2.697   3.643   4.345  2.0063  1.9779 -1.7858
 4607TIP3    H235313   2.550   3.636   4.306  1.5871 -4.0823 -0.1963
 4608TIP3   OH235314   0.148   5.660  16.561  0.2560  0.5335  0.1248
 4608TIP3    H135315   0.162   5.694  16.650 -2.0581  2.0217  0.0068
 4608TIP3    H235316   0.229   5.678  16.515  0.8099  1.5069  1.4140
 4609TIP3   OH235317   5.107   2.835  15.253 -0.6736  0.4834  0.0457
 4609TIP3    H135318   5.138   2.898  15.319  1.8055 -0.0762 -0.4892
 4609TIP3    H235319   5.071   2.762  15.304 -0.6558  0.9390  0.7214
 4610TIP3   OH235320   4.483   3.308   3.048 -0.2555  0.0118  0.1412
 4610TIP3    H135321   4.534   3.386   3.030  1.0954 -0.8323  0.1861
 4610TIP3    H235322   4.545   3.236   3.037 -0.7038 -0.8979  2.7930
 4611TIP3   OH235323   6.152   5.377   3.371  0.0475  0.4216 -0.4437
 4611TIP3    H135324   6.072   5.404   3.325 -0.4760 -0.0916  0.1350
 4611TIP3    H235325   6.189   5.308   3.316 -0.9095 -0.6233  0.1965
 4612TIP3   OH235326   3.523   0.973  15.787 -0.1279  0.0637 -0.5886
 4612TIP3    H135327   3.606   1.007  15.819  1.1462 -1.9136 -1.5779
 4612TIP3    H235328   3.477   0.943  15.866  0.4750  0.3853 -0.1114
 4613TIP3   OH235329   0.144   5.016   2.899  0.4424 -0.4959 -0.2217
 4613TIP3    H135330   0.158   4.976   2.985  0.6303  0.3649  0.1573
 4613TIP3    H235331   0.230   5.017   2.858  0.6178  0.3448  0.1437
 4614TIP3   OH235332   4.694   4.282  10.761  0.4224  0.3636  0.5307
 4614TIP3    H135333   4.695   4.376  10.776  0.1434  0.4964 -0.2323
 4614TIP3    H235334   4.772   4.265  10.709 -0.4375  0.4578 -0.8426
 4615TIP3   OH235335   2.832   0.314  11.581 -0.1028 -0.4011  0.4811
 4615TIP3    H135336   2.764   0.374  11.611 -0.2700  0.8329 -2.0436
 4615TIP3    H235337   2.911   0.367  11.577 -0.2271 -0.2823 -1.6815
 4616TIP3   OH235338   3.360   1.036   2.029  0.0604  0.0403 -0.0195
 4616TIP3    H135339   3.359   1.099   1.957  0.3981  0.2665  0.1659
 4616TIP3    H235340   3.313   1.080   2.100 -0.7589 -0.4049 -0.2753
 4617TIP3   OH235341   1.095   0.408   0.270 -0.6647 -0.7993 -0.0183
 4617TIP3    H135342   1.077   0.375   0.182 -1.6915  0.4730 -0.3224
 4617TIP3    H235343   1.189   0.397   0.281 -0.2498  0.3419 -1.8754
 4618TIP3   OH235344   3.109   4.556   2.060  0.2874 -0.0300  0.5199
 4618TIP3    H135345   3.150   4.637   2.089  1.4288  0.2191 -1.5929
 4618TIP3    H235346   3.154   4.534   1.978 -2.2505 -0.9946 -0.7300
 4619TIP3   OH235347   2.568   2.256   5.992  0.6333 -0.1970 -0.4201
 4619TIP3    H135348   2.485   2.211   6.010  0.4854  0.4666  0.6318
 4619TIP3    H235349   2.633   2.185   5.985 -0.0060 -0.7219 -1.2768
 4620TIP3   OH235350   0.305   2.477  16.533  0.5871 -0.7773  0.7639
 4620TIP3    H135351   0.253   2.406  16.497 -0.1770  0.2989 -0.3025
 4620TIP3    H235352   0.390   2.437  16.552 -0.2486 -2.2922  1.5166
 4621TIP3   OH235353   1.296   1.373  14.857  0.0539  0.3797 -0.0480
 4621TIP3    H135354   1.312   1.421  14.939  0.8395  1.7947 -0.9907
 4621TIP3    H235355   1.379   1.330  14.838 -1.0202 -2.6827  1.5277
 4622TIP3   OH235356   2.374   0.915  10.994 -0.8887 -0.0497  0.1969
 4622TIP3    H135357   2.383   0.858  10.918  0.4894  0.1417  0.1930
 4622TIP3    H235358   2.462   0.947  11.011 -1.4458  1.2249  0.8696
 4623TIP3   OH235359   3.516   1.929   4.508 -0.3050  0.2495 -0.1056
 4623TIP3    H135360   3.558   1.903   4.426 -0.5375  2.1520 -0.8831
 4623TIP3    H235361   3.587   1.930   4.572  0.3099  0.7640 -0.7749
 4624TIP3   OH235362   4.219   0.406   2.779 -0.1497  0.4762  0.6335
 4624TIP3    H135363   4.170   0.394   2.698  1.7435  0.8178 -0.6062
 4624TIP3    H235364   4.239   0.499   2.781  0.7851  0.2774  0.9071
 4625TIP3   OH235365   4.959   5.020   4.338 -0.1188  1.0040  0.3461
 4625TIP3    H135366   4.986   5.065   4.418  1.5137  0.6425  0.0249
 4625TIP3    H235367   5.019   4.946   4.330 -2.1307 -0.7323  0.3475
 4626TIP3   OH235368   1.595   0.106   3.927 -0.6765 -0.4296 -0.0546
 4626TIP3    H135369   1.519   0.091   3.871 -0.7214 -0.9373  0.1352
 4626TIP3    H235370   1.600   0.028   3.982 -1.4462  0.6249  1.5920
 4627TIP3   OH235371   2.815   1.335   4.062 -0.1899 -0.6249  0.3220
 4627TIP3    H135372   2.871   1.384   4.122 -0.3447 -0.8552  0.6563
 4627TIP3    H235373   2.843   1.364   3.975  0.1909 -0.4572  0.4961
 4628TIP3   OH235374   2.444   5.943  11.685 -0.5604 -0.3043  0.0088
 4628TIP3    H135375   2.446   5.852  11.712  1.0809 -0.4279 -0.4573
 4628TIP3    H235376   2.533   5.975  11.700 -0.3919  0.4769 -2.2894
 4629TIP3   OH235377   1.827   1.058   1.487  0.3363 -0.5662 -0.3454
 4629TIP3    H135378   1.852   1.083   1.398  2.2870 -1.6017 -0.1615
 4629TIP3    H235379   1.898   1.092   1.542 -0.7915 -0.0278  0.8069
 4630TIP3   OH235380   3.940   5.629   2.673  0.5118  0.6155  0.8489
 4630TIP3    H135381   3.937   5.654   2.766 -0.7488 -1.6395  1.4794
 4630TIP3    H235382   3.850   5.638   2.643  0.6099 -0.2192  0.2957
 4631TIP3   OH235383   0.922   5.902  17.138 -0.0111  0.0104  0.2320
 4631TIP3    H135384   0.915   5.808  17.121 -0.7648  0.2630 -1.0705
 4631TIP3    H235385   0.999   5.911  17.194  0.5306 -1.3197 -0.2441
 4632TIP3   OH235386   5.718   1.156  15.330  0.5749 -0.0499 -0.1603
 4632TIP3    H135387   5.658   1.192  15.395 -0.0875  1.4849 -1.5595
 4632TIP3    H235388   5.805   1.185  15.360  0.1195  2.2950 -0.9111
 4633TIP3   OH235389   6.081   0.732   0.207  0.1193  0.2279 -0.1314
 4633TIP3    H135390   6.031   0.651   0.206  0.3111  0.0716  1.2517
 4633TIP3    H235391   6.017   0.800   0.227  0.3186  0.1020  1.0358
 4634TIP3   OH235392   3.141   1.316  16.363  0.3819  0.4601  0.3034
 4634TIP3    H135393   3.194   1.240  16.385  0.3871 -0.0213 -1.2743
 4634TIP3    H235394   3.161   1.334  16.271  0.0997  2.1391  0.5307
 4635TIP3   OH235395   0.425   2.636  13.105 -0.4520 -0.1227 -0.6912
 4635TIP3    H135396   0.356   2.649  13.170  1.2858 -2.3306  1.7795
 4635TIP3    H235397   0.402   2.554  13.062  0.2418 -0.5171 -0.3295
 4636TIP3   OH235398   5.335   0.852   4.228  0.8531 -0.1045  0.3119
 4636TIP3    H135399   5.383   0.789   4.281 -0.3063 -0.9986  0.3405
 4636TIP3    H235400   5.248   0.855   4.267  0.6717  0.9751 -0.1389
 4637TIP3   OH235401   1.272   0.963   2.101  0.8126 -0.2357 -0.6184
 4637TIP3    H135402   1.183   0.928   2.096  1.0296 -1.0077  0.5831
 4637TIP3    H235403   1.262   1.057   2.091 -0.3152 -0.1554  0.9274
 4638TIP3   OH235404   4.113   4.402   2.295 -0.3064  0.3718  0.3764
 4638TIP3    H135405   4.023   4.374   2.279 -0.8736  0.6019  2.7432
 4638TIP3    H235406   4.139   4.448   2.216 -3.2438  2.6769  0.6105
 4639TIP3   OH235407   0.425   3.447   1.957 -0.3377 -0.2613 -0.3547
 4639TIP3    H135408   0.362   3.423   1.890 -1.7510  1.8099  0.1406
 4639TIP3    H235409   0.430   3.371   2.015 -3.3565 -0.0638  0.2900
 4640TIP3   OH235410   5.519   0.625  14.136 -0.3990 -0.5403  0.1830
 4640TIP3    H135411   5.499   0.666  14.051 -1.3864  1.6885  1.4041
 4640TIP3    H235412   5.436   0.626  14.183 -0.3580 -3.6591  0.5093
 4641TIP3   OH235413   3.152   0.816  13.083 -0.8976 -0.1437  0.1515
 4641TIP3    H135414   3.153   0.741  13.144  0.0066 -1.2075 -1.1172
 4641TIP3    H235415   3.067   0.810  13.040 -1.1905  0.1069  0.6775
 4642TIP3   OH235416   0.369   3.270  15.133 -0.0507 -0.2245 -0.7751
 4642TIP3    H135417   0.285   3.294  15.093  0.6289  0.8241 -1.6351
 4642TIP3    H235418   0.413   3.219  15.065  0.8143  0.9320 -1.0972
 4643TIP3   OH235419   2.620   0.298  15.887 -0.3637  0.0600 -0.6011
 4643TIP3    H135420   2.706   0.257  15.890  0.5914  1.9849 -0.6948
 4643TIP3    H235421   2.593   0.293  15.795  0.6291  1.3771 -0.9768
 4644TIP3   OH235422   5.354   5.955   2.410  0.0821 -0.3772 -0.0172
 4644TIP3    H135423   5.337   5.957   2.316  0.4571 -3.2556 -0.2372
 4644TIP3    H235424   5.356   6.047   2.436 -2.9748  0.4689 -2.2520
 4645TIP3   OH235425   5.763   5.888  11.292  0.3122 -0.1245 -0.3888
 4645TIP3    H135426   5.720   5.802  11.298  0.0850 -0.1987 -2.5186
 4645TIP3    H235427   5.692   5.951  11.309  0.5335 -0.3240  1.4414
 4646TIP3   OH235428   1.522   6.740   4.961 -0.4575 -0.0703  0.2154
 4646TIP3    H135429   1.574   6.717   4.884  1.3564  1.7442  0.8034
 4646TIP3    H235430   1.547   6.675   5.027 -0.6531 -0.5488 -0.1761
 4647TIP3   OH235431   4.427   1.263  15.151 -0.0949  0.2358 -0.1925
 4647TIP3    H135432   4.357   1.242  15.090  0.6130  1.5177 -1.4922
 4647TIP3    H235433   4.460   1.178  15.180 -1.0082 -0.3817 -0.9135
 4648TIP3   OH235434   4.821   1.670  11.140  0.3215 -0.0529  0.7378
 4648TIP3    H135435   4.751   1.734  11.157  1.3723  1.1199  0.8034
 4648TIP3    H235436   4.828   1.620  11.220 -0.9519 -0.7124  0.4681
 4649TIP3   OH235437   1.251   4.367  15.703 -0.0912 -0.5452  0.2406
 4649TIP3    H135438   1.164   4.360  15.742  0.0220  1.0377  0.8380
 4649TIP3    H235439   1.286   4.278  15.706 -1.9894 -1.3817 -0.7814
 4650TIP3   OH235440   0.025   3.329   3.185 -0.1965  0.6648 -0.2425
 4650TIP3    H135441  -0.070   3.316   3.187  0.0781 -2.1102 -1.1776
 4650TIP3    H235442   0.038   3.417   3.222 -3.0276  0.7111  0.8888
 4651TIP3   OH235443   2.095   3.675   1.041  0.0975  0.3764 -1.0105
 4651TIP3    H135444   2.154   3.613   0.998 -0.7021 -0.1521 -1.3818
 4651TIP3    H235445   2.017   3.677   0.985 -0.9895 -0.3608  0.3813
 4652TIP3   OH235446   1.085   2.928   6.170 -0.0821 -0.0636  0.3464
 4652TIP3    H135447   1.120   2.901   6.086 -1.5593  2.1890 -1.1047
 4652TIP3    H235448   1.067   2.847   6.217  0.0814 -1.3973 -1.8050
 4653TIP3   OH235449   6.580   2.325  12.439 -0.0362  0.2203 -0.1568
 4653TIP3    H135450   6.588   2.321  12.344  0.7462  0.3911 -0.1083
 4653TIP3    H235451   6.610   2.240  12.470  2.2261  1.0219  0.0560
 4654TIP3   OH235452   5.739   5.285   2.228  0.4417  0.3552  0.2667
 4654TIP3    H135453   5.829   5.258   2.213 -0.2049 -3.1834  1.8624
 4654TIP3    H235454   5.743   5.347   2.300  1.5182 -1.2202  1.6190
 4655TIP3   OH235455   2.599   5.846   2.778  0.0835 -0.1634 -0.0363
 4655TIP3    H135456   2.685   5.804   2.782  0.1171 -0.0190  0.7838
 4655TIP3    H235457   2.540   5.785   2.823 -0.5607 -0.9711 -1.8321
 4656TIP3   OH235458   6.589   4.535  15.914 -0.3441  0.0514 -0.1590
 4656TIP3    H135459   6.591   4.440  15.923 -1.0881  0.0751  0.3851
 4656TIP3    H235460   6.647   4.567  15.983 -0.9090  0.0180  0.3400
 4657TIP3   OH235461   6.338   4.103  12.818  0.3762 -0.8066 -0.2384
 4657TIP3    H135462   6.324   4.014  12.850  0.5426 -0.9166 -0.4657
 4657TIP3    H235463   6.262   4.152  12.847 -0.4055 -1.3461 -1.3125
 4658TIP3   OH235464   2.649   1.841  11.949  0.6006 -0.0748 -0.0599
 4658TIP3    H135465   2.616   1.757  11.918 -0.1316  0.7901 -1.7483
 4658TIP3    H235466   2.576   1.902  11.935  0.8630  0.7310  1.7998
 4659TIP3   OH235467   5.052   6.180  12.888  0.3080 -0.0186 -0.4314
 4659TIP3    H135468   5.117   6.134  12.940  1.3249  1.1196 -0.6441
 4659TIP3    H235469   5.017   6.248  12.946  0.8309  0.7067 -0.9407
 4660TIP3   OH235470   0.417   1.465  10.726  0.3760 -0.1493 -0.2468
 4660TIP3    H135471   0.366   1.422  10.657  1.8956  0.9573 -2.1583
 4660TIP3    H235472   0.446   1.547  10.687 -0.0206  1.3098  2.3129
 4661TIP3   OH235473   3.361   0.294  15.046 -0.0342 -0.1525 -0.5333
 4661TIP3    H135474   3.355   0.388  15.059 -1.5687 -0.2892  0.0128
 4661TIP3    H235475   3.447   0.270  15.079  0.4286  1.0715 -0.8068
 4662TIP3   OH235476   3.336   1.493  11.474 -0.2928 -0.1384  0.5461
 4662TIP3    H135477   3.243   1.470  11.464 -0.3253 -0.0153  0.5544
 4662TIP3    H235478   3.334   1.583  11.508 -0.1801 -0.3660  1.1634
 4663TIP3   OH235479   5.464   6.236  13.300 -0.1474 -0.3253  0.0259
 4663TIP3    H135480   5.433   6.148  13.319 -1.6334  0.5457  1.9909
 4663TIP3    H235481   5.430   6.255  13.212 -1.6543 -0.9437  0.4469
 4664TIP3   OH235482   2.543   1.014   5.373 -0.1844  0.4622 -0.5684
 4664TIP3    H135483   2.564   1.059   5.455  1.0473 -0.1037 -0.5487
 4664TIP3    H235484   2.449   0.999   5.377 -0.3530  1.6127  0.1397
 4665TIP3   OH235485   1.217   2.496   5.816 -0.1483  0.2780  0.4029
 4665TIP3    H135486   1.217   2.576   5.763 -3.5614 -0.5464 -1.1690
 4665TIP3    H235487   1.222   2.527   5.907 -0.5652  2.2248 -0.1920
 4666TIP3   OH235488   1.512   6.129  13.413 -0.4774  0.0481  0.1999
 4666TIP3    H135489   1.544   6.126  13.323  1.2865 -1.2720  0.8163
 4666TIP3    H235490   1.444   6.062  13.416 -0.0356 -0.4101  0.0331
 4667TIP3   OH235491   6.777   3.906   3.528  0.1119  0.0999 -0.0305
 4667TIP3    H135492   6.722   3.979   3.499 -1.0541 -1.0474 -0.8192
 4667TIP3    H235493   6.753   3.833   3.471  0.9675 -1.0159  0.9765
 4668TIP3   OH235494   6.647   3.658   0.063 -0.4744 -0.6770 -0.1951
 4668TIP3    H135495   6.680   3.569   0.069 -0.5695 -0.6432  1.2194
 4668TIP3    H235496   6.722   3.714   0.084 -1.0151 -0.5498  1.5676
 4669TIP3   OH235497   1.742   5.898  16.152  0.6664  0.0147  0.3897
 4669TIP3    H135498   1.707   5.816  16.115 -0.0187 -0.2488  1.5550
 4669TIP3    H235499   1.775   5.946  16.077 -0.9311 -0.3793 -0.6106
 4670TIP3   OH235500   2.401   4.271  14.441  0.0454  0.1353 -0.5234
 4670TIP3    H135501   2.454   4.194  14.420  0.9153  0.5429  0.1134
 4670TIP3    H235502   2.447   4.344  14.399  1.7813  0.9576  2.5042
 4671TIP3   OH235503   2.052   5.981  14.653  0.3111  0.4020 -0.5593
 4671TIP3    H135504   2.014   5.911  14.600  0.8010  0.0790 -0.4883
 4671TIP3    H235505   2.015   6.062  14.615  0.4130  0.1579 -1.1931
 4672TIP3   OH235506   3.286   2.268   1.502  0.3281  0.7520  0.5688
 4672TIP3    H135507   3.276   2.207   1.429  0.6203 -0.2690  1.3784
 4672TIP3    H235508   3.350   2.332   1.470 -1.1270  1.5710 -0.8638
 4673TIP3   OH235509   4.733   5.178   4.876  0.0533  0.3875  0.4730
 4673TIP3    H135510   4.734   5.083   4.889 -0.7505  0.2780 -0.1762
 4673TIP3    H235511   4.640   5.201   4.877  0.0819  0.7963 -1.8525
 4674TIP3   OH235512   4.048   5.286   3.284  0.0104  0.3914  0.2789
 4674TIP3    H135513   4.134   5.326   3.299  0.3140 -0.0307 -0.2843
 4674TIP3    H235514   3.988   5.337   3.337  0.3806  1.6438 -0.4748
 4675TIP3   OH235515   5.766   2.490   5.485  0.3375  0.1791  0.8446
 4675TIP3    H135516   5.717   2.512   5.564 -0.2653 -0.1453  0.5620
 4675TIP3    H235517   5.712   2.427   5.439 -0.1722  1.6747 -0.7311
 4676TIP3   OH235518   3.732   3.831  15.621  0.0426  0.6081 -0.2241
 4676TIP3    H135519   3.789   3.782  15.561 -1.0644  1.7216 -2.2874
 4676TIP3    H235520   3.649   3.838  15.575 -0.2563  3.2790  0.5490
 4677TIP3   OH235521   3.771   2.686  12.277  0.6105 -0.5772  0.0352
 4677TIP3    H135522   3.753   2.664  12.185  0.6317  0.5697 -0.2558
 4677TIP3    H235523   3.697   2.742  12.303  1.7076  0.9470  0.0253
 4678TIP3   OH235524   3.371   5.736   4.159  0.0527 -0.3498  0.3933
 4678TIP3    H135525   3.349   5.693   4.077 -0.1512  1.4173 -0.5220
 4678TIP3    H235526   3.412   5.667   4.212  1.8583 -1.1198 -1.8408
 4679TIP3   OH235527   5.543   3.271   6.015 -0.6324 -0.6489 -0.1877
 4679TIP3    H135528   5.556   3.356   5.973 -0.7143 -1.0713 -1.1185
 4679TIP3    H235529   5.524   3.212   5.941  1.6574 -1.9398  0.1926
 4680TIP3   OH235530   5.600   0.863  12.523 -0.4536 -0.5066  0.2428
 4680TIP3    H135531   5.550   0.912  12.458  0.5989 -1.2430 -1.1622
 4680TIP3    H235532   5.610   0.776  12.486  0.8826 -0.7020  1.0014
 4681TIP3   OH235533   0.813   2.021   3.282 -0.3830 -0.1998  0.5161
 4681TIP3    H135534   0.807   2.095   3.221 -0.1021 -1.1088 -0.6533
 4681TIP3    H235535   0.769   2.052   3.361 -0.1223  1.2827  0.1255
 4682TIP3   OH235536   6.673   3.081  12.260  0.0134 -0.2075 -0.0403
 4682TIP3    H135537   6.590   3.076  12.213 -1.3286 -1.1744  2.3084
 4682TIP3    H235538   6.717   2.998  12.239 -1.3389 -1.4169  1.6574
 4683TIP3   OH235539   1.232   3.692  12.110  0.1719 -0.3629  0.0547
 4683TIP3    H135540   1.324   3.711  12.132  0.3222 -0.0815 -0.7565
 4683TIP3    H235541   1.237   3.619  12.048 -0.0313  0.6899 -1.2410
 4684TIP3   OH235542   0.585   4.949   1.081  0.3038 -0.6160  0.0786
 4684TIP3    H135543   0.603   4.962   1.174  0.5097 -0.0063 -0.0444
 4684TIP3    H235544   0.501   4.903   1.079 -0.1605  0.2006  0.5389
 4685TIP3   OH235545   3.300   2.056  12.084  0.1236  0.1954 -0.1010
 4685TIP3    H135546   3.219   2.102  12.110 -2.1313 -2.9822 -0.9400
 4685TIP3    H235547   3.314   1.991  12.153  1.0170 -0.3926 -0.8097
 4686TIP3   OH235548   6.517   0.121   1.352 -0.1510 -0.5239 -0.0322
 4686TIP3    H135549   6.548   0.207   1.325 -0.4285 -0.7138 -0.9793
 4686TIP3    H235550   6.571   0.099   1.428  0.4944  0.1081 -0.2977
 4687TIP3   OH235551   1.674   4.166   3.389 -0.1706 -0.1448  0.2838
 4687TIP3    H135552   1.645   4.216   3.313 -0.6100 -1.3860 -0.4037
 4687TIP3    H235553   1.650   4.075   3.368 -1.0956 -0.4131  2.2840
 4688TIP3   OH235554   3.101   6.602  11.783 -0.1337 -0.4644  0.1186
 4688TIP3    H135555   3.177   6.570  11.832  0.2092 -1.7219 -1.1663
 4688TIP3    H235556   3.030   6.605  11.847  0.8153  0.0598  1.1769
 4689TIP3   OH235557   6.304   6.194   4.063 -0.2927 -0.1036  0.0173
 4689TIP3    H135558   6.286   6.234   3.978  1.7294  0.6631 -0.1107
 4689TIP3    H235559   6.240   6.234   4.123 -0.9777  0.2140 -0.9127
 4690TIP3   OH235560   2.300   2.511   2.258  0.3094 -0.2916 -0.2244
 4690TIP3    H135561   2.239   2.438   2.248  0.5776 -0.6120  0.3981
 4690TIP3    H235562   2.290   2.563   2.178 -0.6841 -0.4081 -0.1792
 4691TIP3   OH235563   2.788   2.707  13.132 -0.2745 -0.2414  0.0782
 4691TIP3    H135564   2.746   2.793  13.141  1.6739  0.6805  1.1050
 4691TIP3    H235565   2.743   2.652  13.196 -1.4845  0.0156 -0.5168
 4692TIP3   OH235566   2.075   2.292  12.016 -0.5016 -0.0252  0.3781
 4692TIP3    H135567   2.086   2.306  12.110 -2.9104 -1.1537  0.9115
 4692TIP3    H235568   2.075   2.197  12.005  1.4518  0.0881 -1.0501
 4693TIP3   OH235569   5.143   3.813   0.956  0.6619 -0.2194  0.3190
 4693TIP3    H135570   5.190   3.734   0.929 -1.4959 -1.0487 -1.2230
 4693TIP3    H235571   5.183   3.836   1.040  1.5440 -2.7831  0.6949
 4694TIP3   OH235572   2.659   2.839   5.235  0.2879 -0.1874  0.0942
 4694TIP3    H135573   2.696   2.751   5.248  0.0077 -0.0150  2.4502
 4694TIP3    H235574   2.612   2.857   5.316  0.3227  2.1600 -0.3579
 4695TIP3   OH235575   1.712   0.035   0.028 -0.1094  0.1375 -0.4495
 4695TIP3    H135576   1.803   0.060   0.045  0.0649 -0.4953 -0.4074
 4695TIP3    H235577   1.713   0.004  -0.063 -0.1483 -0.4474 -0.2554
 4696TIP3   OH235578   6.204   3.102   0.831 -0.0177  0.2032 -0.3514
 4696TIP3    H135579   6.265   3.067   0.896  0.2967  0.4361 -0.5173
 4696TIP3    H235580   6.139   3.150   0.883  0.4722  0.7516 -0.2328
 4697TIP3   OH235581   6.129   1.123  14.724 -0.2042 -0.7299 -0.0651
 4697TIP3    H135582   6.216   1.084  14.730  0.1570 -0.1083 -1.0052
 4697TIP3    H235583   6.130   1.170  14.641 -1.0587  0.2219  0.4445
 4698TIP3   OH235584   6.297   2.201   0.528  0.0083  0.2898 -0.1060
 4698TIP3    H135585   6.267   2.274   0.473 -2.0348  0.5026  1.1693
 4698TIP3    H235586   6.277   2.123   0.476 -0.2997  0.5507 -0.3915
 4699TIP3   OH235587   3.122   5.068  11.708 -0.3102 -0.8135 -0.2044
 4699TIP3    H135588   3.173   5.046  11.786 -2.6747  0.3105  1.7991
 4699TIP3    H235589   3.152   5.155  11.683 -0.9681 -0.3102  0.7350
 4700TIP3   OH235590   2.514   5.434   2.127  0.1694 -0.4982  0.2268
 4700TIP3    H135591   2.430   5.453   2.085 -0.0931 -0.6007  0.6984
 4700TIP3    H235592   2.540   5.349   2.091  0.1444 -0.3976 -0.0324
 4701TIP3   OH235593   1.634   2.948  15.974  0.1231 -0.0553  0.5687
 4701TIP3    H135594   1.621   3.006  16.049  0.0409  0.0886  0.4422
 4701TIP3    H235595   1.701   2.991  15.921 -0.7425  0.5076 -0.1131
 4702TIP3   OH235596   2.392   2.971  16.510  0.1446 -0.3873  0.5435
 4702TIP3    H135597   2.417   2.976  16.602 -2.6182  1.8905  1.3023
 4702TIP3    H235598   2.329   2.899  16.506  2.0252 -2.0724 -0.1303
 4703TIP3   OH235599   1.518   1.301  15.448 -0.4029 -0.2548 -0.3313
 4703TIP3    H135600   1.465   1.222  15.459 -0.4564 -0.2190 -0.3286
 4703TIP3    H235601   1.479   1.365  15.508 -0.5777 -0.1192 -0.5847
 4704TIP3   OH235602   3.937   1.033  14.624  0.2192  0.5135 -0.3751
 4704TIP3    H135603   3.854   1.016  14.668  1.3247 -0.8159  1.3499
 4704TIP3    H235604   3.936   1.127  14.605 -1.4085  0.6242  0.1114
 4705TIP3   OH235605   4.241   1.304   3.195  0.1375 -0.0128 -0.5270
 4705TIP3    H135606   4.176   1.374   3.189  1.8514  2.0547  2.3428
 4705TIP3    H235607   4.239   1.277   3.287  0.6819 -2.6522 -1.2167
 4706TIP3   OH235608   6.395   5.527  14.357  0.4300 -0.3644  0.2078
 4706TIP3    H135609   6.409   5.456  14.418  0.1404 -2.1023 -1.6339
 4706TIP3    H235610   6.465   5.590  14.376  1.3540 -1.6436  1.1737
 4707TIP3   OH235611   6.128   1.726  11.028  0.1371 -0.0243 -0.3180
 4707TIP3    H135612   6.037   1.737  11.058 -0.1462 -1.0633 -0.7385
 4707TIP3    H235613   6.178   1.712  11.109 -0.4930 -1.9779 -0.1971
 4708TIP3   OH235614   5.814   3.750  16.133  0.4333  0.5061 -0.2322
 4708TIP3    H135615   5.849   3.838  16.121  2.6971 -0.3343 -0.3306
 4708TIP3    H235616   5.773   3.752  16.219  2.8237  0.9957  0.9702
 4709TIP3   OH235617   0.107   6.319   3.513 -0.6442 -0.2231 -0.2868
 4709TIP3    H135618   0.077   6.328   3.423 -0.5693 -0.5100 -0.3401
 4709TIP3    H235619   0.201   6.337   3.509 -0.9586  1.8003  0.0486
 4710TIP3   OH235620   0.813   1.098   1.943 -0.1238 -0.2710  0.2666
 4710TIP3    H135621   0.866   1.027   1.982  0.2177 -0.4834 -0.5621
 4710TIP3    H235622   0.723   1.077   1.968  0.1462 -0.0771  1.4342
 4711TIP3   OH235623   0.615   1.254   5.036 -0.1797 -0.1685 -0.3923
 4711TIP3    H135624   0.610   1.253   5.131  1.4042  2.5541 -0.1617
 4711TIP3    H235625   0.671   1.179   5.014 -0.5942 -0.8557  0.7979
 4712TIP3   OH235626   4.590   6.801   1.862  0.2790  0.3148 -0.3177
 4712TIP3    H135627   4.579   6.895   1.877  0.2008  0.4513 -1.1811
 4712TIP3    H235628   4.569   6.789   1.769 -1.1863 -0.7765  0.1156
 4713TIP3   OH235629   4.347   4.830   1.162 -0.1685  0.0769  0.3574
 4713TIP3    H135630   4.422   4.779   1.192  0.1608  0.6087  0.4651
 4713TIP3    H235631   4.329   4.797   1.074 -0.5423 -0.8390  0.7691
 4714TIP3   OH235632   2.280   6.090  12.337 -0.9104  0.1420 -0.1021
 4714TIP3    H135633   2.330   6.008  12.332 -1.0045  0.0331  0.6684
 4714TIP3    H235634   2.256   6.109  12.246 -1.1905 -0.8722 -0.2513
 4715TIP3   OH235635   4.784   5.642  15.963 -0.0393  0.5895  0.6774
 4715TIP3    H135636   4.825   5.720  15.926  0.3081  1.4599  2.7169
 4715TIP3    H235637   4.851   5.605  16.022 -1.2790  0.6345  2.1971
 4716TIP3   OH235638   6.762   4.966  14.813 -0.3452  0.4356  0.0329
 4716TIP3    H135639   6.838   4.975  14.755  0.0515  1.2947  0.6620
 4716TIP3    H235640   6.694   5.019  14.771 -0.1770  0.7487  0.1508
 4717TIP3   OH235641   5.626   2.806   0.713 -1.0027  0.1913  0.6071
 4717TIP3    H135642   5.545   2.765   0.682 -1.1870  1.9114 -1.4389
 4717TIP3    H235643   5.685   2.801   0.638 -0.2948  1.6408  1.0388
 4718TIP3   OH235644   3.165   1.093   2.481 -0.2516 -0.0455 -0.0472
 4718TIP3    H135645   3.095   1.130   2.535  0.3547 -0.0953  0.8037
 4718TIP3    H235646   3.244   1.139   2.510  0.2497 -0.8117 -0.1531
 4719TIP3   OH235647   4.488   5.853  11.528 -0.4720 -0.3018 -0.6784
 4719TIP3    H135648   4.547   5.824  11.458 -0.0093 -0.5718 -0.1877
 4719TIP3    H235649   4.414   5.792  11.524  0.7762 -2.0173  0.7457
 4720TIP3   OH235650   0.601   3.661  15.568  0.5394 -0.7308  0.2575
 4720TIP3    H135651   0.655   3.611  15.508 -1.2243  0.4675 -2.5151
 4720TIP3    H235652   0.528   3.604  15.589  0.6991 -0.8185  0.5965
 4721TIP3   OH235653   4.958   4.221   0.087 -0.1318 -0.1626  0.0117
 4721TIP3    H135654   4.998   4.214   0.174 -1.0503  1.6597  0.6368
 4721TIP3    H235655   4.909   4.303   0.090 -3.7392 -2.0884 -0.7716
 4722TIP3   OH235656   2.638   6.757  12.700 -0.0854  0.3475  0.5524
 4722TIP3    H135657   2.640   6.792  12.611 -0.2562 -0.5433  0.1946
 4722TIP3    H235658   2.729   6.766  12.731 -0.1429  1.1681  0.4961
 4723TIP3   OH235659   0.921   3.718   0.246 -0.1889 -0.8864  0.1206
 4723TIP3    H135660   0.899   3.628   0.269 -1.6215 -0.5087  0.3090
 4723TIP3    H235661   0.964   3.753   0.324 -1.2914 -0.8595  0.7295
 4724TIP3   OH235662   0.555   1.014   2.007 -0.2029 -0.0437  0.2779
 4724TIP3    H135663   0.573   0.921   2.001  1.1554  0.1246  1.3550
 4724TIP3    H235664   0.566   1.035   2.100  0.2659  1.3347 -0.0705
 4725TIP3   OH235665   4.112   4.438  14.732 -0.3171 -0.1022  0.1490
 4725TIP3    H135666   4.205   4.449  14.710 -0.3309  1.4583  0.7393
 4725TIP3    H235667   4.078   4.528  14.738 -1.9623 -0.6522 -0.4229
 4726TIP3   OH235668   5.898   5.830   5.026 -0.1074 -0.2400 -0.6502
 4726TIP3    H135669   5.874   5.900   5.087  2.5628 -0.3045  0.6455
 4726TIP3    H235670   5.921   5.756   5.082  1.4339 -0.6447 -1.7475
 4727TIP3   OH235671   0.436   3.183   4.005  0.1656  0.0699  0.7888
 4727TIP3    H135672   0.465   3.257   4.058  1.4879  0.8372 -0.9151
 4727TIP3    H235673   0.345   3.204   3.983 -0.4452 -0.3096  2.7394
 4728TIP3   OH235674   5.557   1.637  16.603 -0.1176 -0.5442 -0.1393
 4728TIP3    H135675   5.575   1.729  16.584 -0.0226 -0.8720 -1.8301
 4728TIP3    H235676   5.524   1.636  16.693 -0.3705  1.1666 -0.1886
 4729TIP3   OH235677   0.618   4.037  15.082  0.0314  0.4877 -0.0718
 4729TIP3    H135678   0.636   4.016  15.174  0.5880  0.6162 -0.1512
 4729TIP3    H235679   0.602   4.132  15.082  1.3451  0.7167 -0.3083
 4730TIP3   OH235680   3.982   1.891  16.022  0.1434  0.2448 -0.0419
 4730TIP3    H135681   3.927   1.845  16.084 -0.5536  0.2883 -0.6220
 4730TIP3    H235682   3.976   1.840  15.942 -1.2828  1.7309 -0.9438
 4731TIP3   OH235683   4.613   1.203  12.340  0.6126 -0.2148  0.0937
 4731TIP3    H135684   4.626   1.182  12.248 -0.1012  0.7265 -0.2326
 4731TIP3    H235685   4.691   1.255  12.364  0.8627 -0.5733  0.0658
 4732TIP3   OH235686   2.070   5.507   3.693 -0.3048 -0.0399 -0.5255
 4732TIP3    H135687   2.071   5.597   3.660  0.3346  0.0018 -0.4067
 4732TIP3    H235688   2.023   5.458   3.626 -0.8601  0.4204 -0.4805
 4733TIP3   OH235689   1.975   5.762   4.217  0.0616  0.3399 -0.1150
 4733TIP3    H135690   2.003   5.854   4.221 -0.0518  0.4573 -1.5263
 4733TIP3    H235691   1.880   5.766   4.230 -0.0646  0.5235 -1.0246
 4734TIP3   OH235692   0.428   1.863  14.368  0.3657  0.2224  0.0931
 4734TIP3    H135693   0.488   1.910  14.311 -0.2809 -1.0023 -1.6748
 4734TIP3    H235694   0.448   1.770  14.353 -0.2579 -0.1515  1.4028
 4735TIP3   OH235695   5.132   0.306  15.290 -0.2770  0.2596 -0.9379
 4735TIP3    H135696   5.179   0.308  15.374 -0.1048 -2.0279 -0.9261
 4735TIP3    H235697   5.168   0.381  15.242  0.6901  0.7565  0.4578
 4736TIP3   OH235698   3.235   3.440  11.515 -0.3497 -0.2395 -0.0893
 4736TIP3    H135699   3.144   3.423  11.539  0.0217  0.0205  1.5746
 4736TIP3    H235700   3.236   3.532  11.488 -0.5122 -0.1489  0.2142
 4737TIP3   OH235701   4.662   0.345  11.606  0.1734 -0.1700 -0.6197
 4737TIP3    H135702   4.708   0.428  11.592  0.1488  0.2549  1.4839
 4737TIP3    H235703   4.578   0.370  11.645  1.0367 -1.1675  2.1512
 4738TIP3   OH235704   0.273   0.646  14.336 -0.0996 -0.3218  0.1533
 4738TIP3    H135705   0.206   0.609  14.279 -0.2739 -1.7102  1.2188
 4738TIP3    H235706   0.310   0.719  14.285 -0.3124 -1.4405 -1.6936
 4739TIP3   OH235707   3.512   5.310  14.735  0.7538 -0.0422  0.2490
 4739TIP3    H135708   3.538   5.303  14.827  2.1711 -1.2874 -0.2201
 4739TIP3    H235709   3.464   5.229  14.717  0.6573  0.1053 -0.1657
 4740TIP3   OH235710   1.917   4.180  16.587  0.5856  0.8859 -0.0110
 4740TIP3    H135711   1.891   4.162  16.496 -0.8680  2.2419  0.0878
 4740TIP3    H235712   1.989   4.119  16.604  0.2311 -0.0918 -1.7438
 4741TIP3   OH235713   5.410   3.668  14.990  0.4188 -0.4973 -0.4175
 4741TIP3    H135714   5.476   3.726  15.028  0.3134  0.5468 -1.7657
 4741TIP3    H235715   5.333   3.723  14.977 -0.1422 -1.2724 -0.4794
 4742TIP3   OH235716   6.538   1.180   3.907  0.0146 -0.3945 -0.1878
 4742TIP3    H135717   6.543   1.220   3.820 -0.5215 -1.4414 -0.7112
 4742TIP3    H235718   6.480   1.105   3.896 -1.8497  0.6738  1.5399
 4743TIP3   OH235719   5.674   3.941   2.020  0.5167 -0.6283  0.0504
 4743TIP3    H135720   5.709   3.885   1.951  2.9973  1.2307 -0.3837
 4743TIP3    H235721   5.732   4.018   2.019 -1.1272  0.7622  2.2939
 4744TIP3   OH235722   4.784   1.813   1.650  0.4676  0.4828  0.1943
 4744TIP3    H135723   4.873   1.810   1.615  0.1696 -0.3631 -0.5538
 4744TIP3    H235724   4.794   1.792   1.743  0.9899 -0.3351 -0.0329
 4745TIP3   OH235725   1.895   2.173   0.506 -0.3066  0.2331  0.3442
 4745TIP3    H135726   1.817   2.218   0.472 -0.4107  0.3031  0.6685
 4745TIP3    H235727   1.964   2.239   0.502  0.0530 -0.2207 -1.1592
 4746TIP3   OH235728   4.105   4.178   2.627 -1.1994  0.0847 -0.3539
 4746TIP3    H135729   4.027   4.215   2.667 -1.1217  0.3409 -0.4330
 4746TIP3    H235730   4.131   4.107   2.685 -1.4836  0.0070 -0.3204
 4747TIP3   OH235731   1.114   4.535   1.779  0.2939  0.7625 -0.0285
 4747TIP3    H135732   1.030   4.504   1.746 -0.6243  2.3250  0.6946
 4747TIP3    H235733   1.095   4.623   1.813  2.5773  1.8904 -1.4494
 4748TIP3   OH235734   4.572   0.283  13.945  0.1642 -0.1927  0.2359
 4748TIP3    H135735   4.611   0.199  13.922 -2.1590 -1.0327 -0.9962
 4748TIP3    H235736   4.589   0.340  13.871  2.0359  0.6167  1.2135
 4749TIP3   OH235737   2.080   1.664  17.039  0.7428 -0.2696 -0.4868
 4749TIP3    H135738   2.003   1.638  16.990  0.8271 -0.8914 -0.3058
 4749TIP3    H235739   2.103   1.751  17.005 -0.6964  0.4303  0.2588
 4750TIP3   OH235740   6.049   3.509   1.542 -0.1905  0.2956  0.9157
 4750TIP3    H135741   6.039   3.422   1.580 -0.7691  0.2253  0.6082
 4750TIP3    H235742   5.966   3.553   1.558  0.0928  0.7940  1.0582
 4751TIP3   OH235743   4.802   1.966   2.047  0.2409 -0.1395 -0.2896
 4751TIP3    H135744   4.852   1.933   2.122  0.7133 -1.0118 -0.9770
 4751TIP3    H235745   4.776   1.887   1.999 -0.2034  0.4064 -0.9593
 4752TIP3   OH235746   3.026   5.124  10.992 -0.3720  0.1437 -0.3649
 4752TIP3    H135747   3.043   5.204  11.041  1.0307  0.1381 -0.7888
 4752TIP3    H235748   3.047   5.146  10.902  0.0485 -0.7057 -0.4844
 4753TIP3   OH235749   1.465   3.125  14.827  0.8629  0.4533 -1.2247
 4753TIP3    H135750   1.464   3.032  14.849  0.2071  0.7355  0.0139
 4753TIP3    H235751   1.421   3.130  14.742 -0.7286 -0.2053 -0.4851
 4754TIP3   OH235752   5.913   1.793  11.492  0.4746 -0.1600  0.5186
 4754TIP3    H135753   5.827   1.751  11.499  0.8947 -1.1456  0.0784
 4754TIP3    H235754   5.894   1.886  11.480 -0.5075 -0.2712  1.1117
 4755TIP3   OH235755   6.525   0.682   2.136 -0.2095 -0.3040 -1.1141
 4755TIP3    H135756   6.473   0.699   2.058 -2.4343  0.2364  0.4012
 4755TIP3    H235757   6.544   0.768   2.172  1.1826 -0.5288 -1.2514
 4756TIP3   OH235758   0.899   0.704  16.437 -0.0910  0.0156  0.0921
 4756TIP3    H135759   0.890   0.623  16.487 -2.2433  0.3287  0.3134
 4756TIP3    H235760   0.886   0.774  16.501  0.6478  0.5140 -0.2917
 4757TIP3   OH235761   2.713   3.098   2.188  0.3617  0.4759  0.1623
 4757TIP3    H135762   2.617   3.096   2.189  0.3532  0.8806  0.4233
 4757TIP3    H235763   2.736   3.109   2.096  0.1341  1.1278  0.1775
 4758TIP3   OH235764   5.088   2.356  14.738  0.1215 -0.4404  0.1641
 4758TIP3    H135765   5.151   2.284  14.737  0.0497 -0.5456  1.3403
 4758TIP3    H235766   5.006   2.315  14.763 -0.3505 -0.2432 -1.0141
 4759TIP3   OH235767   2.784   4.427   2.612  0.8308 -0.4247 -0.6263
 4759TIP3    H135768   2.795   4.362   2.543 -0.4423 -2.1347  0.6921
 4759TIP3    H235769   2.690   4.439   2.619  0.8345 -1.1677  1.5190
 4760TIP3   OH235770   2.592   4.950   4.638 -0.7891 -0.3473  0.2867
 4760TIP3    H135771   2.648   4.996   4.576 -0.1237 -1.7520 -0.1899
 4760TIP3    H235772   2.519   4.917   4.585 -1.7457  0.8992  0.7855
 4761TIP3   OH235773   6.193   1.007  12.494  0.5648  0.0620  0.0934
 4761TIP3    H135774   6.195   0.947  12.568 -0.5377  0.4638  0.4788
 4761TIP3    H235775   6.127   0.970  12.435 -0.7139  1.2531  0.6996
 4762TIP3   OH235776   0.003   6.288   2.910 -0.2080  0.4286 -0.1101
 4762TIP3    H135777   0.009   6.197   2.939 -0.6828  0.8349  1.3722
 4762TIP3    H235778   0.085   6.328   2.939  0.8259  0.0882 -2.3785
 4763TIP3   OH235779   2.071   0.711  15.998 -0.6843  0.1054 -0.0340
 4763TIP3    H135780   2.090   0.635  16.053  0.5960  0.4766  0.0517
 4763TIP3    H235781   2.106   0.786  16.047  0.3190  0.4644 -1.2434
 4764TIP3   OH235782   1.234   4.756   4.206 -0.2593  0.3417 -0.7257
 4764TIP3    H135783   1.315   4.712   4.230 -1.2176 -2.7130 -2.5454
 4764TIP3    H235784   1.262   4.837   4.163  1.8493 -0.7659 -1.5503
 4765TIP3   OH235785   4.733   6.063   5.547  0.2301 -0.1384 -0.3489
 4765TIP3    H135786   4.663   5.999   5.554  1.0795 -1.0299  0.4379
 4765TIP3    H235787   4.776   6.061   5.633  0.8756  0.7713 -0.6339
 4766TIP3   OH235788   0.592   0.986   0.454 -0.1623  0.6714  0.7507
 4766TIP3    H135789   0.590   0.895   0.484 -2.1281  0.3391 -0.2355
 4766TIP3    H235790   0.507   0.999   0.411  0.0486  3.0007  0.9201
 4767TIP3   OH235791   4.063   3.378  10.814  0.3981  0.2614  0.5992
 4767TIP3    H135792   4.085   3.453  10.758 -2.8515  0.0357 -1.2506
 4767TIP3    H235793   4.144   3.327  10.818  0.9557  0.3535 -3.9316
 4768TIP3   OH235794   4.201   6.544   1.120  0.7687 -0.3945  0.5564
 4768TIP3    H135795   4.130   6.563   1.059  0.5317 -1.6940  0.4028
 4768TIP3    H235796   4.278   6.534   1.064  1.6944  3.4132  0.8767
 4769TIP3   OH235797   2.753   2.229  16.677  0.2540  0.0824 -0.5352
 4769TIP3    H135798   2.745   2.173  16.600  0.0624 -0.5457 -0.0657
 4769TIP3    H235799   2.811   2.181  16.736  0.0092  0.3288 -0.0865
 4770TIP3   OH235800   6.094   4.456   2.848  0.5004 -0.3479 -0.1673
 4770TIP3    H135801   6.042   4.496   2.918 -0.0740 -0.6055 -0.4427
 4770TIP3    H235802   6.081   4.362   2.858  1.7925 -0.4826  0.4316
 4771TIP3   OH235803   0.954   1.127  12.318 -0.1164  0.2467  0.1699
 4771TIP3    H135804   0.923   1.172  12.239 -0.4898  0.0850  0.2208
 4771TIP3    H235805   0.874   1.099  12.362  0.1107 -0.5646  0.0794
 4772TIP3   OH235806   3.490   0.383  14.602 -0.6258 -0.9579  0.6976
 4772TIP3    H135807   3.456   0.449  14.662  2.0491  1.3896 -0.1490
 4772TIP3    H235808   3.511   0.308  14.658 -0.3510  0.2858  2.3325
 4773TIP3   OH235809   4.368   3.075   4.640  0.0865 -0.7350  0.4778
 4773TIP3    H135810   4.424   3.148   4.615 -1.2807  0.3145  0.3402
 4773TIP3    H235811   4.398   3.001   4.587 -0.7618  0.6390 -2.0619
 4774TIP3   OH235812   3.506   5.906  12.136 -0.0349 -0.6282 -0.3659
 4774TIP3    H135813   3.543   5.855  12.064 -0.1018 -0.9628 -0.1659
 4774TIP3    H235814   3.419   5.932  12.106  0.8571  1.3248 -1.3947
 4775TIP3   OH235815   4.643   6.068  15.697  0.4913 -0.3147  0.0422
 4775TIP3    H135816   4.704   5.998  15.719 -0.0187 -0.1771  2.1351
 4775TIP3    H235817   4.620   6.106  15.781  1.0831  2.6926 -1.0421
 4776TIP3   OH235818   1.938   6.236  11.319  0.1962  0.2643  0.0395
 4776TIP3    H135819   1.914   6.318  11.276 -1.1742  0.0525  0.3628
 4776TIP3    H235820   2.024   6.254  11.357  0.3763  1.2068 -0.7814
 4777TIP3   OH235821   3.147   0.282   2.350  0.9852 -0.4051  0.1054
 4777TIP3    H135822   3.078   0.226   2.315 -0.0907 -1.0990  3.0481
 4777TIP3    H235823   3.226   0.228   2.346  0.6751 -0.8449 -0.2437
 4778TIP3   OH235824   0.022   0.778  17.171 -0.3532  0.2308  0.2158
 4778TIP3    H135825   0.082   0.721  17.123 -1.7617 -0.5457 -0.6941
 4778TIP3    H235826   0.054   0.775  17.261  0.4898 -0.8165 -0.0929
 4779TIP3   OH235827   2.526   1.082   5.653  0.5502 -0.4610 -0.0940
 4779TIP3    H135828   2.557   1.152   5.711 -0.4899 -0.7344  0.8291
 4779TIP3    H235829   2.540   1.001   5.704  1.5810 -0.9368 -1.0758
 4780TIP3   OH235830   3.409   3.650  17.198  0.0853  0.4487 -0.0913
 4780TIP3    H135831   3.337   3.601  17.159  2.1999 -1.0265 -2.4258
 4780TIP3    H235832   3.367   3.726  17.239 -2.9845 -1.4807  0.6993
 4781TIP3   OH235833   3.102   4.182   0.838 -0.2922  0.3952  0.2602
 4781TIP3    H135834   3.067   4.231   0.913 -0.0950  0.8384  0.0672
 4781TIP3    H235835   3.024   4.144   0.797 -0.5843  1.4692 -0.2294
 4782TIP3   OH235836   0.123   3.858  15.821 -0.2726  0.7329 -0.0195
 4782TIP3    H135837   0.044   3.901  15.786 -2.3546 -3.7278 -1.5723
 4782TIP3    H235838   0.092   3.809  15.897  1.3626  0.0293  0.2291
 4783TIP3   OH235839   2.036   0.723   3.958 -0.0049  1.0841 -0.0954
 4783TIP3    H135840   2.080   0.651   3.912  0.6263  0.6475  1.1538
 4783TIP3    H235841   2.104   0.788   3.973 -0.3907  1.5874 -0.4647
 4784TIP3   OH235842   5.224   0.060   1.145 -0.2131  0.1339  0.5773
 4784TIP3    H135843   5.257   0.001   1.078  0.4451 -0.5837  1.5063
 4784TIP3    H235844   5.198   0.002   1.217  1.8492  1.0016  2.1269
 4785TIP3   OH235845   0.538   3.903  11.784  0.0670 -0.4010 -0.7716
 4785TIP3    H135846   0.449   3.876  11.762 -0.5760  1.8046 -1.1531
 4785TIP3    H235847   0.589   3.823  11.779 -1.8192 -1.6762 -0.8786
 4786TIP3   OH235848   5.610   4.998  12.799  0.0757 -0.4536 -0.0855
 4786TIP3    H135849   5.620   4.995  12.704  3.4221 -0.7960  0.1249
 4786TIP3    H235850   5.608   4.906  12.826 -1.1208 -0.3619  0.1926
 4787TIP3   OH235851   5.845   5.542   1.780 -0.1044  0.5862  0.4500
 4787TIP3    H135852   5.854   5.448   1.789  0.4912  0.5606 -0.3442
 4787TIP3    H235853   5.751   5.555   1.764 -0.0952  0.0749 -0.0469
 4788TIP3   OH235854   2.521   2.093   0.314 -0.0860  0.3635 -0.0226
 4788TIP3    H135855   2.538   2.178   0.273  1.6595 -0.7224 -1.6881
 4788TIP3    H235856   2.565   2.098   0.399  0.3864  0.9879 -0.2956
 4789TIP3   OH235857   5.007   1.197  10.562 -0.2551 -0.1663  0.2326
 4789TIP3    H135858   5.097   1.205  10.530 -0.0395  0.5506  1.0019
 4789TIP3    H235859   4.958   1.262  10.513 -0.7466 -1.7300 -1.4712
 4790TIP3   OH235860   1.533   4.108  10.954 -0.3163 -0.1238 -0.1529
 4790TIP3    H135861   1.597   4.049  10.913 -0.9374  0.6551 -2.3766
 4790TIP3    H235862   1.584   4.185  10.979 -0.0951 -0.1791 -0.4211
 4791TIP3   OH235863   1.495   6.382  12.128  0.1903 -0.4574  0.3433
 4791TIP3    H135864   1.554   6.316  12.090 -1.9236 -2.8594  0.9182
 4791TIP3    H235865   1.450   6.420  12.052  0.9679 -0.1005  0.0477
 4792TIP3   OH235866   5.185   4.247  12.567  0.3610  0.4171 -0.2413
 4792TIP3    H135867   5.272   4.267  12.603  0.3978  1.7354 -0.9773
 4792TIP3    H235868   5.201   4.175  12.506  0.2733 -1.9295  2.3272
 4793TIP3   OH235869   6.524   3.572  14.151 -0.1197 -0.2319 -0.0373
 4793TIP3    H135870   6.474   3.653  14.143  1.5283  0.7034 -1.3882
 4793TIP3    H235871   6.545   3.547  14.061  1.3551 -0.8736  0.4523
 4794TIP3   OH235872   1.920   1.133   5.745 -0.0152 -0.2623 -0.2931
 4794TIP3    H135873   1.890   1.200   5.806  1.9139  0.2269  0.1838
 4794TIP3    H235874   1.922   1.177   5.660 -0.9762 -0.4167 -0.4041
 4795TIP3   OH235875   0.481   5.114  11.264  0.0832 -0.1906  0.1615
 4795TIP3    H135876   0.471   5.066  11.182  0.8370  1.2143 -0.7904
 4795TIP3    H235877   0.463   5.049  11.332  1.2275 -1.8757 -1.0544
 4796TIP3   OH235878   5.219   3.510  10.555 -0.5691  0.0231  0.0217
 4796TIP3    H135879   5.223   3.419  10.585 -2.1096 -0.9936 -2.5512
 4796TIP3    H235880   5.138   3.515  10.505 -0.3372  2.7582 -0.2345
 4797TIP3   OH235881   5.597   3.770   0.675 -1.0576  0.0387 -0.1167
 4797TIP3    H135882   5.604   3.676   0.659 -0.3537  0.3589 -2.0394
 4797TIP3    H235883   5.619   3.781   0.767  2.1782 -1.3916 -0.5952
 4798TIP3   OH235884   3.701   5.219  17.132  0.0780  0.4750  0.4071
 4798TIP3    H135885   3.754   5.192  17.207 -0.3641 -1.6782  0.0010
 4798TIP3    H235886   3.763   5.226  17.059 -0.1062 -1.9222 -0.0403
 4799TIP3   OH235887   0.858   0.215  16.319 -0.9898  0.6715 -0.0904
 4799TIP3    H135888   0.815   0.184  16.399 -0.7198  0.4509 -0.0284
 4799TIP3    H235889   0.786   0.228  16.257 -1.0788 -0.5419 -0.2692
 4800TIP3   OH235890   5.779   2.643  15.784 -0.0049  0.2094 -0.0545
 4800TIP3    H135891   5.829   2.677  15.710 -0.8618  2.0352  0.1476
 4800TIP3    H235892   5.802   2.550  15.789  2.3583  0.7027 -0.7378
 4801TIP3   OH235893   1.822   5.009  13.007  0.0482 -0.6158 -0.0892
 4801TIP3    H135894   1.783   4.992  12.921 -1.0870  1.1423  0.0273
 4801TIP3    H235895   1.847   5.102  13.004 -0.5707 -0.3638  1.6802
 4802TIP3   OH235896   2.514   5.889  14.580  0.3581  0.3461  0.3120
 4802TIP3    H135897   2.425   5.883  14.615 -0.6634  0.0830 -2.1818
 4802TIP3    H235898   2.519   5.977  14.542  2.1085  1.3662  2.6616
 4803TIP3   OH235899   4.264   5.205   0.002 -0.3286 -0.2891 -0.1979
 4803TIP3    H135900   4.213   5.190   0.082  0.3618 -1.0179  0.1200
 4803TIP3    H235901   4.250   5.298  -0.018  0.3669  0.2016  1.3931
 4804TIP3   OH235902   5.174   6.435  11.268  0.0120  0.5528 -0.3121
 4804TIP3    H135903   5.100   6.495  11.282 -0.9507 -0.5383 -0.5948
 4804TIP3    H235904   5.222   6.435  11.351 -2.4152 -1.5287  1.2360
 4805TIP3   OH235905   2.361   1.606   1.907 -0.4810  0.2932 -0.6539
 4805TIP3    H135906   2.321   1.520   1.897  0.1515 -0.0497 -0.3018
 4805TIP3    H235907   2.420   1.614   1.832  1.3950 -0.6851  0.6169
 4806TIP3   OH235908   0.606   1.255  16.554 -0.5307  0.0585  0.3894
 4806TIP3    H135909   0.581   1.281  16.465 -1.9725 -0.9805  0.4608
 4806TIP3    H235910   0.557   1.315  16.611  0.2864  0.6337  0.5014
 4807TIP3   OH235911   5.845   0.884   4.424  0.3010 -0.8355 -0.1351
 4807TIP3    H135912   5.788   0.961   4.427 -0.1916 -1.2095  0.2224
 4807TIP3    H235913   5.932   0.918   4.443 -0.0069 -0.4515  0.6178
 4808TIP3   OH235914   2.150   0.518   3.737  0.0802  0.1129 -0.4030
 4808TIP3    H135915   2.167   0.427   3.761 -1.6429 -0.2140 -0.3002
 4808TIP3    H235916   2.086   0.513   3.666 -0.5691  1.2508  0.0718
 4809TIP3   OH235917   0.459   5.968   5.968  0.1263 -0.5251  0.1252
 4809TIP3    H135918   0.397   6.028   6.010 -0.2804 -0.8932  0.0559
 4809TIP3    H235919   0.473   6.004   5.881  1.4275  0.5767  0.7363
 4810TIP3   OH235920   6.554   5.850   6.368 -0.2767  0.2370 -0.1656
 4810TIP3    H135921   6.570   5.762   6.336 -0.2378  0.4588 -0.7687
 4810TIP3    H235922   6.545   5.903   6.289  1.8651  1.1921  0.1603
 4811TIP3   OH235923   5.640   0.449   3.451  0.4571  0.0270  0.0720
 4811TIP3    H135924   5.731   0.465   3.476  0.6533 -0.6247 -0.2163
 4811TIP3    H235925   5.589   0.479   3.526  0.7108  2.9435 -0.7683
 4812TIP3   OH235926   3.380   2.908   4.355 -0.5123 -0.5011  0.1487
 4812TIP3    H135927   3.425   2.882   4.275  1.0678  0.9136  0.5372
 4812TIP3    H235928   3.395   2.836   4.416 -0.5167 -0.9426 -0.3629
 4813TIP3   OH235929   5.714   0.772  13.764 -0.1270  0.0798  0.4689
 4813TIP3    H135930   5.707   0.710  13.691  0.4838  1.4431 -0.8043
 4813TIP3    H235931   5.756   0.849  13.726  2.1055  0.1034  2.7439
 4814TIP3   OH235932   4.455   5.718  15.782  0.3278 -0.3437 -0.2211
 4814TIP3    H135933   4.459   5.810  15.809  2.6310 -0.4780  0.1520
 4814TIP3    H235934   4.425   5.722  15.691 -0.8742  0.6531  0.1908
 4815TIP3   OH235935   0.130   0.769  11.308  0.2411 -0.0986 -0.5303
 4815TIP3    H135936   0.167   0.690  11.268 -2.6207 -0.8561 -1.9453
 4815TIP3    H235937   0.053   0.738  11.355  1.0138  1.4564  1.9119
 4816TIP3   OH235938   4.311   6.711  14.041 -0.0215 -0.2402  0.5968
 4816TIP3    H135939   4.373   6.745  14.106 -0.5608 -0.2068  1.0984
 4816TIP3    H235940   4.250   6.783  14.026 -0.6865 -0.6947  1.0547
 4817TIP3   OH235941   2.665   2.194   1.415  0.9666 -0.0129  0.4924
 4817TIP3    H135942   2.610   2.181   1.492  1.3949 -1.5154  0.5692
 4817TIP3    H235943   2.748   2.228   1.450  0.3368  1.6842  0.4302
 4818TIP3   OH235944   1.710   6.188  17.033  0.6156  0.1547  0.2761
 4818TIP3    H135945   1.677   6.176  16.944 -0.0748  0.1842  0.5271
 4818TIP3    H235946   1.780   6.252  17.024  1.9439 -1.3328 -0.5531
 4819TIP3   OH235947   6.379   3.805   4.003 -0.0987  0.4289 -0.3919
 4819TIP3    H135948   6.319   3.786   4.075  1.0183  1.0692  0.7507
 4819TIP3    H235949   6.364   3.735   3.940 -1.9629  0.5199 -0.1056
 4820TIP3   OH235950   0.394   3.596  13.319 -0.2139 -0.4093 -0.1560
 4820TIP3    H135951   0.479   3.587  13.361  0.8269 -0.6545 -2.1768
 4820TIP3    H235952   0.386   3.518  13.264 -2.1251 -0.7896  0.5715
 4821TIP3   OH235953   5.359   0.929  13.588  0.6882  0.7035 -0.5945
 4821TIP3    H135954   5.451   0.957  13.592  0.0892  2.7415  0.3614
 4821TIP3    H235955   5.346   0.900  13.498  2.9362 -2.2557 -0.1131
 4822TIP3   OH235956   3.342   5.008   0.108 -0.7284 -0.2605 -0.3556
 4822TIP3    H135957   3.387   5.075   0.056 -1.7148  1.7668  1.2593
 4822TIP3    H235958   3.251   5.036   0.108 -1.0859 -1.3812  0.7241
 4823TIP3   OH235959   5.843   2.039  11.459 -0.6170 -0.0309 -0.4390
 4823TIP3    H135960   5.885   2.105  11.404 -0.4865  0.0826 -0.2014
 4823TIP3    H235961   5.749   2.055  11.448 -0.6066 -0.3292 -1.0250
 4824TIP3   OH235962   5.005   6.652  11.314  0.3076  0.0200 -0.1741
 4824TIP3    H135963   5.011   6.695  11.400 -1.6733 -0.9613  0.5085
 4824TIP3    H235964   5.019   6.723  11.251  0.8682  0.9317  0.9446
 4825TIP3   OH235965   3.192   0.039  12.405 -0.1743  0.2863  0.0352
 4825TIP3    H135966   3.129   0.110  12.416 -1.0584 -0.4798  0.0455
 4825TIP3    H235967   3.145  -0.027  12.354  0.7476 -0.1479 -0.2642
 4826TIP3   OH235968   4.660   5.581  12.678  0.2891  0.1944 -0.1794
 4826TIP3    H135969   4.605   5.657  12.699 -0.3455 -0.4425  0.4981
 4826TIP3    H235970   4.712   5.567  12.756  0.7181  0.1844 -0.4639
 4827TIP3   OH235971   1.352   6.529   4.292  0.6581  0.1162  0.0202
 4827TIP3    H135972   1.356   6.618   4.329  0.4494  0.4383 -0.7162
 4827TIP3    H235973   1.435   6.490   4.318  1.6077  1.1852 -1.2415
 4828TIP3   OH235974   4.923   1.192  11.706 -0.4852  0.1043  0.1461
 4828TIP3    H135975   4.943   1.126  11.639 -0.8972 -0.5053  0.6232
 4828TIP3    H235976   4.923   1.275  11.657  0.0263 -0.2383 -0.4585
 4829TIP3   OH235977   4.310   2.381   6.047 -0.2872 -0.0664 -0.5280
 4829TIP3    H135978   4.266   2.332   5.977 -1.9911  0.8015 -0.1163
 4829TIP3    H235979   4.276   2.342   6.128 -0.2809  0.6035 -0.1994
 4830TIP3   OH235980   4.566   5.931   4.657 -0.0091 -0.1363  0.3034
 4830TIP3    H135981   4.524   5.907   4.740 -1.0607 -1.6269 -0.6220
 4830TIP3    H235982   4.500   5.982   4.611  0.7232  1.0413  0.5205
 4831TIP3   OH235983   4.517   0.313  12.428 -0.0178  0.3293  0.0303
 4831TIP3    H135984   4.524   0.326  12.333  1.0053 -0.1373  0.0320
 4831TIP3    H235985   4.457   0.382  12.457 -1.0682 -0.0933 -1.0726
 4832TIP3   OH235986   2.875   5.616  11.801  0.2369  0.2973 -0.0950
 4832TIP3    H135987   2.957   5.631  11.849 -1.0658  0.8675  2.1472
 4832TIP3    H235988   2.868   5.691  11.742  1.3003  0.2507 -0.3061
 4833TIP3   OH235989   2.285   3.437   3.581 -0.1251  0.3752 -0.6557
 4833TIP3    H135990   2.221   3.392   3.526 -0.5274  1.6183 -1.2664
 4833TIP3    H235991   2.260   3.530   3.574 -0.8263  0.5306  2.4340
 4834TIP3   OH235992   0.503   5.837   4.256 -0.1543 -0.4639  0.2895
 4834TIP3    H135993   0.414   5.806   4.270 -0.0535 -0.9925 -0.1584
 4834TIP3    H235994   0.508   5.854   4.162 -0.2290  1.0454  0.5399
 4835TIP3   OH235995   5.922   2.163   5.157 -0.1292  0.3293 -0.5102
 4835TIP3    H135996   5.990   2.222   5.188 -0.9406  0.9494  0.1516
 4835TIP3    H235997   5.943   2.079   5.197 -0.2030  0.7129  0.3593
 4836TIP3   OH235998   0.122   2.996  16.374 -0.0851 -0.0120 -0.3674
 4836TIP3    H135999   0.213   3.027  16.372  0.3679 -1.3349 -1.0645
 4836TIP3    H236000   0.073   3.065  16.329  1.1013 -0.8517 -3.1627
 4837TIP3   OH236001   2.783   1.610  15.421  0.0075  0.1567  0.7177
 4837TIP3    H136002   2.769   1.587  15.512 -0.4357  0.2303  0.6702
 4837TIP3    H236003   2.739   1.541  15.371 -1.0022  0.8805  0.5729
 4838TIP3   OH236004   5.768   0.081  13.278 -0.1422 -0.0268  0.3908
 4838TIP3    H136005   5.715   0.156  13.305 -2.5089 -1.6709  0.5699
 4838TIP3    H236006   5.816   0.113  13.201 -1.7986  1.3994 -0.1079
 4839TIP3   OH236007   1.568   6.592   3.324 -0.1969 -0.1302 -0.5994
 4839TIP3    H136008   1.546   6.524   3.388  1.7339 -0.2323  0.0276
 4839TIP3    H236009   1.546   6.554   3.239 -1.7584 -0.4268 -0.0903
 4840TIP3   OH236010   5.283   4.948   5.044  0.3145 -0.3143  0.2725
 4840TIP3    H136011   5.249   5.038   5.043 -0.2842 -0.4801  2.1420
 4840TIP3    H236012   5.246   4.909   5.123 -0.5445 -2.6599 -1.1626
 4841TIP3   OH236013   2.086   4.213   5.500  0.1350 -0.1698 -0.2498
 4841TIP3    H136014   2.112   4.162   5.423  1.0327 -0.6961  0.3820
 4841TIP3    H236015   1.999   4.181   5.523  0.5794 -1.2422 -0.0248
 4842TIP3   OH236016   4.725   3.927  14.622  0.4176  0.1305  0.1667
 4842TIP3    H136017   4.735   4.021  14.608  1.5065 -0.3405 -3.3257
 4842TIP3    H236018   4.671   3.897  14.549  0.6315 -2.0503  0.8248
 4843TIP3   OH236019   0.096   2.260   3.618  0.2067  0.1493  0.1406
 4843TIP3    H136020   0.137   2.340   3.649  4.1886 -1.8328  0.6886
 4843TIP3    H236021   0.041   2.231   3.691  0.1259  1.4672  0.6221
 4844TIP3   OH236022   0.906   1.539   1.332  0.4802 -0.5377  0.3546
 4844TIP3    H136023   0.878   1.478   1.400 -1.3675 -1.2963 -1.0086
 4844TIP3    H236024   0.943   1.613   1.381 -0.4427 -1.2128  2.1756
 4845TIP3   OH236025   3.520   4.809   5.262  0.2759  0.2353 -0.6246
 4845TIP3    H136026   3.502   4.832   5.171  0.1074  0.5067 -0.5232
 4845TIP3    H236027   3.559   4.888   5.299  1.3761 -0.2239 -0.7479
 4846TIP3   OH236028   0.070   6.646  16.572  0.2974  0.5266 -0.6341
 4846TIP3    H136029   0.084   6.663  16.666  0.0562 -1.3696 -0.2137
 4846TIP3    H236030  -0.021   6.671  16.557  0.6050  1.7245 -0.6010
 4847TIP3   OH236031   4.823   4.361  15.178  0.6764 -0.0062  0.3479
 4847TIP3    H136032   4.750   4.393  15.231 -0.5203 -2.7433  0.4939
 4847TIP3    H236033   4.793   4.370  15.088  0.6433 -0.0255  0.3569
 4848TIP3   OH236034   2.277   3.085  12.260  0.6238 -0.0079 -0.3791
 4848TIP3    H136035   2.185   3.057  12.264  1.0865 -1.4708  0.7099
 4848TIP3    H236036   2.295   3.094  12.166 -0.9331  1.4570 -0.6013
 4849TIP3   OH236037   6.131   5.631  12.872 -0.3983 -0.2509  0.0602
 4849TIP3    H136038   6.072   5.614  12.945 -0.4940 -1.0036 -0.1838
 4849TIP3    H236039   6.219   5.612  12.907 -0.4844 -1.0873 -0.1441
 4850TIP3   OH236040   0.418   6.682  16.804 -0.2698  0.3768 -0.0248
 4850TIP3    H136041   0.373   6.608  16.845 -0.1028  0.7062  0.7758
 4850TIP3    H236042   0.356   6.754  16.810 -0.5561  0.2281 -1.0978
 4851TIP3   OH236043   5.262   1.468   3.093 -0.1073  0.5770  0.2622
 4851TIP3    H136044   5.208   1.507   3.161  0.7229  1.4512  0.4418
 4851TIP3    H236045   5.306   1.395   3.136 -1.9062 -0.8327 -0.1561
 4852TIP3   OH236046   5.144   0.525  12.567  0.2265 -0.0500 -0.0709
 4852TIP3    H136047   5.149   0.510  12.473 -0.6035  0.5674 -0.2260
 4852TIP3    H236048   5.065   0.577  12.579  0.8810  0.7803  0.8525
 4853TIP3   OH236049   0.381   0.524   3.442 -0.3362  0.4945  0.2095
 4853TIP3    H136050   0.401   0.556   3.530  0.4438  1.2847 -0.2421
 4853TIP3    H236051   0.466   0.518   3.399 -0.6729 -0.2778 -0.3658
 4854TIP3   OH236052   6.716   0.692   3.497  0.2899 -0.4657 -0.1799
 4854TIP3    H136053   6.649   0.759   3.482  1.6430  1.3018  1.2076
 4854TIP3    H236054   6.798   0.737   3.477  1.2238 -1.8224  0.4949
 4855TIP3   OH236055   4.528   1.101   2.625 -0.3134 -0.1792  0.1262
 4855TIP3    H136056   4.519   1.010   2.653 -1.0261 -0.3158 -0.5265
 4855TIP3    H236057   4.508   1.100   2.531  2.6257  0.1615 -0.5931
 4856TIP3   OH236058   5.036   3.900   4.837 -0.2824  0.5833 -0.3526
 4856TIP3    H136059   5.021   3.806   4.850 -0.3809  0.8017  1.3236
 4856TIP3    H236060   5.089   3.926   4.912 -0.4103  1.8989 -0.7070
 4857TIP3   OH236061   5.670   3.206   2.993 -0.0301 -0.1664 -0.3062
 4857TIP3    H136062   5.680   3.184   3.085  1.0205 -0.8683 -0.5627
 4857TIP3    H236063   5.581   3.240   2.985 -0.6901 -1.5923  0.6670
 4858TIP3   OH236064   6.255   0.150  12.293 -0.2336 -0.3706 -0.3484
 4858TIP3    H136065   6.260   0.054  12.301  1.7242 -0.2176  0.8406
 4858TIP3    H236066   6.183   0.175  12.349 -1.2973 -1.1856 -1.2986
 4859TIP3   OH236067   3.122   4.010  13.186 -0.3304  0.5689  0.4790
 4859TIP3    H136068   3.218   4.011  13.188 -0.3367  1.4578  0.7859
 4859TIP3    H236069   3.099   4.080  13.125 -0.7669 -1.4614 -1.8566
 4860TIP3   OH236070   4.987   2.168  11.741  0.3302 -0.4050 -0.4067
 4860TIP3    H136071   4.901   2.140  11.710 -0.6003 -0.0295  1.6885
 4860TIP3    H236072   5.002   2.117  11.820  0.5943  1.7308  1.0136
 4861TIP3   OH236073   0.431   6.775  16.353 -0.3481 -0.8183 -0.2295
 4861TIP3    H136074   0.399   6.808  16.437 -0.8519 -0.9843 -0.3489
 4861TIP3    H236075   0.352   6.743  16.308 -0.0136 -1.2397 -0.5332
 4862TIP3   OH236076   0.678   1.494  10.411  0.4967 -0.1028  0.2790
 4862TIP3    H136077   0.639   1.562  10.466 -0.1949  1.3410 -1.8808
 4862TIP3    H236078   0.769   1.522  10.400  0.2412  0.4478 -0.5175
 4863TIP3   OH236079   2.538   5.375  16.696 -0.2999 -0.2878  0.3682
 4863TIP3    H136080   2.570   5.464  16.682  0.4397 -0.4479  0.9422
 4863TIP3    H236081   2.489   5.380  16.778 -1.7907 -0.0460 -0.5027
 4864TIP3   OH236082   5.862   1.379   5.266 -0.2027 -0.4312  0.0562
 4864TIP3    H136083   5.887   1.426   5.186 -1.7850 -0.6529 -0.6122
 4864TIP3    H236084   5.943   1.371   5.316  1.0603 -1.2086 -1.9966
 4865TIP3   OH236085   0.801   3.820   4.461 -0.1773 -0.5946 -0.1450
 4865TIP3    H136086   0.824   3.742   4.411  0.0388 -0.7497  0.1943
 4865TIP3    H236087   0.856   3.817   4.539 -0.0761 -0.0383 -0.1858
 4866TIP3   OH236088   5.027   6.498  12.538  0.0571 -0.8393  0.3329
 4866TIP3    H136089   4.957   6.474  12.477  0.8978 -0.1195 -0.9498
 4866TIP3    H236090   4.981   6.537  12.613 -1.0365 -2.3807  0.5202
 4867TIP3   OH236091   6.481   0.196  14.014  0.2862  0.1721  0.7070
 4867TIP3    H136092   6.471   0.286  13.983  0.0298 -0.0272  0.2064
 4867TIP3    H236093   6.531   0.152  13.945  0.7185  0.0179  1.1126
 4868TIP3   OH236094   2.762   6.064   1.417 -0.4167 -0.4932 -1.3585
 4868TIP3    H136095   2.828   6.003   1.385 -0.6537 -0.9447 -1.0013
 4868TIP3    H236096   2.679   6.017   1.407 -0.5068 -0.6044 -0.2021
 4869TIP3   OH236097   2.980   1.177  15.397  0.0243 -0.0142 -0.1319
 4869TIP3    H136098   2.919   1.111  15.428 -1.6572  2.4856  2.4209
 4869TIP3    H236099   2.934   1.223  15.328  0.2762 -0.0845 -0.3483
 4870TIP3   OH236100   0.533   5.307  15.376 -0.8771  0.0720  0.1710
 4870TIP3    H136101   0.452   5.282  15.421  1.2480 -4.1877  2.2047
 4870TIP3    H236102   0.521   5.277  15.286 -1.8938  0.4350  0.1738
 4871TIP3   OH236103   3.581   5.480  12.455  0.1002  0.3767  0.3940
 4871TIP3    H136104   3.518   5.550  12.438 -0.7356 -0.0729  1.5316
 4871TIP3    H236105   3.539   5.401  12.420 -0.3575 -0.0631  1.8804
 4872TIP3   OH236106   3.717   4.962   0.320 -0.1813 -0.2430 -0.1516
 4872TIP3    H136107   3.631   4.988   0.354 -0.4273 -1.2938  0.0600
 4872TIP3    H236108   3.697   4.920   0.236  0.2688  0.8081 -0.8024
 4873TIP3   OH236109   1.684   0.588   4.420 -0.2608  0.2566  0.2809
 4873TIP3    H136110   1.757   0.650   4.417  0.6136 -0.7646 -0.7882
 4873TIP3    H236111   1.675   0.567   4.513 -0.0125  1.3340  0.5582
 4874TIP3   OH236112   0.688   5.507   5.048  0.8133 -0.7229  0.2119
 4874TIP3    H136113   0.777   5.483   5.073  1.3748 -0.9331 -1.8115
 4874TIP3    H236114   0.632   5.445   5.094  1.8043 -1.4639  0.4461
 4875TIP3   OH236115   2.625   1.853  16.318 -0.0944  0.0709  0.9415
 4875TIP3    H136116   2.563   1.786  16.347  1.7531 -1.9879  0.3809
 4875TIP3    H236117   2.678   1.872  16.395  0.4273 -0.3297  0.6859
 4876TIP3   OH236118   0.100   5.193  12.134  0.6225  0.2458  0.8293
 4876TIP3    H136119   0.171   5.249  12.103  1.2611 -1.1359 -0.2963
 4876TIP3    H236120   0.063   5.154  12.055  0.3191 -1.0467  1.5685
 4877TIP3   OH236121   0.502   5.866  11.616  0.3398  0.5995 -0.4614
 4877TIP3    H136122   0.475   5.952  11.587  0.2916 -0.0117 -2.3514
 4877TIP3    H236123   0.503   5.812  11.537  3.9312 -0.2496 -0.0339
 4878TIP3   OH236124   2.573   2.947  13.102 -0.0658 -0.0525 -0.5102
 4878TIP3    H136125   2.562   2.948  13.007 -1.3412  0.0938 -0.3772
 4878TIP3    H236126   2.485   2.965  13.136  0.5255  0.6465  0.6871
 4879TIP3   OH236127   2.193   5.234  16.791  0.1509  0.2513  0.3886
 4879TIP3    H136128   2.239   5.303  16.838  1.6660 -0.5673  0.1853
 4879TIP3    H236129   2.129   5.280  16.737  0.3838  1.4024  1.0624
 4880TIP3   OH236130   3.537   5.757   2.986 -0.1017  0.6232 -0.0743
 4880TIP3    H136131   3.532   5.852   2.988 -1.4344  0.7557 -3.4427
 4880TIP3    H236132   3.446   5.728   2.980  0.3805 -0.7265 -1.2694
 4881TIP3   OH236133   5.517   2.070   0.066  0.1172  0.5183 -0.4461
 4881TIP3    H136134   5.510   2.056   0.160 -2.1020 -1.9559 -0.8346
 4881TIP3    H236135   5.606   2.045   0.044 -0.3706 -2.6107  0.6122
 4882TIP3   OH236136   4.672   2.228   4.190  0.2566 -0.3236  0.0180
 4882TIP3    H136137   4.650   2.182   4.272  0.0414 -2.4638 -1.1589
 4882TIP3    H236138   4.663   2.161   4.122  2.1833  0.9102 -1.5736
 4883TIP3   OH236139   0.283   6.424   5.540  0.2841  0.4448 -0.5006
 4883TIP3    H136140   0.350   6.409   5.606  0.3881  0.0250 -0.6954
 4883TIP3    H236141   0.200   6.407   5.585  0.3022  0.9901 -0.2529
 4884TIP3   OH236142   2.033   2.465   1.029  0.2466  0.2167  0.2970
 4884TIP3    H136143   2.128   2.458   1.017  0.5142  4.1063 -1.4499
 4884TIP3    H236144   2.023   2.490   1.121  0.9976  0.7169  0.2514
 4885TIP3   OH236145   6.807   2.863  12.128 -0.6963 -0.4315  0.0924
 4885TIP3    H136146   6.869   2.893  12.062  0.0137 -1.1567  0.4229
 4885TIP3    H236147   6.752   2.799  12.082  0.1938 -1.4017  0.3423
 4886TIP3   OH236148   3.611   2.459   4.263 -0.0771 -0.1599  0.4864
 4886TIP3    H136149   3.533   2.406   4.281 -0.8145  0.3311 -1.0398
 4886TIP3    H236150   3.664   2.403   4.206  0.2746 -0.1489  0.7981
 4887TIP3   OH236151   4.711   1.936  13.898 -0.4306  0.1462  0.0840
 4887TIP3    H136152   4.705   1.841  13.893  1.2598  0.0606 -1.3846
 4887TIP3    H236153   4.631   1.963  13.943 -1.2748 -1.9086 -0.0813
 4888TIP3   OH236154   3.524   0.016  12.583  0.7442  0.2256 -0.2736
 4888TIP3    H136155   3.613  -0.020  12.590  1.1066  1.1856  0.2311
 4888TIP3    H236156   3.524   0.062  12.499  1.0780  1.1197  0.2002
 4889TIP3   OH236157   5.817   5.363   2.738 -0.0254  0.5260 -0.1255
 4889TIP3    H136158   5.777   5.434   2.788  0.8713  1.0340 -0.0902
 4889TIP3    H236159   5.757   5.290   2.746 -2.2470  1.9620 -2.1976
 4890TIP3   OH236160   3.670   1.412  11.962  0.0184 -0.5695  0.1776
 4890TIP3    H136161   3.622   1.405  11.879 -1.9619  1.2589  1.0685
 4890TIP3    H236162   3.675   1.322  11.994  1.2837 -1.3987 -2.1143
 4891TIP3   OH236163   2.622   3.111   5.029 -0.6642 -0.1960  0.3044
 4891TIP3    H136164   2.648   3.125   5.121  0.7300 -1.5552  0.1722
 4891TIP3    H236165   2.546   3.054   5.035  0.3038 -1.5065  0.6356
 4892TIP3   OH236166   2.786   2.987   4.839 -0.0019 -0.6345 -0.0590
 4892TIP3    H136167   2.749   3.042   4.908 -0.0186 -0.3055 -0.3253
 4892TIP3    H236168   2.714   2.928   4.815 -0.0055 -0.7294  0.1809
 4893TIP3   OH236169   5.986   0.397  15.184  0.2903 -0.2403  0.3825
 4893TIP3    H136170   6.049   0.393  15.255  0.0054 -0.6977  0.6184
 4893TIP3    H236171   6.012   0.473  15.132  0.4676  0.1282  1.0049
 4894TIP3   OH236172   4.049   2.512  16.319  0.0548  0.0721  0.0551
 4894TIP3    H136173   4.141   2.523  16.344 -0.4828  0.8055  1.9345
 4894TIP3    H236174   4.039   2.562  16.238  0.5908  3.0520  1.6850
 4895TIP3   OH236175   2.779   1.218  15.805 -0.0658 -0.5347  0.1565
 4895TIP3    H136176   2.857   1.232  15.859 -1.9926  1.4054  2.7220
 4895TIP3    H236177   2.785   1.286  15.737  0.8404 -0.8999 -0.1348
 4896TIP3   OH236178   0.360   0.475  13.645  0.7157  0.3737 -0.4726
 4896TIP3    H136179   0.271   0.459  13.615  0.7084  0.3352 -0.4306
 4896TIP3    H236180   0.377   0.567  13.623  1.0000  0.1262 -1.3384
 4897TIP3   OH236181   3.361   1.065   3.575  0.6236 -0.5258 -0.4304
 4897TIP3    H136182   3.371   1.122   3.652  0.3255 -1.7935  0.5856
 4897TIP3    H236183   3.445   1.019   3.569  0.7590 -0.2038 -1.0706
 4898TIP3   OH236184   4.365   4.327  10.228 -0.6647  0.1122  0.3748
 4898TIP3    H136185   4.419   4.345  10.305  0.5064  0.2908 -0.4746
 4898TIP3    H236186   4.275   4.340  10.259 -0.1420  2.3045  1.1944
 4899TIP3   OH236187   2.384   3.959  16.351 -0.4991 -0.2427  0.4047
 4899TIP3    H136188   2.410   3.997  16.267 -0.4736 -1.6833 -0.2715
 4899TIP3    H236189   2.442   4.000  16.415 -1.0074  1.4348 -0.1535
 4900TIP3   OH236190   4.992   2.169   0.896 -0.7859 -0.6510  0.6316
 4900TIP3    H136191   4.924   2.153   0.961 -1.0726  1.5377  0.9495
 4900TIP3    H236192   4.958   2.129   0.816 -1.2962 -1.7273  1.3611
 4901TIP3   OH236193   3.984   6.168  15.358  0.0855  0.4163  0.1467
 4901TIP3    H136194   3.924   6.224  15.407  0.5187  1.0844 -0.0754
 4901TIP3    H236195   4.057   6.152  15.418 -0.0607  0.0393  0.2287
 4902TIP3   OH236196   2.476   6.402  15.233 -0.3514 -0.1597  0.4907
 4902TIP3    H136197   2.466   6.443  15.319  0.2190 -0.0432  0.5048
 4902TIP3    H236198   2.391   6.363  15.215 -0.6715  0.3746  0.8185
 4903TIP3   OH236199   5.147   1.323  17.161 -0.6130 -0.7239 -0.7503
 4903TIP3    H136200   5.242   1.321  17.160 -0.6126 -0.4115 -1.2902
 4903TIP3    H236201   5.121   1.301  17.071 -1.0313  0.1054 -0.8410
 4904TIP3   OH236202   6.204   1.620  14.323  0.7244  0.0339  0.5511
 4904TIP3    H136203   6.261   1.674  14.268 -0.4468  0.9743  0.2305
 4904TIP3    H236204   6.262   1.551  14.356  1.4475 -0.7158 -2.0195
 4905TIP3   OH236205   0.025   0.385  11.295  0.5263  0.2674 -0.3874
 4905TIP3    H136206   0.055   0.335  11.371  2.5266 -1.2664 -2.0659
 4905TIP3    H236207   0.100   0.441  11.272  0.7492 -0.7315 -2.3324
 4906TIP3   OH236208   2.309   3.070  12.893  0.6160  0.1327 -0.0979
 4906TIP3    H136209   2.279   3.074  12.802 -0.0718 -0.4581  0.0907
 4906TIP3    H236210   2.285   2.982  12.923  3.1179 -0.6300 -0.1007
 4907TIP3   OH236211   5.539   5.242  14.281 -0.1240  0.3617 -0.1676
 4907TIP3    H136212   5.601   5.220  14.350 -0.7040 -0.3837  0.1311
 4907TIP3    H236213   5.553   5.335  14.265  0.1297  0.5083  0.8376
 4908TIP3   OH236214   5.403   5.387  13.426  0.0069 -0.0744  0.0528
 4908TIP3    H136215   5.313   5.370  13.454  0.3853 -1.6025  0.4190
 4908TIP3    H236216   5.400   5.375  13.331 -0.8968  3.4282 -0.5305
 4909TIP3   OH236217   3.889   4.868   3.176 -0.3866  0.0705  0.3617
 4909TIP3    H136218   3.924   4.947   3.136 -1.7459 -0.7966 -2.9838
 4909TIP3    H236219   3.965   4.813   3.193  0.4050  1.2421  0.6629
 4910TIP3   OH236220   4.404   3.843  12.846  0.1159 -0.3609 -0.0832
 4910TIP3    H136221   4.351   3.895  12.786  0.2066 -1.6355 -1.3257
 4910TIP3    H236222   4.478   3.901  12.868 -1.6030  1.3604  1.5240
 4911TIP3   OH236223   0.987   0.730  12.264 -0.5727 -0.5326  0.4004
 4911TIP3    H136224   0.972   0.682  12.182  1.1316  0.3715 -0.5003
 4911TIP3    H236225   0.949   0.816  12.249  1.6023  0.3758 -0.3455
 4912TIP3   OH236226   6.359   1.510  11.196 -0.2814 -0.5393  0.9174
 4912TIP3    H136227   6.291   1.567  11.231 -0.8059 -0.6961  0.1626
 4912TIP3    H236228   6.345   1.509  11.102  1.3778  0.2167  0.6241
 4913TIP3   OH236229   2.767   3.237   1.907 -0.1603  0.5115  0.1177
 4913TIP3    H136230   2.679   3.273   1.914 -0.8177 -1.0020  0.1312
 4913TIP3    H236231   2.825   3.313   1.911 -1.5390  1.8336 -2.3793
 4914TIP3   OH236232   2.836   3.637  16.074  0.3255 -0.0062 -0.2109
 4914TIP3    H136233   2.761   3.579  16.088  0.1386 -0.4624 -2.6146
 4914TIP3    H236234   2.809   3.721  16.110 -0.6564 -0.5874  0.4528
 4915TIP3   OH236235   0.980   1.725   4.436  0.3954 -0.2901  0.3849
 4915TIP3    H136236   1.013   1.741   4.524  0.4778 -1.7576  0.6396
 4915TIP3    H236237   1.025   1.790   4.381  0.5358  0.4693  1.3632
 4916TIP3   OH236238   4.270   3.372  14.630 -0.8962 -0.0954 -0.0323
 4916TIP3    H136239   4.321   3.388  14.709 -0.9498 -1.4295  0.3035
 4916TIP3    H236240   4.250   3.459  14.596  0.3131  0.4736  0.6499
 4917TIP3   OH236241   3.819   5.908   5.460  0.1042  0.0889  0.1772
 4917TIP3    H136242   3.859   5.853   5.394  0.5078 -0.7410  1.0897
 4917TIP3    H236243   3.743   5.947   5.417  0.6208 -0.0718 -0.8972
 4918TIP3   OH236244   5.497   3.385  16.598  0.6866 -0.3130 -0.0389
 4918TIP3    H136245   5.528   3.345  16.679 -0.1987 -1.0645 -0.0538
 4918TIP3    H236246   5.571   3.381  16.538  0.3910 -2.7659 -0.3368
 4919TIP3   OH236247   3.431   2.539   5.837 -0.8112 -0.0713 -0.3638
 4919TIP3    H136248   3.483   2.506   5.910 -0.9470 -1.1268 -0.7296
 4919TIP3    H236249   3.485   2.607   5.797  0.7898 -1.8491 -1.3741
 4920TIP3   OH236250   2.183   4.587  15.539 -0.0804  0.0765 -0.1398
 4920TIP3    H136251   2.256   4.526  15.543  0.4805  0.7499 -0.0328
 4920TIP3    H236252   2.222   4.669  15.510 -0.5717  0.7921  1.1845
 4921TIP3   OH236253   2.411   1.157   1.526  0.8206  0.4382 -0.2160
 4921TIP3    H136254   2.385   1.243   1.492  0.1252  1.2738  2.2008
 4921TIP3    H236255   2.492   1.175   1.574  1.8201 -0.7024 -1.4172
 4922TIP3   OH236256   3.626   1.455   0.924  0.1195 -0.1685 -0.6044
 4922TIP3    H136257   3.546   1.491   0.886  0.7944  1.1551 -0.8414
 4922TIP3    H236258   3.681   1.434   0.848  0.3419 -0.2346 -0.4254
 4923TIP3   OH236259   2.432   2.079   5.819  0.2432 -0.4473  0.1898
 4923TIP3    H136260   2.517   2.087   5.777  0.3830 -1.2133  0.3187
 4923TIP3    H236261   2.434   1.995   5.864 -0.5101 -0.3877  0.3627
 4924TIP3   OH236262   0.196   3.767  13.954  0.0101 -0.0481 -0.6040
 4924TIP3    H136263   0.289   3.781  13.971 -0.0442 -0.2417 -0.1351
 4924TIP3    H236264   0.183   3.796  13.863  0.2675  1.1921 -0.2646
 4925TIP3   OH236265   1.841   4.078  14.489  0.4484  0.2464 -0.1371
 4925TIP3    H136266   1.804   4.116  14.569  0.9206  1.6293 -0.5376
 4925TIP3    H236267   1.857   4.154  14.433 -0.9241 -0.7787 -2.0052
 4926TIP3   OH236268   6.182   5.105  12.199  0.4823  0.0601 -1.1992
 4926TIP3    H136269   6.234   5.134  12.273  1.2522  0.5722 -1.9294
 4926TIP3    H236270   6.150   5.186  12.159  1.4789 -0.1239 -2.4167
 4927TIP3   OH236271   3.557   0.845   2.371 -0.0498 -0.4856  0.3294
 4927TIP3    H136272   3.509   0.874   2.448 -0.8670 -2.4459  0.6286
 4927TIP3    H236273   3.494   0.794   2.321  1.5703 -2.9546  0.6172
 4928TIP3   OH236274   5.467   2.115   4.050 -0.0042 -0.6711  0.3041
 4928TIP3    H136275   5.430   2.204   4.051  0.3928 -0.5053  0.2223
 4928TIP3    H236276   5.528   2.116   3.977  0.0616 -0.9887  0.3573
 4929TIP3   OH236277   1.808   3.382  16.889 -0.4233 -0.2705  0.2418
 4929TIP3    H136278   1.744   3.351  16.952  0.0532 -0.1376  0.7999
 4929TIP3    H236279   1.820   3.475  16.910 -1.8571  0.3483 -1.4222
 4930TIP3   OH236280   4.166   2.735  11.394  0.4766  0.0450  0.1014
 4930TIP3    H136281   4.075   2.711  11.378  0.2298 -0.8889  2.4676
 4930TIP3    H236282   4.210   2.652  11.414  1.0141  0.8071  2.3646
 4931TIP3   OH236283   2.917   0.713   0.984 -0.7936  0.0269  0.3539
 4931TIP3    H136284   2.879   0.761   1.058  0.8863 -0.3748  1.5375
 4931TIP3    H236285   2.874   0.628   0.986 -1.0360  0.1537  0.6082
 4932TIP3   OH236286   4.065   5.160   5.516 -0.0433 -0.5385 -0.0861
 4932TIP3    H136287   3.971   5.174   5.500  0.4298  1.7784 -1.1494
 4932TIP3    H236288   4.080   5.196   5.603  0.0604  0.2385 -0.4154
 4933TIP3   OH236289   6.298   5.684   5.789 -0.6192  1.0273  0.1350
 4933TIP3    H136290   6.259   5.597   5.784 -2.5558  1.5500  3.4179
 4933TIP3    H236291   6.240   5.740   5.737 -0.8936  0.7888  0.1859
 4934TIP3   OH236292   6.749   2.309  12.157  0.2904  0.7038 -0.4678
 4934TIP3    H136293   6.721   2.219  12.144 -0.5231  1.1662 -2.1142
 4934TIP3    H236294   6.844   2.304  12.168  0.1436 -0.4245  0.4658
 4935TIP3   OH236295   3.605   6.073   3.881 -0.0550 -0.3433  0.1215
 4935TIP3    H136296   3.528   6.070   3.824  0.3138  2.0748 -0.6334
 4935TIP3    H236297   3.584   6.015   3.954 -1.6474 -1.4521 -1.1573
 4936TIP3   OH236298   5.418   2.169   5.613 -0.7903  0.1308 -0.4954
 4936TIP3    H136299   5.339   2.135   5.654 -2.2792  2.3105 -1.3490
 4936TIP3    H236300   5.394   2.183   5.521  0.7152  0.4506 -0.8720
 4937TIP3   OH236301   3.917   4.407   4.697 -0.2079  0.7098  0.0458
 4937TIP3    H136302   3.847   4.390   4.634  0.1015 -1.5445  0.2424
 4937TIP3    H236303   3.875   4.401   4.783  0.3428 -1.7479  0.2140
 4938TIP3   OH236304   4.711   4.384   3.025 -0.4434  0.0369 -0.4274
 4938TIP3    H136305   4.678   4.343   2.945 -0.9077  2.9826 -1.9015
 4938TIP3    H236306   4.786   4.331   3.050 -0.0540 -0.7939 -3.0570
 4939TIP3   OH236307   5.417   5.224  13.975  0.3585 -0.4130  0.4059
 4939TIP3    H136308   5.438   5.303  14.026 -1.8967  0.3068  0.3620
 4939TIP3    H236309   5.487   5.218  13.911  0.9945  1.1572  0.8911
 4940TIP3   OH236310   5.382   1.983  15.201 -0.4545  0.1971  0.1826
 4940TIP3    H136311   5.443   2.031  15.256 -0.4938 -0.2709  0.6385
 4940TIP3    H236312   5.364   2.042  15.128  0.5585  0.3285  0.0258
 4941TIP3   OH236313   5.773   5.347  11.250  0.2271  0.3054 -0.0743
 4941TIP3    H136314   5.700   5.285  11.256  0.7027 -0.1788  1.0849
 4941TIP3    H236315   5.819   5.337  11.334  2.2235 -0.1492 -1.1713
 4942TIP3   OH236316   2.715   1.297  12.194  0.2446 -0.0108  0.5949
 4942TIP3    H136317   2.709   1.204  12.169  1.7036  0.6077 -2.5276
 4942TIP3    H236318   2.775   1.298  12.268  1.1277 -1.5139 -0.0440
 4943TIP3   OH236319   5.247   5.997  16.910  0.1270 -0.1940  0.2459
 4943TIP3    H136320   5.231   5.956  16.996  1.0370  1.5474  1.3006
 4943TIP3    H236321   5.160   6.014  16.875 -0.2574 -1.7874  0.3801
 4944TIP3   OH236322   0.164   6.190   3.960  0.6971  0.3000  0.2994
 4944TIP3    H136323   0.107   6.196   3.884  0.0738  1.4386  0.8199
 4944TIP3    H236324   0.175   6.097   3.976 -2.2070 -0.0075  1.0200
 4945TIP3   OH236325   3.439   0.714   5.608  0.2974  0.1219 -0.0538
 4945TIP3    H136326   3.429   0.620   5.601 -0.3389  0.3119 -4.1009
 4945TIP3    H236327   3.354   0.745   5.640 -0.0979 -0.5928 -0.3848
 4946TIP3   OH236328   0.823   4.312   1.982 -0.9503 -0.2602  0.2658
 4946TIP3    H136329   0.847   4.292   2.072  1.5128  0.0707 -0.2492
 4946TIP3    H236330   0.854   4.401   1.968  0.5055 -0.9718 -1.4422
 4947TIP3   OH236331   0.058   4.569  12.962  0.1363 -0.2922  0.0309
 4947TIP3    H136332   0.006   4.516  13.022 -0.5557 -1.6566 -1.7020
 4947TIP3    H236333   0.136   4.517  12.944  0.1920 -0.0468 -0.4757
 4948TIP3   OH236334   5.429   1.938  16.309 -0.5284  0.2290 -0.1160
 4948TIP3    H136335   5.478   1.920  16.389 -1.5806 -0.9727  0.2859
 4948TIP3    H236336   5.341   1.905  16.326 -1.0926  1.0093 -1.3518
 4949TIP3   OH236337   4.434   5.576   3.088 -0.4141 -0.1045  0.0575
 4949TIP3    H136338   4.444   5.595   2.995  0.5893 -1.8483 -0.2383
 4949TIP3    H236339   4.356   5.624   3.114 -1.9825 -1.2270 -2.2118
 4950TIP3   OH236340   6.586   3.839  14.384 -0.0670 -0.0288  0.3418
 4950TIP3    H136341   6.558   3.846  14.293  0.6024 -1.3365  0.0132
 4950TIP3    H236342   6.654   3.906  14.393  1.5121 -1.3862 -0.8157
 4951TIP3   OH236343   4.383   6.189   3.858 -0.2240  0.1284  0.5656
 4951TIP3    H136344   4.460   6.155   3.904 -1.6256 -2.8866  0.9274
 4951TIP3    H236345   4.324   6.114   3.852 -2.0285  1.6141 -2.1237
 4952TIP3   OH236346   2.033   2.526   5.626 -0.1014 -1.1806  0.2578
 4952TIP3    H136347   2.073   2.486   5.704 -0.0902  0.0774  0.9268
 4952TIP3    H236348   1.941   2.500   5.631 -0.6965  0.9931  2.1751
 4953TIP3   OH236349   5.282   2.960   4.849 -0.0432 -0.1687  0.2266
 4953TIP3    H136350   5.359   2.940   4.904 -1.2610 -1.0781  1.6921
 4953TIP3    H236351   5.213   2.980   4.912 -0.9288  1.0496 -1.0771
 4954TIP3   OH236352   6.189   6.040   1.289  0.2559 -0.1116 -0.6514
 4954TIP3    H136353   6.195   6.135   1.291  1.6488 -0.1754 -0.9731
 4954TIP3    H236354   6.218   6.012   1.376  2.4680 -0.3181 -1.3874
 4955TIP3   OH236355   3.112   2.703   3.400 -0.3535  0.1781 -0.2004
 4955TIP3    H136356   3.029   2.656   3.385 -0.4280  0.1625  0.2552
 4955TIP3    H236357   3.089   2.795   3.390 -0.7938  0.2867  1.5440
 4956TIP3   OH236358   4.943   3.796  12.600  0.0433  0.1509 -0.4480
 4956TIP3    H136359   4.974   3.769  12.686 -3.4415  1.0660  1.2864
 4956TIP3    H236360   4.903   3.882  12.614 -0.6330  0.3601 -3.0230
 4957TIP3   OH236361   4.194   5.530  13.213  0.4904 -0.7259 -0.5311
 4957TIP3    H136362   4.200   5.583  13.292  0.0577 -0.7747 -0.4634
 4957TIP3    H236363   4.101   5.507  13.207  0.4625 -0.4256 -1.2516
 4958TIP3   OH236364   0.605   0.708  14.652  0.1711  0.3070 -0.1423
 4958TIP3    H136365   0.650   0.624  14.665 -1.7811 -0.7883 -0.0412
 4958TIP3    H236366   0.537   0.709  14.720 -0.6343  1.3984 -0.9317
 4959TIP3   OH236367   6.518   1.146  13.189  0.3253  0.1059  0.0541
 4959TIP3    H136368   6.553   1.168  13.276 -0.1831 -1.3751  0.6624
 4959TIP3    H236369   6.483   1.229  13.156  1.8185  1.0051  0.6336
 4960TIP3   OH236370   2.256   0.788   4.627  0.3607 -0.0842 -0.3850
 4960TIP3    H136371   2.340   0.831   4.641  0.7911 -0.3693 -1.9495
 4960TIP3    H236372   2.224   0.822   4.544 -1.0914  0.0162  0.1697
 4961TIP3   OH236373   6.451   2.098  13.536 -0.5984 -0.3169  0.8486
 4961TIP3    H136374   6.358   2.096  13.513 -0.5481 -0.8455  0.6697
 4961TIP3    H236375   6.490   2.027  13.484 -0.3304 -0.9715  1.9173
 4962TIP3   OH236376   5.337   5.686  15.026 -0.1753  0.1059 -0.1265
 4962TIP3    H136377   5.332   5.601  15.069  1.5987 -1.3907 -2.6097
 4962TIP3    H236378   5.355   5.748  15.097 -2.1492 -1.4387  1.8288
 4963TIP3   OH236379   4.703   2.912   3.867 -0.3936 -0.0543  0.5215
 4963TIP3    H136380   4.766   2.979   3.842 -0.4514  0.4348  1.6568
 4963TIP3    H236381   4.693   2.859   3.788  0.4927  0.5994 -0.0525
 4964TIP3   OH236382   5.623   1.962   4.936  0.7132  0.4720  0.0624
 4964TIP3    H136383   5.704   1.946   4.887  0.7184 -2.6784  0.9015
 4964TIP3    H236384   5.565   1.890   4.912  0.5609 -1.0927  4.2117
 4965TIP3   OH236385   4.711   3.928  13.313  0.0028  0.4951  0.9379
 4965TIP3    H136386   4.629   3.963  13.277 -0.4580 -1.9146 -0.6271
 4965TIP3    H236387   4.775   3.945  13.244  0.4559  0.8634  1.4456
 4966TIP3   OH236388   3.521   1.238  11.400  0.1050  0.5672 -0.4178
 4966TIP3    H136389   3.587   1.279  11.343 -0.0751 -0.6996 -1.5984
 4966TIP3    H236390   3.438   1.274  11.369  0.0047 -0.1429 -1.0018
 4967TIP3   OH236391   2.739   0.492  11.035 -0.1125  0.0741  0.1160
 4967TIP3    H136392   2.773   0.579  11.015  0.2250 -0.5864 -2.5912
 4967TIP3    H236393   2.646   0.496  11.011  0.0287 -0.4345 -0.5502
 4968TIP3   OH236394   6.084   0.668  15.750 -0.7169  0.1820  0.3586
 4968TIP3    H136395   5.994   0.695  15.767 -0.2683  0.1611  3.4445
 4968TIP3    H236396   6.110   0.621  15.830  1.4590 -1.4418 -1.1708
 4969TIP3   OH236397   6.511   1.508  14.340 -0.1873  0.5132 -0.4371
 4969TIP3    H136398   6.600   1.489  14.369  0.8207  1.3475 -2.7390
 4969TIP3    H236399   6.475   1.566  14.407  1.4509  1.1502 -0.0748
 4970TIP3   OH236400   5.618   0.082   3.681 -0.3711 -0.2608 -0.4063
 4970TIP3    H136401   5.681   0.018   3.648 -0.0595 -0.5484  0.7154
 4970TIP3    H236402   5.588   0.128   3.603 -1.4355 -2.4995 -1.3802
 4971TIP3   OH236403   6.447   0.482   0.181 -0.2787 -0.1564  0.1867
 4971TIP3    H136404   6.514   0.522   0.238 -0.4480  1.5077 -0.7051
 4971TIP3    H236405   6.405   0.557   0.138  0.2033 -1.3471 -2.5660
 4972TIP3   OH236406   6.024   5.710   0.730 -0.2046  0.5330  0.4307
 4972TIP3    H136407   6.116   5.713   0.756  0.1181  1.3121 -0.7196
 4972TIP3    H236408   6.026   5.698   0.635 -1.2917  0.4228  0.4053
 4973TIP3   OH236409   1.322   6.612  11.600 -0.5794  0.0922 -0.0878
 4973TIP3    H136410   1.348   6.704  11.596 -0.4769  0.0878  0.3435
 4973TIP3    H236411   1.231   6.611  11.573 -0.5990  0.3305 -0.0356
 4974TIP3   OH236412   4.148   1.520  12.531  0.0160 -0.1668  0.2399
 4974TIP3    H136413   4.060   1.508  12.567 -0.1826  0.9783  0.1852
 4974TIP3    H236414   4.205   1.524  12.608 -0.3670  1.9484  0.4815
 4975TIP3   OH236415   0.077   6.323   0.884  0.2060 -0.5673  0.4347
 4975TIP3    H136416   0.069   6.418   0.886  0.6357 -0.4320 -1.5376
 4975TIP3    H236417   0.071   6.296   0.975  0.2328  1.3583  1.0527
 4976TIP3   OH236418   0.323   2.316   5.525 -0.5011  0.4744  0.0408
 4976TIP3    H136419   0.418   2.312   5.539 -0.2857  1.6643 -0.9057
 4976TIP3    H236420   0.285   2.298   5.611  0.6256  1.5566  0.8046
 4977TIP3   OH236421   4.720   3.107   1.845  0.0154  0.0237 -0.0854
 4977TIP3    H136422   4.779   3.128   1.918 -2.2699  1.8151  1.3833
 4977TIP3    H236423   4.744   3.169   1.777  2.7342 -2.1981 -1.3736
 4978TIP3   OH236424   3.456   0.170   3.845 -0.1030  1.0110 -0.0822
 4978TIP3    H136425   3.514   0.184   3.920 -1.7471  0.2392  1.4079
 4978TIP3    H236426   3.443   0.258   3.809  0.3823  1.4528  0.7801
 4979TIP3   OH236427   2.392   0.033   1.671  0.2442 -0.1901 -0.3836
 4979TIP3    H136428   2.470   0.005   1.719 -0.3618 -0.2420  0.5812
 4979TIP3    H236429   2.321  -0.018   1.708 -0.2430 -0.2256 -1.3363
 4980TIP3   OH236430   2.051   2.594  16.296  0.2940 -0.2927  0.1885
 4980TIP3    H136431   2.106   2.549  16.361 -0.5828 -0.9177  0.5216
 4980TIP3    H236432   2.030   2.527  16.232 -0.2943 -0.1340  0.2091
 4981TIP3   OH236433   5.091   0.053  11.148  0.2876 -0.0542 -0.1372
 4981TIP3    H136434   5.132   0.003  11.078 -2.1252 -0.5015 -1.3395
 4981TIP3    H236435   5.006   0.079  11.113 -0.9625 -0.1524  2.5632
 4982TIP3   OH236436   6.339   1.320  14.643 -0.0264 -0.4253  0.0436
 4982TIP3    H136437   6.301   1.352  14.725 -0.3254 -1.8629  0.4823
 4982TIP3    H236438   6.414   1.267  14.671  0.6266  0.0923 -0.6898
 4983TIP3   OH236439   3.843   3.416   3.268 -0.5640 -0.4611 -0.6089
 4983TIP3    H136440   3.756   3.403   3.231 -0.3478  1.8610 -2.0782
 4983TIP3    H236441   3.840   3.501   3.310  1.1100 -0.1068 -1.1089
 4984TIP3   OH236442   4.781   4.255   6.069 -0.3389 -0.2778  0.1370
 4984TIP3    H136443   4.807   4.333   6.020  0.9612 -1.2050 -0.7184
 4984TIP3    H236444   4.688   4.245   6.050 -0.0288 -0.2024 -1.6040
 4985TIP3   OH236445   4.995   6.043   2.069 -0.1089 -0.0266  0.0346
 4985TIP3    H136446   5.012   6.138   2.064 -1.1463  0.1933  0.5866
 4985TIP3    H236447   4.947   6.024   1.988 -2.0599  0.3980  1.0427
 4986TIP3   OH236448   4.693   0.609   4.304 -0.2283 -0.2197  0.4542
 4986TIP3    H136449   4.618   0.553   4.285 -0.5331  0.3758 -0.1279
 4986TIP3    H236450   4.768   0.563   4.266 -0.4856 -0.2063 -0.0686
 4987TIP3   OH236451   1.585   5.911   4.330  0.1059  0.6924  0.4246
 4987TIP3    H136452   1.500   5.956   4.334 -0.5853 -0.3806 -1.1746
 4987TIP3    H236453   1.646   5.977   4.300 -0.1357  1.4718  1.5558
 4988TIP3   OH236454   3.459   1.171  14.682 -0.1412  0.2004  0.0310
 4988TIP3    H136455   3.526   1.208  14.625  0.5117  0.3725  0.8929
 4988TIP3    H236456   3.481   1.078  14.689  0.1388  0.2982  0.4841
 4989TIP3   OH236457   6.537   0.172  14.845  0.2025 -0.2160  0.0993
 4989TIP3    H136458   6.443   0.160  14.849  0.1489 -0.3797 -1.1325
 4989TIP3    H236459   6.549   0.252  14.793  0.7410 -1.2320 -1.4308
 4990TIP3   OH236460   3.672   5.025  14.688  0.1518 -0.3748  0.3926
 4990TIP3    H136461   3.739   5.071  14.739  1.7725  0.8267 -2.5929
 4990TIP3    H236462   3.598   5.017  14.748  1.3038  2.4160  2.3913
 4991TIP3   OH236463   0.085   2.440  16.855 -0.5336  0.5302  0.2177
 4991TIP3    H136464   0.021   2.378  16.820  0.3008 -0.2701  0.0728
 4991TIP3    H236465   0.167   2.391  16.856  0.1198  1.6086  0.1984
 4992TIP3   OH236466   0.071   0.500  14.162  0.4071 -0.2877 -0.4902
 4992TIP3    H136467  -0.001   0.496  14.225  0.3203 -0.1108 -0.5780
 4992TIP3    H236468   0.044   0.443  14.090  0.1040  0.2136 -0.7789
 4993TIP3   OH236469   4.987   6.109  14.549  0.1048 -0.1685  0.4618
 4993TIP3    H136470   5.030   6.035  14.506 -0.2127 -0.5282  0.7555
 4993TIP3    H236471   4.973   6.173  14.478 -0.5417 -0.8110 -0.0122
 4994TIP3   OH236472   6.020   1.358   4.781  0.0348 -0.1688 -0.0271
 4994TIP3    H136473   6.100   1.309   4.799  0.7655  0.6733 -0.8394
 4994TIP3    H236474   6.006   1.346   4.687 -0.8622 -0.3933  0.1299
 4995TIP3   OH236475   0.355   1.257  16.243  0.0748  0.0330  0.3131
 4995TIP3    H136476   0.400   1.172  16.242  2.2884  1.1473  0.0073
 4995TIP3    H236477   0.423   1.321  16.222 -1.5559  1.9026  0.4232
 4996TIP3   OH236478   2.015   2.790   1.775 -0.1847 -0.0352  0.8004
 4996TIP3    H136479   2.046   2.756   1.690  0.0681  0.1242  0.8269
 4996TIP3    H236480   1.923   2.812   1.760 -0.0418  0.3490  0.4564
 4997TIP3   OH236481   1.560   6.714  13.296  0.1019 -0.1366  0.1190
 4997TIP3    H136482   1.633   6.750  13.346  0.0575  0.2141 -0.0610
 4997TIP3    H236483   1.590   6.714  13.206  0.5753 -1.7574  0.2459
 4998TIP3   OH236484   4.903   1.623   4.403 -0.0748  0.3917 -0.3638
 4998TIP3    H136485   4.968   1.665   4.348 -0.6831  1.3861 -0.3411
 4998TIP3    H236486   4.896   1.679   4.481  0.1222 -0.5109  0.3223
 4999TIP3   OH236487   6.382   4.373   6.232 -0.2981 -0.8164 -0.0482
 4999TIP3    H136488   6.416   4.403   6.316  1.3349 -0.2076 -0.8789
 4999TIP3    H236489   6.453   4.319   6.195 -0.8694 -0.8520 -1.1441
 5000TIP3   OH236490   0.789   3.101  13.343  0.0315 -0.1985  0.3087
 5000TIP3    H136491   0.747   3.082  13.259  2.2555  1.1500 -1.2159
 5000TIP3    H236492   0.824   3.017  13.372  0.9821 -0.3734 -1.1985
 5001TIP3   OH236493   0.646   5.348   0.576 -0.1046  0.6414 -0.5910
 5001TIP3    H136494   0.580   5.283   0.602  0.5071  0.6523  1.0761
 5001TIP3    H236495   0.727   5.299   0.571  0.3012  1.2031  0.3379
 5002TIP3   OH236496   4.363   4.314   1.217  1.1396 -0.3412 -0.4229
 5002TIP3    H136497   4.457   4.301   1.230  0.9310 -0.0040  1.7754
 5002TIP3    H236498   4.346   4.402   1.249 -0.2072 -1.0894  1.0735
 5003TIP3   OH236499   1.791   0.672  13.293  0.2829 -0.1294  0.1461
 5003TIP3    H136500   1.817   0.582  13.273  0.9041  0.0489  0.1128
 5003TIP3    H236501   1.804   0.720  13.211  1.0478  0.2181  0.4594
 5004TIP3   OH236502   4.968   6.128   3.199 -0.0432 -0.1727  0.0414
 5004TIP3    H136503   4.956   6.033   3.205  1.3932 -0.3980 -0.2014
 5004TIP3    H236504   5.031   6.148   3.268 -1.6383  0.9020  1.2534
 5005TIP3   OH236505   6.285   2.664   5.410  0.3310  0.1234  0.5123
 5005TIP3    H136506   6.311   2.573   5.426 -0.9617 -0.6197 -1.2899
 5005TIP3    H236507   6.194   2.668   5.438  0.3471  0.8319  0.4653
 5006TIP3   OH236508   0.486   6.045  15.320  0.3291 -0.4321  0.3652
 5006TIP3    H136509   0.471   6.135  15.347 -0.5381 -0.6342  0.6112
 5006TIP3    H236510   0.444   6.038  15.234  1.3513 -0.3180 -0.1563
 5007TIP3   OH236511   3.908   4.041   6.003 -0.3992 -0.5158 -0.2116
 5007TIP3    H136512   3.918   3.951   5.973  0.4611  0.4494 -3.0983
 5007TIP3    H236513   3.997   4.074   6.011 -0.5744 -0.5130  3.2000
 5008TIP3   OH236514   2.813   6.677  15.346 -0.0031 -0.2119  0.3000
 5008TIP3    H136515   2.740   6.729  15.380  1.0185  1.4866  0.0141
 5008TIP3    H236516   2.860   6.647  15.423 -0.2673 -0.2150  0.4604
 5009TIP3   OH236517   2.126   0.118  11.961 -0.1629  0.0955  0.3975
 5009TIP3    H136518   2.045   0.101  11.913  0.9356 -0.5629 -1.3440
 5009TIP3    H236519   2.150   0.207  11.936 -1.8992  1.5734  3.4175
 5010TIP3   OH236520   6.085   0.624  11.110  0.0338 -0.2626  0.1071
 5010TIP3    H136521   6.172   0.592  11.087 -0.5985 -1.8444 -0.1996
 5010TIP3    H236522   6.026   0.552  11.088 -1.1929  0.1852  1.6990
 5011TIP3   OH236523   4.047   4.163   1.834  0.1154  0.8285  0.4278
 5011TIP3    H136524   4.139   4.143   1.853 -0.1693  0.3029  1.3685
 5011TIP3    H236525   3.999   4.106   1.894 -0.8317  0.7676 -0.3844
 5012TIP3   OH236526   2.709   5.171  13.015 -0.2730  0.1957  0.0136
 5012TIP3    H136527   2.767   5.236  13.055  2.1234  0.8267 -3.8912
 5012TIP3    H236528   2.665   5.218  12.944  0.0290 -1.8966 -1.6850
 5013TIP3   OH236529   5.702   4.283  13.483 -0.1194  0.0677  0.4497
 5013TIP3    H136530   5.696   4.188  13.494 -0.0566  0.2124  1.9412
 5013TIP3    H236531   5.762   4.311  13.552  1.5234  0.9905 -1.2673
 5014TIP3   OH236532   4.384   0.238  13.274 -0.1343  0.3097 -0.1781
 5014TIP3    H136533   4.397   0.151  13.237  0.3502  0.7390 -1.0609
 5014TIP3    H236534   4.413   0.231  13.365  0.0018 -0.4162 -0.2722
 5015TIP3   OH236535   5.509   5.207  16.776 -0.2842  0.1669  0.6287
 5015TIP3    H136536   5.458   5.282  16.745 -0.0618  0.2623  0.4981
 5015TIP3    H236537   5.522   5.152  16.699 -1.2425 -0.4740  0.9056
 5016TIP3   OH236538   4.514   3.730  14.054  0.1836 -0.0405  0.6367
 5016TIP3    H136539   4.454   3.706  14.124 -0.2606 -2.7405 -0.5645
 5016TIP3    H236540   4.459   3.740  13.977  0.5498  3.6623  0.6615
 5017TIP3   OH236541   6.505   1.842   5.166  0.5907 -0.1231  0.1470
 5017TIP3    H136542   6.416   1.877   5.162  0.2142 -1.1780 -1.6053
 5017TIP3    H236543   6.557   1.901   5.111  1.3210  1.2472  2.1680
 5018TIP3   OH236544   6.413   4.757   3.834  0.6721 -0.2420 -0.2305
 5018TIP3    H136545   6.411   4.851   3.848  0.9428 -0.3709  0.7431
 5018TIP3    H236546   6.506   4.733   3.836  0.5414 -0.7309  1.0909
 5019TIP3   OH236547   5.734   2.575   0.914  0.2226 -0.0799 -0.4259
 5019TIP3    H136548   5.655   2.590   0.862  0.2348 -1.1714 -0.7790
 5019TIP3    H236549   5.721   2.489   0.954  0.3515  0.5988  1.1484
 5020TIP3   OH236550   4.981   6.358  14.724  0.3885 -0.6624 -0.5394
 5020TIP3    H136551   4.957   6.266  14.716 -0.7783 -0.4580  0.3440
 5020TIP3    H236552   4.899   6.406  14.717  0.8021  0.2206  0.3362
 5021TIP3   OH236553   6.464   3.785  17.052  0.1847  0.1981  0.4320
 5021TIP3    H136554   6.473   3.696  17.018 -0.7394  0.3344 -0.2164
 5021TIP3    H236555   6.392   3.779  17.115 -1.9933  1.0321 -1.8132
 5022TIP3   OH236556   2.006   1.711  12.929  0.7920  0.2468 -0.1274
 5022TIP3    H136557   1.994   1.630  12.878  1.1901  0.0132  0.1408
 5022TIP3    H236558   2.007   1.780  12.863 -1.4704  0.2601 -0.2098
 5023TIP3   OH236559   6.476   4.888   2.881 -1.0786  0.0927 -1.0300
 5023TIP3    H136560   6.427   4.969   2.873 -1.8877 -0.3647 -0.8651
 5023TIP3    H236561   6.410   4.819   2.878 -0.6254 -0.4894  0.7222
 5024TIP3   OH236562   2.841   0.313  11.932  0.0578  0.0368  0.0985
 5024TIP3    H136563   2.778   0.262  11.881 -0.2009  0.7503 -0.3126
 5024TIP3    H236564   2.880   0.249  11.992 -0.1434 -0.6753 -0.5066
 5025TIP3   OH236565   5.940   5.721   0.474  0.0597 -0.1673  0.4240
 5025TIP3    H136566   5.847   5.704   0.458  0.1191  1.4637 -2.4275
 5025TIP3    H236567   5.945   5.815   0.491  1.2669 -0.0007 -0.6859
 5026TIP3   OH236568   3.994   3.415   6.007  0.5554  0.3314 -0.4224
 5026TIP3    H136569   3.914   3.464   6.024  0.1628 -0.4601  0.0497
 5026TIP3    H236570   4.055   3.480   5.972 -0.5934  0.7677 -1.7171
 5027TIP3   OH236571   3.249   4.879   1.468  0.1274  0.3577 -0.4490
 5027TIP3    H136572   3.185   4.894   1.537 -0.1842  0.3954 -0.7438
 5027TIP3    H236573   3.271   4.967   1.436 -0.3404  0.3005 -0.9467
 5028TIP3   OH236574   1.536   1.671   0.795 -0.4612  0.0267  0.2063
 5028TIP3    H136575   1.442   1.654   0.809 -0.4373 -0.9077 -0.6529
 5028TIP3    H236576   1.579   1.589   0.819  0.1843  0.5530  0.9063
 5029TIP3   OH236577   1.210   3.415   1.710  0.6378  0.6705 -0.1281
 5029TIP3    H136578   1.220   3.510   1.721  0.5766  0.8373 -1.2902
 5029TIP3    H236579   1.299   3.381   1.716  0.7639  0.9154 -0.4940
 5030TIP3   OH236580   1.706   3.811  12.738 -0.1063  0.1858 -0.1346
 5030TIP3    H136581   1.775   3.752  12.769 -0.5889 -0.9924 -1.2118
 5030TIP3    H236582   1.738   3.899  12.759  0.7274 -0.4242  1.3438
 5031TIP3   OH236583   3.868   0.368  12.437 -0.3843  0.2843  0.6392
 5031TIP3    H136584   3.784   0.402  12.404 -0.7849  0.0570  1.3952
 5031TIP3    H236585   3.868   0.276  12.412 -0.3750  0.2811  0.6512
 5032TIP3   OH236586   3.037   6.045   0.427  0.5916  0.7981 -0.1236
 5032TIP3    H136587   3.034   6.120   0.487 -1.2110  2.6668 -2.3452
 5032TIP3    H236588   3.070   6.083   0.345 -0.2261 -0.8717 -1.2712
 5033TIP3   OH236589   2.300   4.667   2.831  0.0608  0.1638  0.1611
 5033TIP3    H136590   2.243   4.681   2.756  0.0025 -0.4103  0.0990
 5033TIP3    H236591   2.370   4.731   2.820  0.9968 -1.0435 -1.3140
 5034TIP3   OH236592   2.894   1.965  10.462  0.1445 -0.0447  0.2588
 5034TIP3    H136593   2.914   1.878  10.496  0.5356 -0.2225 -0.4014
 5034TIP3    H236594   2.853   2.011  10.535 -0.0033 -0.7597  0.6342
 5035TIP3   OH236595   4.084   6.084   1.139  0.7498 -0.4391 -0.3313
 5035TIP3    H136596   4.008   6.140   1.152  0.8984 -0.2031 -0.4688
 5035TIP3    H236597   4.159   6.139   1.164  0.7582 -1.3299  1.8560
 5036TIP3   OH236598   2.370   6.101   0.692  0.3442  0.0966  0.2425
 5036TIP3    H136599   2.356   6.133   0.781  1.2058  0.3078  0.3059
 5036TIP3    H236600   2.461   6.072   0.691 -0.2207 -1.8000  0.0100
 5037TIP3   OH236601   3.889   1.674   0.075  0.1183  0.6933 -0.7931
 5037TIP3    H136602   3.804   1.629   0.069  0.3840  0.0095  0.2836
 5037TIP3    H236603   3.953   1.607   0.052  0.4656  0.7534 -0.0179
 5038TIP3   OH236604   5.671   1.894   3.341 -0.0147 -0.4967 -0.1873
 5038TIP3    H136605   5.585   1.882   3.300 -1.3434  3.6012  0.9205
 5038TIP3    H236606   5.659   1.865   3.431 -0.1945  0.0142 -0.0494
 5039TIP3   OH236607   2.047   0.615   0.054 -0.6996 -0.2514 -0.1503
 5039TIP3    H136608   1.991   0.687   0.081 -1.1241  0.3293 -2.3376
 5039TIP3    H236609   2.074   0.638  -0.036  2.0969 -1.0780  0.3690
 5040TIP3   OH236610   0.892   1.581  15.171  0.0201  0.3942 -0.6215
 5040TIP3    H136611   0.915   1.636  15.246  0.9602 -0.0983 -0.5286
 5040TIP3    H236612   0.973   1.575  15.120 -0.4636  0.2809 -1.3978
 5041TIP3   OH236613   1.664   1.255   0.170 -0.5290  0.1857  0.5500
 5041TIP3    H136614   1.738   1.261   0.231 -0.8222 -0.3070  0.9547
 5041TIP3    H236615   1.677   1.329   0.110  1.6121 -1.2177 -0.8618
 5042TIP3   OH236616   2.147   6.613  11.337  0.0432  0.8420  0.2309
 5042TIP3    H136617   2.124   6.573  11.253 -0.0467  1.5873 -0.1146
 5042TIP3    H236618   2.237   6.645  11.325  0.0147  0.9908  0.4011
 5043TIP3   OH236619   4.666   1.089   6.032 -0.2104  0.2797 -0.1299
 5043TIP3    H136620   4.755   1.061   6.052 -0.4444  1.4347  3.1640
 5043TIP3    H236621   4.654   1.170   6.082 -3.3428 -0.2529  0.2036
 5044TIP3   OH236622   1.850   3.041  17.102  0.3867  0.4322  0.1953
 5044TIP3    H136623   1.792   2.965  17.103  1.3874 -0.3482  0.5956
 5044TIP3    H236624   1.794   3.114  17.078 -1.2559  0.0940  2.7014
 5045TIP3   OH236625   3.173   5.006   0.911  0.7452  0.3066 -0.3683
 5045TIP3    H136626   3.142   4.918   0.889 -0.1319  0.0026  1.8591
 5045TIP3    H236627   3.216   5.037   0.831  0.0969 -1.6968 -1.5570
 5046TIP3   OH236628   1.791   6.186   2.302  0.5627 -0.4286  0.0294
 5046TIP3    H136629   1.784   6.227   2.216 -0.5182  1.2768  0.8740
 5046TIP3    H236630   1.880   6.205   2.330 -0.4347  3.3768  1.2535
 5047TIP3   OH236631   5.214   5.180  11.714 -0.3185 -0.1734  0.4118
 5047TIP3    H136632   5.256   5.140  11.791  1.6459 -0.4643 -0.7469
 5047TIP3    H236633   5.170   5.107  11.671  0.0488 -0.3525  0.3356
 5048TIP3   OH236634   6.330   0.120  17.283 -0.6556 -1.0085  0.2803
 5048TIP3    H136635   6.292   0.150  17.200  1.2539 -0.2325 -0.3672
 5048TIP3    H236636   6.281   0.041  17.304 -2.7583  0.0150 -0.3608
 5049TIP3   OH236637   0.033   5.136  12.877  0.1905 -0.5127 -0.0849
 5049TIP3    H136638   0.123   5.130  12.907  0.2958  0.5790 -0.1444
 5049TIP3    H236639   0.039   5.146  12.782 -0.0101 -0.7130 -0.1208
 5050TIP3   OH236640   1.923   4.975   5.286 -0.0507 -0.4260 -0.0671
 5050TIP3    H136641   1.923   4.883   5.311 -1.7647 -0.7456 -1.1355
 5050TIP3    H236642   1.833   5.005   5.302  0.7697  1.4621  1.5404
 5051TIP3   OH236643   0.967   5.453  12.366  0.4268 -0.4680  0.3246
 5051TIP3    H136644   0.927   5.540  12.365 -0.5939 -0.8845 -1.4685
 5051TIP3    H236645   0.901   5.397  12.406 -0.7372 -1.0737 -2.2142
 5052TIP3   OH236646   6.666   3.488   2.342 -0.3714  0.0970 -0.0369
 5052TIP3    H136647   6.677   3.398   2.372  0.4506  0.2239  0.0682
 5052TIP3    H236648   6.701   3.542   2.413  1.8647  0.3948 -1.2622
 5053TIP3   OH236649   5.168   0.566  12.916 -0.1397  0.0478 -0.1627
 5053TIP3    H136650   5.206   0.536  12.834  0.8652  1.3022 -0.1853
 5053TIP3    H236651   5.074   0.570  12.900 -0.0595 -0.7768 -0.8874
 5054TIP3   OH236652   4.151   3.571   5.096  0.1434 -0.4389  0.3111
 5054TIP3    H136653   4.084   3.639   5.106  0.4706 -0.0343 -0.1866
 5054TIP3    H236654   4.228   3.618   5.065  1.5190 -0.4402  3.3282
 5055TIP3   OH236655   1.006   3.608  13.494  0.4076  0.1257  0.2563
 5055TIP3    H136656   1.040   3.522  13.517  0.6739  0.2111  0.1846
 5055TIP3    H236657   1.067   3.642  13.429  1.1582  0.9865  1.3554
 5056TIP3   OH236658   4.089   6.489  10.614  0.3729  0.4699  0.2165
 5056TIP3    H136659   4.040   6.571  10.607 -0.0696  0.3478  1.6173
 5056TIP3    H236660   4.141   6.485  10.533  2.0365  3.1846  1.0182
 5057TIP3   OH236661   3.084   5.837  15.365  0.3211  0.4956  0.7486
 5057TIP3    H136662   3.087   5.743  15.348 -1.4810  0.4644  0.4165
 5057TIP3    H236663   2.991   5.857  15.373  0.5500  2.5732 -0.9862
 5058TIP3   OH236664   3.029   2.376   1.945 -0.6169 -0.1367  0.4645
 5058TIP3    H136665   3.022   2.338   2.032 -0.8697 -0.1168  0.4540
 5058TIP3    H236666   3.111   2.426   1.946  0.1644 -1.3514  0.2216
 5059TIP3   OH236667   3.792   6.015   2.972  0.4999 -0.2811 -0.4749
 5059TIP3    H136668   3.838   5.981   3.049 -1.0500  0.7295  0.9713
 5059TIP3    H236669   3.707   6.044   3.006  0.0400  0.8637 -2.4537
 5060TIP3   OH236670   1.306   0.146  12.151  0.0684  1.0617 -0.4955
 5060TIP3    H136671   1.313   0.055  12.178  0.4455  1.0921 -0.4812
 5060TIP3    H236672   1.342   0.148  12.063 -1.4515  0.9054 -1.1434
 5061TIP3   OH236673   4.172   3.979  11.759  0.0104 -0.2323  0.6975
 5061TIP3    H136674   4.177   4.000  11.852 -0.7791 -0.2801  0.7579
 5061TIP3    H236675   4.083   3.947  11.746  0.9964 -3.2756  0.5525
 5062TIP3   OH236676   6.120   2.954   3.453 -0.2830 -0.2469  0.0026
 5062TIP3    H136677   6.087   3.044   3.449 -1.5190 -0.6914 -0.2917
 5062TIP3    H236678   6.043   2.900   3.434  0.4511 -1.3655  0.1535
 5063TIP3   OH236679   6.336   5.116   2.846  0.2326 -0.1078  0.2502
 5063TIP3    H136680   6.372   5.198   2.880  2.0522 -0.9367  0.4169
 5063TIP3    H236681   6.352   5.120   2.752  1.6591 -0.8793  0.4422
 5064TIP3   OH236682   3.620   5.234  15.887 -0.5214  0.7022 -0.3604
 5064TIP3    H136683   3.550   5.184  15.931 -1.1527  0.1246 -1.9651
 5064TIP3    H236684   3.700   5.187  15.909 -1.1997 -1.9207 -2.8378
 5065TIP3   OH236685   4.185   3.248   1.098  0.3354  0.5713 -0.0661
 5065TIP3    H136686   4.277   3.222   1.093  0.3821  0.8749 -0.9395
 5065TIP3    H236687   4.153   3.240   1.008 -1.0832 -1.6232  0.5540
 5066TIP3   OH236688   3.125   2.795  13.805 -0.1988  0.0281  0.4683
 5066TIP3    H136689   3.199   2.853  13.820 -0.4541  0.5214 -0.1262
 5066TIP3    H236690   3.158   2.707  13.826  0.6556  0.1951 -0.1099
 5067TIP3   OH236691   0.348   5.296  15.132  0.4389 -0.0697 -0.6144
 5067TIP3    H136692   0.310   5.273  15.047 -0.6667 -0.3696 -0.0659
 5067TIP3    H236693   0.284   5.356  15.171  0.9863  0.1464 -0.0380
 5068TIP3   OH236694   0.666   2.363  10.591  0.3951 -0.7404 -0.2820
 5068TIP3    H136695   0.742   2.413  10.621  1.1856 -2.4174  0.6905
 5068TIP3    H236696   0.669   2.369  10.495 -0.4750  2.3026 -0.2211
 5069TIP3   OH236697   2.875   0.184  15.875 -0.0621  0.6127  0.6683
 5069TIP3    H136698   2.956   0.147  15.840 -0.6783 -0.7551  0.6156
 5069TIP3    H236699   2.883   0.172  15.970  0.7005  2.4172  0.8595
 5070TIP3   OH236700   0.965   0.581   1.419  0.2590 -0.1940  0.0245
 5070TIP3    H136701   0.941   0.494   1.386 -0.7345  0.3138 -0.6684
 5070TIP3    H236702   0.962   0.573   1.514 -0.0363 -0.8593 -0.0370
 5071TIP3   OH236703   3.832   5.714  15.323 -0.3291 -0.6866 -0.5177
 5071TIP3    H136704   3.761   5.738  15.382  0.3687  1.0316 -0.3070
 5071TIP3    H236705   3.788   5.686  15.243 -1.2715  0.4625 -0.4321
 5072TIP3   OH236706   3.476   5.295   1.042  0.2622 -0.1630  0.9695
 5072TIP3    H136707   3.548   5.326   0.988  0.2837 -0.9512  0.5405
 5072TIP3    H236708   3.409   5.363   1.033  0.7094  0.2758  0.8904
 5073TIP3   OH236709   1.041   3.197   4.049 -0.2605 -0.2187  0.1577
 5073TIP3    H136710   1.016   3.232   4.135 -1.2601 -1.1489  0.2583
 5073TIP3    H236711   1.000   3.111   4.044  1.2323 -0.9347 -0.5524
 5074TIP3   OH236712   6.406   5.347  16.056 -0.2032  0.1830 -0.0513
 5074TIP3    H136713   6.332   5.286  16.053 -0.8464  0.8635  1.1820
 5074TIP3    H236714   6.423   5.359  16.150 -0.3275  2.1524 -0.2406
 5075TIP3   OH236715   1.417   5.672   2.940  0.6960  0.2259  0.2837
 5075TIP3    H136716   1.367   5.753   2.948 -2.0034 -1.4676  2.2422
 5075TIP3    H236717   1.410   5.648   2.848 -1.3422  0.6103  0.2841
 5076TIP3   OH236718   3.622   1.788  13.403  0.3901 -0.1282  0.1570
 5076TIP3    H136719   3.670   1.854  13.353  0.6406  0.7993  1.5850
 5076TIP3    H236720   3.679   1.711  13.403  0.6565  0.0607 -0.4275
 5077TIP3   OH236721   0.788   5.540   5.669 -0.4759 -0.2931  0.2249
 5077TIP3    H136722   0.784   5.601   5.596  0.3464  0.7813  1.0469
 5077TIP3    H236723   0.762   5.456   5.632 -0.8988  0.4000 -1.0990
 5078TIP3   OH236724   4.289   1.958   5.595 -0.5213 -0.6155 -0.0068
 5078TIP3    H136725   4.224   1.971   5.664  0.0046 -2.7375  0.9699
 5078TIP3    H236726   4.287   2.039   5.544 -2.2944  0.2507  1.3492
 5079TIP3   OH236727   5.777   5.886   4.536  0.2635  0.0100 -0.6204
 5079TIP3    H136728   5.828   5.928   4.606 -1.1531 -0.2917  0.6641
 5079TIP3    H236729   5.692   5.931   4.539 -0.4767 -1.3173 -0.8256
 5080TIP3   OH236730   1.920   4.590  15.815  0.0589 -0.1666  0.0135
 5080TIP3    H136731   1.869   4.668  15.791 -1.4518 -0.9620  0.5028
 5080TIP3    H236732   1.902   4.527  15.745 -0.1291 -0.6632  0.5020
 5081TIP3   OH236733   0.127   6.473  16.981 -0.5414 -0.3753  0.2191
 5081TIP3    H136734   0.086   6.388  17.001 -0.4362 -0.4478  0.1250
 5081TIP3    H236735   0.079   6.535  17.036 -0.2234 -0.5783  0.7367
 5082TIP3   OH236736   2.449   3.713  16.037 -0.3050  0.4893  0.3975
 5082TIP3    H136737   2.370   3.700  16.090 -1.6212 -0.3141 -1.6169
 5082TIP3    H236738   2.420   3.768  15.965  1.3818  1.4295  0.4008
 5083TIP3   OH236739   4.166   4.637  10.758 -0.5093  0.5760  0.1578
 5083TIP3    H136740   4.111   4.705  10.720 -1.8682 -1.3108 -1.4330
 5083TIP3    H236741   4.254   4.675  10.758 -1.3969  2.7844  0.5554
 5084TIP3   OH236742   4.396   0.870  16.776 -0.7419  0.5755  0.2600
 5084TIP3    H136743   4.444   0.948  16.802 -0.2291  0.1332  0.6732
 5084TIP3    H236744   4.309   0.882  16.813 -1.3989  2.0148 -1.6497
 5085TIP3   OH236745   6.065   4.326   2.327 -0.2327  0.2126 -0.0149
 5085TIP3    H136746   6.024   4.412   2.319  1.0547  0.7812 -0.8652
 5085TIP3    H236747   6.122   4.333   2.403 -0.3955 -0.0222  0.1331
 5086TIP3   OH236748   2.449   0.183   5.359 -1.1480  0.3943 -0.0340
 5086TIP3    H136749   2.534   0.225   5.366 -0.7010 -0.4811 -0.1148
 5086TIP3    H236750   2.467   0.089   5.364 -2.0448  0.1733 -0.5689
 5087TIP3   OH236751   6.004   1.724   4.608 -0.1506 -0.2634 -0.3563
 5087TIP3    H136752   6.087   1.677   4.606 -1.0184 -1.8433 -1.2042
 5087TIP3    H236753   6.004   1.777   4.529  0.1962 -0.0011 -0.1798
 5088TIP3   OH236754   4.255   4.070  13.014  0.6373  0.3132  0.2282
 5088TIP3    H136755   4.195   4.110  13.076 -0.9635 -0.4123 -0.7852
 5088TIP3    H236756   4.230   3.978  13.011 -0.2879  0.5435 -2.4317
 5089TIP3   OH236757   3.062   2.705  16.045  0.6416 -0.2038  0.0593
 5089TIP3    H136758   2.970   2.691  16.068  1.1316 -0.1020  2.2780
 5089TIP3    H236759   3.068   2.675  15.954 -2.2545  2.7880 -1.3279
 5090TIP3   OH236760   5.325   5.000  14.186  0.2913  0.0301 -0.1626
 5090TIP3    H136761   5.394   5.054  14.226 -0.2407 -0.3727  1.3918
 5090TIP3    H236762   5.362   4.971  14.103  1.2858  1.3029 -0.1981
 5091TIP3   OH236763   1.689   2.833   2.531  0.1888  0.4561  0.1528
 5091TIP3    H136764   1.676   2.866   2.443 -0.9535  3.7858  1.4262
 5091TIP3    H236765   1.602   2.805   2.559  0.4532 -0.1393  0.4047
 5092TIP3   OH236766   6.482   3.699   5.052  0.1141  0.5643 -0.4468
 5092TIP3    H136767   6.534   3.753   5.111  0.1343  0.1035 -0.0337
 5092TIP3    H236768   6.426   3.761   5.005  1.9432  1.2105 -1.8432
 5093TIP3   OH236769   3.083   6.140  14.474  0.8217  0.4382 -0.4081
 5093TIP3    H136770   3.107   6.206  14.539  1.5703 -0.6538  0.4505
 5093TIP3    H236771   3.166   6.102  14.445  0.4366  0.2255 -1.2966
 5094TIP3   OH236772   0.928   5.597  15.587  0.9046 -0.1978 -0.4588
 5094TIP3    H136773   0.991   5.573  15.655  0.3668 -0.3406  0.0045
 5094TIP3    H236774   0.843   5.589  15.630  0.4531 -1.6116 -1.5443
 5095TIP3   OH236775   0.407   2.242   5.107  0.1567  0.1501 -0.1696
 5095TIP3    H136776   0.431   2.280   5.023 -0.2647 -0.9084 -0.7953
 5095TIP3    H236777   0.319   2.207   5.093 -0.2134  0.5925  0.9353
 5096TIP3   OH236778   5.775   3.487  12.979  0.1737  0.2586  0.0954
 5096TIP3    H136779   5.868   3.477  12.998  0.6028  1.8702 -0.9206
 5096TIP3    H236780   5.747   3.562  13.031 -0.8785 -0.9065  1.2805
 5097TIP3   OH236781   2.821   3.571   1.388 -0.2682 -0.4925  0.0368
 5097TIP3    H136782   2.826   3.588   1.294  0.2801  0.0245  0.1493
 5097TIP3    H236783   2.814   3.658   1.428 -1.0819 -0.7408  0.4462
 5098TIP3   OH236784   4.230   1.064  14.011 -0.0376  0.0391  0.0780
 5098TIP3    H136785   4.280   1.145  14.011  0.2964 -0.1625  0.6522
 5098TIP3    H236786   4.295   0.994  14.007 -0.3106 -0.2084 -0.1744
 5099TIP3   OH236787   5.201   1.781   3.985 -0.0188  0.6024  0.0034
 5099TIP3    H136788   5.282   1.755   4.028 -0.2057  0.9224  0.5681
 5099TIP3    H236789   5.136   1.719   4.017  0.1107 -0.0116 -0.8973
 5100TIP3   OH236790   3.570   3.803  15.333 -0.0365 -0.1010  0.1556
 5100TIP3    H136791   3.570   3.881  15.278 -1.2647 -0.7206 -0.7640
 5100TIP3    H236792   3.478   3.778  15.341  0.1164 -0.1750  2.3198
 5101TIP3   OH236793   1.697   6.471   3.550 -0.2253 -0.0807 -0.0752
 5101TIP3    H136794   1.725   6.552   3.593  0.5986 -0.8187  0.8499
 5101TIP3    H236795   1.615   6.448   3.594  0.0520 -0.2558  0.3644
 5102TIP3   OH236796   3.368   5.387   5.660  0.1184  0.8144  0.0096
 5102TIP3    H136797   3.336   5.477   5.653 -0.2178  0.6382 -0.8840
 5102TIP3    H236798   3.310   5.336   5.603  0.3950  0.0529  0.3870
 5103TIP3   OH236799   1.829   4.509   0.625  0.6361  0.7351 -0.4600
 5103TIP3    H136800   1.803   4.601   0.611 -0.1304  0.6331  0.2236
 5103TIP3    H236801   1.848   4.476   0.537 -1.6917  0.8016 -1.0500
 5104TIP3   OH236802   3.722   5.601  15.120 -0.3151 -0.1244  0.6850
 5104TIP3    H136803   3.788   5.531  15.118  0.0227  0.1724  1.1786
 5104TIP3    H236804   3.705   5.620  15.028 -1.0986 -1.4836  0.5226
 5105TIP3   OH236805   3.060   4.094   2.163  0.0505 -0.5039  0.5532
 5105TIP3    H136806   3.086   4.173   2.210 -0.5219 -0.6682  1.1614
 5105TIP3    H236807   3.120   4.090   2.088 -0.4277  0.9247  0.0633
 5106TIP3   OH236808   3.919   6.318   1.175 -0.1230 -0.0140 -0.3012
 5106TIP3    H136809   3.884   6.364   1.252 -0.9956 -0.6295 -0.3084
 5106TIP3    H236810   3.952   6.388   1.118 -1.5709  0.6357 -0.3928
 5107TIP3   OH236811   6.777   0.541   0.107 -0.2016  0.3937 -0.0667
 5107TIP3    H136812   6.801   0.449   0.118  0.9498  0.6405 -0.3696
 5107TIP3    H236813   6.739   0.566   0.191 -0.2343 -0.2644  0.1224
 5108TIP3   OH236814   0.236   0.779   2.760  0.0713 -0.3476 -0.3290
 5108TIP3    H136815   0.235   0.784   2.664  1.1142 -0.8045 -0.3787
 5108TIP3    H236816   0.260   0.867   2.788 -1.4553  0.1250 -0.4244
 5109TIP3   OH236817   4.203   5.770   0.016 -0.2589 -0.0531 -0.4100
 5109TIP3    H136818   4.196   5.862   0.042 -0.3483 -0.1735  0.0008
 5109TIP3    H236819   4.182   5.770  -0.077 -1.6445  0.1572 -0.1264
 5110TIP3   OH236820   3.352   3.313   5.759 -0.2842  0.0203  1.0789
 5110TIP3    H136821   3.395   3.392   5.792 -0.6352  0.4183  0.5945
 5110TIP3    H236822   3.259   3.335   5.759 -0.2429  0.3771 -1.0581
 5111TIP3   OH236823   2.673   2.290  15.175  0.3102 -0.0373  0.4893
 5111TIP3    H136824   2.653   2.214  15.120  0.3662 -0.2901  0.8182
 5111TIP3    H236825   2.714   2.353  15.115  1.3250 -0.7213  0.4628
 5112TIP3   OH236826   4.815   0.297  12.844 -0.1390 -0.4044  0.1661
 5112TIP3    H136827   4.734   0.247  12.850 -0.2859 -0.0664  1.2659
 5112TIP3    H236828   4.872   0.245  12.788 -0.4939 -1.5032  0.8111
 5113TIP3   OH236829   3.137   1.043   5.043 -0.1427 -0.3982 -0.3356
 5113TIP3    H136830   3.124   1.116   5.103  2.7593  0.0533 -0.0935
 5113TIP3    H236831   3.135   1.083   4.956 -1.4090 -0.5471 -0.3847
 5114TIP3   OH236832   0.081   6.628   5.497  0.9540  0.7709 -0.3927
 5114TIP3    H136833   0.173   6.610   5.479  1.6750  1.2903  2.2567
 5114TIP3    H236834   0.080   6.719   5.527 -0.8664  1.6366 -2.7843
 5115TIP3   OH236835   2.043   4.069  17.006 -0.5817  0.5715  0.6656
 5115TIP3    H136836   2.041   3.990  16.952  0.0281  1.8926 -1.3939
 5115TIP3    H236837   2.004   4.136  16.951 -0.5526  1.8620  2.1601
 5116TIP3   OH236838   3.956   2.229   0.992  0.0778  0.0470 -0.3899
 5116TIP3    H136839   3.988   2.140   1.004 -0.2768 -0.1099 -0.5876
 5116TIP3    H236840   3.899   2.244   1.068  0.9136  0.4661  0.1698
 5117TIP3   OH236841   5.075   3.651  12.822 -0.0872 -0.8075  0.1863
 5117TIP3    H136842   5.153   3.666  12.875  0.4369  2.9135 -1.3418
 5117TIP3    H236843   5.002   3.665  12.884  0.5119  3.0484  0.2914
 5118TIP3   OH236844   6.412   5.206  11.652 -0.4819 -0.3246 -0.3246
 5118TIP3    H136845   6.320   5.194  11.628 -0.9151  0.9794  0.5893
 5118TIP3    H236846   6.441   5.278  11.597 -0.7161  0.8738  1.0623
 5119TIP3   OH236847   6.203   3.780   1.079 -0.4379 -0.0619 -0.4787
 5119TIP3    H136848   6.200   3.822   1.165 -0.8877 -0.7508 -0.1432
 5119TIP3    H236849   6.148   3.834   1.023  0.0137  0.4989 -0.3801
 5120TIP3   OH236850   2.606   1.041  14.203 -0.0600 -0.0542 -0.3315
 5120TIP3    H136851   2.603   1.086  14.118  1.3128 -0.2470 -0.5043
 5120TIP3    H236852   2.632   0.951  14.182 -0.5483 -0.3284  0.2163
 5121TIP3   OH236853   1.244   3.800  17.121 -0.0460  0.5207 -0.3960
 5121TIP3    H136854   1.330   3.831  17.094  0.2812 -1.4424 -1.8105
 5121TIP3    H236855   1.260   3.754  17.204 -0.0235  1.4994  0.1528
 5122TIP3   OH236856   3.438   5.732   0.635 -0.6237 -0.4077 -0.1395
 5122TIP3    H136857   3.516   5.785   0.623 -0.4965 -0.3126  0.9436
 5122TIP3    H236858   3.384   5.750   0.558  0.7491 -1.1044 -1.3156
 5123TIP3   OH236859   4.921   4.924  15.305  0.5105  0.6376  0.6157
 5123TIP3    H136860   4.997   4.868  15.287 -0.0510  0.3205 -0.9065
 5123TIP3    H236861   4.852   4.863  15.329  0.5636  0.8846  1.4236
 5124TIP3   OH236862   0.895   6.246   3.904 -0.0582 -0.6148  0.2085
 5124TIP3    H136863   0.893   6.229   3.810  0.0522  0.8775 -0.0871
 5124TIP3    H236864   0.803   6.254   3.929 -0.0669 -0.3156  0.0844
 5125TIP3   OH236865   2.113   4.739   1.039 -0.1424  0.0203 -0.1801
 5125TIP3    H136866   2.114   4.679   1.113 -0.6674 -0.6429 -0.6953
 5125TIP3    H236867   2.205   4.764   1.027  0.0699 -0.6094  0.0990
 5126TIP3   OH236868   4.570   0.672   5.046  0.1298 -0.1694 -0.4796
 5126TIP3    H136869   4.619   0.591   5.058  1.4976  0.3721 -2.1062
 5126TIP3    H236870   4.595   0.703   4.959 -1.5591  1.2069 -0.5291
 5127TIP3   OH236871   4.917   1.362   4.320  1.2903 -0.5950 -0.0583
 5127TIP3    H136872   4.949   1.359   4.230  2.8339  0.2050  0.4291
 5127TIP3    H236873   4.918   1.455   4.343 -0.8582 -0.5801  0.2222
 5128TIP3   OH236874   1.318   1.433   0.040  0.5693  0.3839  0.2218
 5128TIP3    H136875   1.306   1.392   0.125 -2.8739  0.3733 -0.1099
 5128TIP3    H236876   1.341   1.524   0.060 -1.7388  0.7959  1.2881
 5129TIP3   OH236877   6.004   1.033  16.721  0.0359 -0.3866  0.2437
 5129TIP3    H136878   6.081   1.063  16.770  1.0109 -2.6642  0.2037
 5129TIP3    H236879   5.981   0.950  16.762 -0.2974 -1.4272 -1.9199
 5130TIP3   OH236880   2.938   1.828  16.506  0.2686  0.0016 -0.5446
 5130TIP3    H136881   2.974   1.873  16.430  1.0936  2.4863  1.2014
 5130TIP3    H236882   3.014   1.788  16.549  0.0435 -0.0705 -0.2024
 5131TIP3   OH236883   6.057   1.102  14.987 -0.0429  0.2568  0.0295
 5131TIP3    H136884   6.078   1.132  14.899  1.4500 -0.3798  0.1330
 5131TIP3    H236885   6.070   1.179  15.043 -1.3516  0.7602 -0.3234
 5132TIP3   OH236886   1.897   6.083  17.287 -0.1809  0.1045 -0.2524
 5132TIP3    H136887   1.856   6.156  17.335  0.1074 -0.9301  1.6677
 5132TIP3    H236888   1.981   6.118  17.258 -0.2943  0.7295  0.1460
 5133TIP3   OH236889   5.262   4.566  11.922  0.5412 -0.1477 -0.4636
 5133TIP3    H136890   5.186   4.553  11.978 -0.7516  1.5015 -1.7201
 5133TIP3    H236891   5.332   4.517  11.965 -0.9990 -1.0289  1.1930
 5134TIP3   OH236892   0.598   1.442   2.465  0.2910  0.0298 -0.1684
 5134TIP3    H136893   0.570   1.526   2.429  0.4221 -0.8382 -2.4193
 5134TIP3    H236894   0.693   1.451   2.474  0.2175  0.3685  0.3715
 5135TIP3   OH236895   4.257   2.385  12.804 -0.0504  0.2156 -0.2435
 5135TIP3    H136896   4.274   2.343  12.719 -0.0677  0.7956 -0.5344
 5135TIP3    H236897   4.224   2.471  12.782 -0.3616  0.2517  0.3575
 5136TIP3   OH236898   6.367   1.368  12.652 -0.1947 -0.5012 -0.0550
 5136TIP3    H136899   6.274   1.361  12.674 -0.3449  0.8948 -0.1523
 5136TIP3    H236900   6.401   1.429  12.717  0.2871  0.3071 -1.0521
 5137TIP3   OH236901   5.174   3.397   1.169  0.4247 -0.0423  0.2453
 5137TIP3    H136902   5.121   3.448   1.107  3.1653  1.7874 -0.7721
 5137TIP3    H236903   5.140   3.308   1.161 -1.7213  0.8078 -1.1504
 5138TIP3   OH236904   6.544   0.819   5.367 -0.4525  0.0068 -0.1353
 5138TIP3    H136905   6.480   0.761   5.325 -0.7825 -0.0937  0.4842
 5138TIP3    H236906   6.566   0.775   5.449 -0.0929  0.3639 -0.0359
 5139TIP3   OH236907   3.396   2.610  11.987 -0.2232  0.5154 -0.0843
 5139TIP3    H136908   3.378   2.704  11.977 -1.9360  0.2632  0.2614
 5139TIP3    H236909   3.368   2.571  11.904  0.6931  0.3223 -0.3134
 5140TIP3   OH236910   3.414   4.068  12.252 -0.9622  0.3132  0.4487
 5140TIP3    H136911   3.485   4.025  12.300 -0.0652 -0.3837 -1.3892
 5140TIP3    H236912   3.336   4.019  12.276 -0.5697  0.0907  1.3104
 5141TIP3   OH236913   0.850   6.077  12.016  0.2640 -0.3318 -0.1020
 5141TIP3    H136914   0.832   6.021  12.092  0.2591 -1.3816 -0.8523
 5141TIP3    H236915   0.943   6.064  11.999  0.7953  1.6161  1.0399
 5142TIP3   OH236916   2.458   0.936  12.819  0.2808 -0.1527 -0.1170
 5142TIP3    H136917   2.537   0.936  12.874  0.4151  0.8673 -0.2943
 5142TIP3    H236918   2.483   0.888  12.740  0.5409 -0.3426  0.0791
 5143TIP3   OH236919   2.047   3.354   4.918 -0.0326  0.1701 -0.4694
 5143TIP3    H136920   2.134   3.387   4.939  0.0877 -0.7340  0.5224
 5143TIP3    H236921   2.027   3.292   4.988 -0.2321 -1.9058 -2.2611
 5144TIP3   OH236922   3.194   4.998   2.337 -0.0074  0.2583 -0.2661
 5144TIP3    H136923   3.137   5.049   2.395 -1.6813 -0.8520 -0.8396
 5144TIP3    H236924   3.243   4.941   2.395 -1.0015 -0.2002  0.1395
 5145TIP3   OH236925   3.631   4.608   1.451  0.3690  0.0790  0.1254
 5145TIP3    H136926   3.705   4.661   1.422  0.3812 -0.1517 -0.2770
 5145TIP3    H236927   3.615   4.547   1.379 -0.7727  0.6896 -0.1630
 5146TIP3   OH236928   1.903   5.136  16.361  0.2994  0.1865 -0.5733
 5146TIP3    H136929   1.852   5.153  16.281 -0.4595 -0.6903 -0.2899
 5146TIP3    H236930   1.838   5.136  16.431  1.0732  1.7870  0.1961
 5147TIP3   OH236931   4.619   4.419   0.703  0.6064  0.1595 -0.0974
 5147TIP3    H136932   4.568   4.383   0.631  1.4441 -0.6829 -0.2952
 5147TIP3    H236933   4.555   4.466   0.757 -0.1705  0.0753 -0.9250
 5148TIP3   OH236934   0.146   2.503   3.729  0.1058  0.2720 -0.0906
 5148TIP3    H136935   0.216   2.505   3.793  0.5177  1.2952 -0.5519
 5148TIP3    H236936   0.122   2.595   3.716  1.1567  0.2827 -2.5745
 5149TIP3   OH236937   3.374   0.762   2.158 -0.0197 -0.5333  0.3501
 5149TIP3    H136938   3.300   0.766   2.218 -2.4424 -1.3410 -2.3420
 5149TIP3    H236939   3.369   0.843   2.108 -0.3919 -1.4534 -1.1777
 5150TIP3   OH236940   1.533   4.780   5.840 -0.6653 -0.1077  0.3613
 5150TIP3    H136941   1.472   4.784   5.914 -0.8933  0.2854  0.1559
 5150TIP3    H236942   1.542   4.687   5.821 -1.0719 -0.1792  0.5046
 5151TIP3   OH236943   0.500   3.578  11.807  0.3076  0.5705 -0.1472
 5151TIP3    H136944   0.469   3.601  11.720  0.6559  0.0915 -0.3984
 5151TIP3    H236945   0.463   3.492  11.824  1.8131 -0.2025 -0.6249
 5152TIP3   OH236946   3.065   6.712  16.380 -0.2322  0.0513 -0.4956
 5152TIP3    H136947   2.969   6.719  16.383 -0.2062  0.1385  1.3407
 5152TIP3    H236948   3.084   6.634  16.432  0.6281 -1.1537 -2.5122
 5153TIP3   OH236949   3.727   1.823  11.802 -0.3854  0.1671 -0.2240
 5153TIP3    H136950   3.659   1.794  11.742 -0.2532  2.1538 -1.4414
 5153TIP3    H236951   3.809   1.812  11.754 -0.0232 -0.4552  0.5137
 5154TIP3   OH236952   6.078   5.167  15.666  0.1418 -0.7743 -0.1150
 5154TIP3    H136953   5.996   5.190  15.711  0.3307 -1.6666  0.7189
 5154TIP3    H236954   6.119   5.252  15.647 -0.2328 -0.3516  0.8751
 5155TIP3   OH236955   4.374   1.288  11.508  0.2423  0.8332 -0.5590
 5155TIP3    H136956   4.355   1.195  11.519 -0.0151  1.1689  2.9550
 5155TIP3    H236957   4.299   1.323  11.460 -0.0654 -0.5971 -1.1737
 5156TIP3   OH236958   1.237   6.281   4.254 -0.0702 -0.2489 -0.2038
 5156TIP3    H136959   1.150   6.286   4.293  0.5459  0.4314  1.1526
 5156TIP3    H236960   1.286   6.353   4.294  1.7599 -1.9218  0.7514
 5157TIP3   OH236961   3.717   0.567   2.537  0.1382 -0.4418  0.0796
 5157TIP3    H136962   3.693   0.579   2.629 -0.7517 -0.0773 -0.1888
 5157TIP3    H236963   3.748   0.654   2.510  1.5248 -0.8277  0.3354
 5158TIP3   OH236964   4.876   3.256  13.269  0.2786 -0.0164  0.1297
 5158TIP3    H136965   4.958   3.295  13.237 -0.4789  2.0093  0.5001
 5158TIP3    H236966   4.811   3.327  13.261 -1.6405 -1.7605 -0.8568
 5159TIP3   OH236967   6.085   0.760   6.218  0.6733  0.4941  0.5354
 5159TIP3    H136968   6.048   0.691   6.163  0.6640  0.1195  1.0064
 5159TIP3    H236969   6.096   0.719   6.304  4.2083 -0.1652 -0.0470
 5160TIP3   OH236970   4.386   0.409   1.374 -0.1578  0.8405 -0.1668
 5160TIP3    H136971   4.441   0.341   1.335 -0.1676  0.3198  0.7101
 5160TIP3    H236972   4.395   0.396   1.468 -0.4547  1.8235  0.0068
 5161TIP3   OH236973   5.378   4.765   2.949  0.6656  0.1448  0.5873
 5161TIP3    H136974   5.419   4.780   2.864  1.2642  2.0387  1.1512
 5161TIP3    H236975   5.290   4.802   2.941  1.0736  1.2681  1.0634
 5162TIP3   OH236976   4.888   4.087  13.780 -0.3670 -0.4949  0.5193
 5162TIP3    H136977   4.904   4.097  13.874  2.2445  0.3857  0.0646
 5162TIP3    H236978   4.812   4.144  13.763  1.1521  2.0432  1.6010
 5163TIP3   OH236979   5.968   2.525  16.406  0.1242  0.3328  0.1623
 5163TIP3    H136980   5.894   2.543  16.465  2.2052  0.4068  2.9778
 5163TIP3    H236981   5.983   2.431  16.414  0.4631  0.3508 -0.2389
 5164TIP3   OH236982   4.113   3.166   5.753  0.0815  0.0463  0.0739
 5164TIP3    H136983   4.078   3.157   5.841  0.1401 -0.9616  0.0064
 5164TIP3    H236984   4.192   3.218   5.763 -0.1377  0.2882  0.5528
 5165TIP3   OH236985   5.800   5.050  11.376 -0.6175 -0.2893  0.2590
 5165TIP3    H136986   5.743   5.012  11.309  0.6167 -1.3778 -0.2207
 5165TIP3    H236987   5.859   4.978  11.401 -0.8173  0.1733  2.2917
 5166TIP3   OH236988   5.482   0.329  12.210  0.1805  0.1196 -0.3753
 5166TIP3    H136989   5.392   0.361  12.208 -0.2883 -1.1158 -0.0202
 5166TIP3    H236990   5.486   0.264  12.140  1.0993  0.8887 -1.0652
 5167TIP3   OH236991   0.210   1.465  16.809 -0.1137  0.9907 -0.3724
 5167TIP3    H136992   0.180   1.470  16.900 -1.3277 -0.5920 -0.6338
 5167TIP3    H236993   0.138   1.422  16.763  2.3191 -2.7741 -1.1241
 5168TIP3   OH236994   5.363   6.051  10.567 -0.2166  0.6620  0.1351
 5168TIP3    H136995   5.318   5.966  10.569 -1.3042  1.1100 -2.0654
 5168TIP3    H236996   5.456   6.029  10.568 -0.4563 -0.6559 -1.6726
 5169TIP3   OH236997   5.385   1.466   6.280  0.1530  0.3561  0.2637
 5169TIP3    H136998   5.463   1.429   6.238  0.6673  0.7982  0.7975
 5169TIP3    H236999   5.371   1.549   6.234 -2.0906 -1.2191 -2.1903
 5170TIP3   OH237000   0.718   1.773  11.019 -0.2442 -0.3546  0.3555
 5170TIP3    H137001   0.729   1.852  11.073 -1.2226 -0.1857  0.3315
 5170TIP3    H237002   0.745   1.801  10.931 -2.4975  0.5922 -0.1027
 5171TIP3   OH237003   3.934   5.343   6.044  0.4728  0.1872 -0.5498
 5171TIP3    H137004   3.866   5.398   6.084 -1.2068 -0.7933 -1.9364
 5171TIP3    H237005   3.964   5.288   6.116 -0.3186  0.5191  0.0601
 5172TIP3   OH237006   5.040   4.680   0.465  0.0710 -0.1871 -0.8091
 5172TIP3    H137007   5.004   4.769   0.475 -0.8394 -0.6457  0.1716
 5172TIP3    H237008   4.971   4.623   0.499  0.3417 -1.3307 -2.1187
 5173TIP3   OH237009   3.948   2.215  10.745  0.2238  0.8785 -0.0395
 5173TIP3    H137010   3.942   2.143  10.683  1.4189 -0.5121  1.3730
 5173TIP3    H237011   4.004   2.280  10.702  0.5251  0.2190 -0.6583
 5174TIP3   OH237012   0.520   0.975  13.472 -0.2926  0.5639 -0.2486
 5174TIP3    H137013   0.589   1.015  13.420  0.3640 -2.2224 -1.6967
 5174TIP3    H237014   0.440   1.023  13.448  0.6168  1.8367 -0.8484
 5175TIP3   OH237015   5.277   6.105  15.816  0.0548 -0.1208  0.3662
 5175TIP3    H137016   5.275   6.199  15.796  0.2282 -0.1221  0.3360
 5175TIP3    H237017   5.205   6.092  15.877 -1.1558 -0.3093 -1.0442
 5176TIP3   OH237018   6.632   1.621  16.078  0.1098 -0.0940 -0.5829
 5176TIP3    H137019   6.670   1.636  15.991 -0.3148  0.0952 -0.7371
 5176TIP3    H237020   6.706   1.592  16.131  0.5781  0.7499 -0.7546
 5177TIP3   OH237021   0.452   4.466   0.491  0.1203  0.0847 -0.3312
 5177TIP3    H137022   0.392   4.437   0.560 -0.7791 -2.6749 -2.0572
 5177TIP3    H237023   0.495   4.385   0.462  1.8743  1.4371 -1.7201
 5178TIP3   OH237024   1.476   4.560   5.363 -0.4097  0.2160  0.5243
 5178TIP3    H137025   1.519   4.516   5.291  1.0058  2.3024 -0.0023
 5178TIP3    H237026   1.427   4.491   5.409 -1.0250 -1.2356 -2.1403
 5179TIP3   OH237027   3.785   4.666   2.013  0.5287 -0.4702  0.3610
 5179TIP3    H137028   3.733   4.692   1.938 -0.9889  0.8316  1.7987
 5179TIP3    H237029   3.842   4.597   1.980 -0.6979 -0.5379 -1.7551
 5180TIP3   OH237030   2.030   1.085  13.473  0.1071 -0.1322  0.3464
 5180TIP3    H137031   2.091   1.073  13.400  2.8325  2.1330  2.0180
 5180TIP3    H237032   1.990   1.171  13.456 -0.8460 -0.5383  0.4914
 5181TIP3   OH237033   3.621   3.919  12.370  0.2356  0.1828 -0.5658
 5181TIP3    H137034   3.674   3.851  12.411  0.5551  0.4230 -0.5762
 5181TIP3    H237035   3.680   3.960  12.306  0.2425  0.8757 -0.1289
 5182TIP3   OH237036   6.254   5.938   3.337  0.5287 -0.2989  0.4984
 5182TIP3    H137037   6.270   6.027   3.304  0.9828 -0.6038 -0.1363
 5182TIP3    H237038   6.309   5.932   3.415 -0.4682  0.3955  1.2801
 5183TIP3   OH237039   5.261   0.606   6.007  0.4737  0.0431 -0.4176
 5183TIP3    H137040   5.316   0.551   6.064 -0.0468  0.2567  0.3020
 5183TIP3    H237041   5.222   0.670   6.066  1.2668  1.3758 -1.2796
 5184TIP3   OH237042   0.345   1.062   4.437 -0.0906  0.2343 -0.1724
 5184TIP3    H137043   0.321   1.059   4.530 -0.7114 -0.6215 -0.3409
 5184TIP3    H237044   0.305   0.983   4.400  1.3313 -0.1809 -0.8852
 5185TIP3   OH237045   6.446   2.866  16.797 -0.1782 -0.5494 -0.5427
 5185TIP3    H137046   6.403   2.946  16.826  1.4376  0.3110 -0.3756
 5185TIP3    H237047   6.499   2.839  16.872  0.0355 -1.2467 -0.9309
 5186TIP3   OH237048   2.660   1.904  14.461 -0.0128 -0.0401  0.1542
 5186TIP3    H137049   2.676   1.817  14.425  1.3593 -0.2336  1.1554
 5186TIP3    H237050   2.730   1.917  14.524 -0.8080  1.3704  0.7949
 5187TIP3   OH237051   5.847   0.649  14.345 -0.6508 -0.5967 -0.8136
 5187TIP3    H137052   5.917   0.679  14.288 -0.8945 -0.3391 -0.9832
 5187TIP3    H237053   5.870   0.683  14.432  0.0973 -1.6079 -0.5989
 5188TIP3   OH237054   0.345   2.628   3.198 -0.3392 -0.3687  0.2364
 5188TIP3    H137055   0.436   2.619   3.170  0.0557  0.4034  1.1949
 5188TIP3    H237056   0.333   2.556   3.261 -0.4880 -0.6519 -0.1133
 5189TIP3   OH237057   6.355   1.230   6.159  0.0141  0.4520  0.6634
 5189TIP3    H137058   6.272   1.255   6.119  1.2782  1.2649 -1.7000
 5189TIP3    H237059   6.353   1.268   6.246 -1.3421  2.0514 -0.0166
 5190TIP3   OH237060   3.110   6.050  16.335  0.4266 -0.0681 -0.0618
 5190TIP3    H137061   3.152   5.995  16.268  1.2509  0.1221  0.2850
 5190TIP3    H237062   3.157   6.029  16.416  1.2834  1.7010 -0.0554
 5191TIP3   OH237063   0.960   0.225   1.849 -0.4885  0.4367  0.5310
 5191TIP3    H137064   0.987   0.164   1.780  0.4567  0.5419  0.7847
 5191TIP3    H237065   0.980   0.178   1.930 -1.5635  0.3261  0.7490
 5192TIP3   OH237066   4.412   1.657   2.350 -0.7912 -0.9345 -0.8174
 5192TIP3    H137067   4.460   1.689   2.273  3.7192 -1.6913  1.4134
 5192TIP3    H237068   4.398   1.564   2.333  1.2911 -1.3757 -0.3052
 5193TIP3   OH237069   2.372   4.074  11.487 -0.0596  0.0661  0.2728
 5193TIP3    H137070   2.467   4.074  11.491 -0.0766 -0.5094  0.8820
 5193TIP3    H237071   2.352   4.104  11.399  0.7712 -2.8857 -1.0714
 5194TIP3   OH237072   0.460   5.938  13.583  0.0879 -0.4865  0.9201
 5194TIP3    H137073   0.540   5.925  13.633  1.4502 -0.3931 -1.1028
 5194TIP3    H237074   0.431   6.026  13.607  1.7318  0.2894  0.2501
 5195TIP3   OH237075   3.271   6.632  15.700  0.0102  0.3681  0.3367
 5195TIP3    H137076   3.322   6.683  15.763  0.5396  1.3797 -0.8624
 5195TIP3    H237077   3.317   6.644  15.617 -0.3822 -1.3465 -0.1617
 5196TIP3   OH237078   0.172   4.394  16.585  0.8767 -0.4444  0.5638
 5196TIP3    H137079   0.262   4.376  16.560  0.8438 -0.7705  0.6838
 5196TIP3    H237080   0.176   4.478  16.632  0.9553  0.1211 -0.4154
 5197TIP3   OH237081   0.055   6.142  15.786 -0.4804  0.4369  0.5811
 5197TIP3    H137082   0.106   6.210  15.829  0.3828 -0.1516  0.5076
 5197TIP3    H237083   0.062   6.066  15.844 -0.6684  0.1320  0.2091
 5198TIP3   OH237084   0.257   2.642   0.026  0.3709  0.6818 -0.1659
 5198TIP3    H137085   0.283   2.626   0.117 -0.3830  0.6484  0.0433
 5198TIP3    H237086   0.340   2.649  -0.021  0.7589 -0.7119  0.2751
 5199TIP3   OH237087   4.754   5.448  13.666 -0.0983  0.1133 -0.1546
 5199TIP3    H137088   4.685   5.477  13.607  0.8896  0.9308 -0.9571
 5199TIP3    H237089   4.754   5.353  13.659 -1.0142  0.1174 -0.2772
 5200TIP3   OH237090   0.963   1.175   5.460  0.0921 -0.5975 -0.0279
 5200TIP3    H137091   0.952   1.080   5.452 -0.3335 -0.6390  0.9142
 5200TIP3    H237092   0.968   1.190   5.554 -3.4745  0.6894  0.1000
 5201TIP3   OH237093   0.689   0.407   3.637  0.1768  0.4086 -0.3871
 5201TIP3    H137094   0.688   0.325   3.688  0.5289  0.5896 -0.0918
 5201TIP3    H237095   0.732   0.470   3.694 -2.0028  1.3947  0.3071
 5202TIP3   OH237096   3.812   5.951   1.260  0.0299  0.0277 -0.2774
 5202TIP3    H137097   3.900   5.952   1.295 -0.1815 -0.5896  0.2759
 5202TIP3    H237098   3.817   5.894   1.183  0.1488  0.1295 -0.3450
 5203TIP3   OH237099   0.680   5.996   2.425 -0.1511 -0.1415  0.2738
 5203TIP3    H137100   0.748   6.021   2.362 -1.3295  0.6538 -0.7386
 5203TIP3    H237101   0.625   6.074   2.433 -0.8057 -0.6806  1.2543
 5204TIP3   OH237102   2.885   6.319  11.683 -0.6680 -0.2684 -0.4459
 5204TIP3    H137103   2.973   6.301  11.652 -1.0438  1.2663 -2.6870
 5204TIP3    H237104   2.897   6.358  11.769  0.8176 -0.2704 -0.6299
 5205TIP3   OH237105   5.978   6.470   4.390  0.5288  0.3244  0.4537
 5205TIP3    H137106   5.945   6.536   4.330  2.4223  0.7143 -0.2360
 5205TIP3    H237107   5.991   6.516   4.473 -1.5316 -0.0762  1.0429
 5206TIP3   OH237108   0.975   2.408  14.993  0.2489 -0.3201 -0.3911
 5206TIP3    H137109   1.013   2.495  15.001 -0.8905  0.0996  0.5889
 5206TIP3    H237110   0.929   2.409  14.909 -0.5325  0.3364  0.0372
 5207TIP3   OH237111   6.347   1.654   1.310 -0.1205 -0.0814  0.0300
 5207TIP3    H137112   6.412   1.617   1.369  0.1897 -0.4782 -0.5557
 5207TIP3    H237113   6.267   1.660   1.363  1.0301  3.1156  1.7083
 5208TIP3   OH237114   6.457   5.573   1.442 -0.1583 -0.2571  0.4304
 5208TIP3    H137115   6.431   5.483   1.428  0.0674 -0.2663  0.0599
 5208TIP3    H237116   6.482   5.577   1.535  0.5133 -0.7517  0.2789
 5209TIP3   OH237117   2.323   1.967   1.904  0.1180  0.0254 -0.2542
 5209TIP3    H137118   2.399   1.933   1.952  0.8369  1.6483 -0.1854
 5209TIP3    H237119   2.349   2.055   1.877 -0.9630 -0.1546 -2.0585
 5210TIP3   OH237120   3.513   0.779  13.690 -0.0833  0.3863  0.2678
 5210TIP3    H137121   3.534   0.868  13.659 -0.5370  0.0856 -0.9705
 5210TIP3    H237122   3.598   0.740  13.710  0.4285  0.0589 -2.2144
 5211TIP3   OH237123   0.266   6.418   5.084  0.2779  0.1615  0.0113
 5211TIP3    H137124   0.221   6.348   5.036  1.4961 -1.0105  0.5038
 5211TIP3    H237125   0.346   6.433   5.035  0.8281 -0.0019  0.8332
 5212TIP3   OH237126   6.331   1.792  11.524  0.7455  0.3266 -0.8053
 5212TIP3    H137127   6.409   1.749  11.489  0.7492  0.5183 -1.0366
 5212TIP3    H237128   6.359   1.882  11.541  1.5875 -0.4144  2.4372
 5213TIP3   OH237129   4.643   0.161   5.531 -0.3991  0.5641 -0.0523
 5213TIP3    H137130   4.621   0.075   5.496  2.5114  0.3188 -1.6150
 5213TIP3    H237131   4.589   0.222   5.481 -0.8097 -0.2196 -0.5887
 5214TIP3   OH237132   6.595   4.240   4.122  0.3648  0.0125 -0.2275
 5214TIP3    H137133   6.554   4.236   4.209 -0.2105 -2.4453 -0.5410
 5214TIP3    H237134   6.522   4.235   4.061  0.7066  2.4209 -0.9449
 5215TIP3   OH237135   5.122   3.501  16.172  0.0217  0.3563  0.1381
 5215TIP3    H137136   5.027   3.496  16.174  0.0974 -1.9257  1.0378
 5215TIP3    H237137   5.142   3.564  16.102 -2.1153  1.0160  0.0651
 5216TIP3   OH237138   1.565   1.878   4.091 -0.4365 -0.2972 -0.0545
 5216TIP3    H137139   1.525   1.808   4.039  0.0153 -0.6304  0.0377
 5216TIP3    H237140   1.651   1.843   4.116  1.0891  1.4291 -2.4946
 5217TIP3   OH237141   3.759   3.227   5.089  0.1692  0.1534  0.0307
 5217TIP3    H137142   3.706   3.157   5.050 -0.1379  1.5738 -2.2697
 5217TIP3    H237143   3.813   3.260   5.016  2.6289  0.2571  1.7661
 5218TIP3   OH237144   4.271   4.321  14.964 -0.1637  0.9001  0.4834
 5218TIP3    H137145   4.178   4.337  14.948 -0.1849  1.4874  1.1362
 5218TIP3    H237146   4.273   4.236  15.008 -0.0932 -0.8280 -2.5474
 5219TIP3   OH237147   3.974   2.849   3.823  0.2937 -0.6334 -0.4546
 5219TIP3    H137148   3.931   2.797   3.892  0.9575 -0.6742 -0.0593
 5219TIP3    H237149   3.913   2.847   3.750 -0.1270 -1.1613 -0.0984
 5220TIP3   OH237150   4.069   0.647  14.766  0.1697  0.0862 -0.1766
 5220TIP3    H137151   4.148   0.602  14.796 -1.0411 -2.2424 -0.3370
 5220TIP3    H237152   4.040   0.697  14.843 -0.0499 -1.7486  1.0014
 5221TIP3   OH237153   1.566   3.039   0.362  0.1494 -0.1383 -0.2622
 5221TIP3    H137154   1.511   3.065   0.436  1.0160  0.0900  0.3042
 5221TIP3    H237155   1.506   3.042   0.287 -0.5399  0.4252  0.2903
 5222TIP3   OH237156   6.602   3.262   6.674 -0.1921 -0.2905 -0.5213
 5222TIP3    H137157   6.515   3.275   6.712  0.2579 -1.5352  1.0391
 5222TIP3    H237158   6.596   3.300   6.587 -1.8446  1.0082  0.1139
 5223TIP3   OH237159   5.447   4.952   0.952  0.1789 -0.0430  0.3051
 5223TIP3    H137160   5.389   4.890   0.908  0.7638 -0.4957  0.1607
 5223TIP3    H237161   5.452   4.920   1.042 -0.1965  0.2904  0.4476
 5224TIP3   OH237162   5.958   0.402   2.563  0.1584 -0.9418  0.4898
 5224TIP3    H137163   5.950   0.497   2.555 -0.7434 -0.8695  1.9104
 5224TIP3    H237164   5.967   0.371   2.472 -2.7480  0.2655 -0.3523
 5225TIP3   OH237165   0.849   2.585  10.961 -0.0110  0.3681 -0.1744
 5225TIP3    H137166   0.895   2.639  11.025  0.8339 -1.1189  0.5422
 5225TIP3    H237167   0.766   2.630  10.946  1.1215  2.4468 -0.5261
 5226TIP3   OH237168   3.439   2.036  16.703  0.3848 -0.0810  0.0546
 5226TIP3    H137169   3.497   2.022  16.629  0.0853 -0.3718 -0.1295
 5226TIP3    H237170   3.487   2.095  16.761 -0.0392  1.5233 -1.1485
 5227TIP3   OH237171   5.038   5.875  12.533 -0.0585  0.4293 -0.1132
 5227TIP3    H137172   4.994   5.952  12.569  0.0806  0.8348 -0.8042
 5227TIP3    H237173   5.131   5.894  12.541 -0.0106 -0.0835  0.6009
 5228TIP3   OH237174   2.248   2.880  15.836 -0.1647  0.1427  0.2702
 5228TIP3    H137175   2.331   2.873  15.883 -0.6239 -1.8071  0.9024
 5228TIP3    H237176   2.185   2.910  15.901 -0.4746 -0.9857  0.5097
 5229TIP3   OH237177   3.070   1.487  13.464 -0.0117 -0.1075 -0.1220
 5229TIP3    H137178   3.043   1.577  13.478 -1.5155 -0.8324  2.1804
 5229TIP3    H237179   2.989   1.437  13.466  0.9671 -1.7602  1.1066
 5230TIP3   OH237180   4.906   2.129   2.719  0.0752  0.1614  0.3971
 5230TIP3    H137181   4.978   2.089   2.672  0.2350  1.0272 -0.1186
 5230TIP3    H237182   4.939   2.214   2.746 -0.6596  0.4572  0.3940
 5231TIP3   OH237183   4.657   5.747  13.797  0.0791  0.4089 -0.5115
 5231TIP3    H137184   4.717   5.810  13.837 -0.5770  0.7391 -0.0225
 5231TIP3    H237185   4.608   5.798  13.733 -2.6170  1.2444  1.9668
 5232TIP3   OH237186   1.757   2.483  15.748 -0.4726  0.9465  0.8934
 5232TIP3    H137187   1.712   2.559  15.711 -1.1862 -0.3534 -1.0514
 5232TIP3    H237188   1.788   2.434  15.672  2.4028  0.6572  2.1197
 5233TIP3   OH237189   4.706   0.489  14.430  0.1448 -0.1345 -0.3316
 5233TIP3    H137190   4.742   0.445  14.507  2.1779  0.8203 -0.6843
 5233TIP3    H237191   4.769   0.557  14.409 -1.2780  0.8106 -1.7845
 5234TIP3   OH237192   2.901   2.264  11.149  0.6621  0.0798  0.2084
 5234TIP3    H137193   2.806   2.279  11.148 -0.0562 -3.0373  2.3535
 5234TIP3    H237194   2.923   2.239  11.059 -0.5912  0.7145 -0.2926
 5235TIP3   OH237195   3.395   6.690   1.496 -0.5198  0.5811 -0.7291
 5235TIP3    H137196   3.443   6.773   1.486  0.0762  0.5457  1.2557
 5235TIP3    H237197   3.310   6.717   1.532  0.0530  0.3135  0.9144
 5236TIP3   OH237198   5.433   1.183   0.638 -0.2763  0.2441 -0.0075
 5236TIP3    H137199   5.436   1.212   0.729 -0.0967  2.5556 -0.6798
 5236TIP3    H237200   5.456   1.261   0.588 -2.5693 -0.3502 -2.1591
 5237TIP3   OH237201   4.368   1.060   5.469  0.3062 -0.8114  0.1717
 5237TIP3    H137202   4.276   1.033   5.473 -0.4654  1.6161  0.4420
 5237TIP3    H237203   4.385   1.076   5.376  0.4116 -1.0988  0.1406
 5238TIP3   OH237204   3.029   3.897   3.353 -0.5746  0.1379  0.1081
 5238TIP3    H137205   2.940   3.870   3.377 -0.6727 -0.6533 -1.0911
 5238TIP3    H237206   3.022   3.923   3.261  0.5005 -0.2445 -0.0904
 5239TIP3   OH237207   3.788   5.223  13.157 -0.3429  0.0063  0.4896
 5239TIP3    H137208   3.756   5.166  13.227 -1.9153 -1.2576 -1.1656
 5239TIP3    H237209   3.749   5.308  13.176 -1.7545 -0.6199  0.5475
 5240TIP3   OH237210   4.377   4.008  14.162  0.1406  0.1117  0.2595
 5240TIP3    H137211   4.444   3.940  14.169  0.2546  0.0848 -0.8915
 5240TIP3    H237212   4.427   4.089  14.150  0.0332  0.5544  2.4350
 5241TIP3   OH237213   0.059   5.278  15.668  0.2876 -0.3113 -0.4179
 5241TIP3    H137214  -0.017   5.237  15.710  1.0094  0.0783  1.3707
 5241TIP3    H237215   0.022   5.353  15.621 -0.5102 -0.4545 -0.0374
 5242TIP3   OH237216   2.983   3.849   2.272  0.1239 -0.2931  0.3740
 5242TIP3    H137217   2.895   3.865   2.307 -0.7939  0.1496 -1.9659
 5242TIP3    H237218   2.997   3.920   2.209  1.1714 -1.6931 -1.0374
 5243TIP3   OH237219   0.458   3.316  14.612 -0.1954  0.2428  0.4980
 5243TIP3    H137220   0.530   3.339  14.553 -0.2501  2.8971  1.3573
 5243TIP3    H237221   0.382   3.305  14.555  0.4261 -0.4688 -0.2117
 5244TIP3   OH237222   2.037   2.350  17.022  0.1454  0.0493 -0.0854
 5244TIP3    H137223   2.046   2.338  16.927  0.7505  1.7378 -0.2744
 5244TIP3    H237224   1.943   2.336  17.039  0.3517 -2.3378 -0.5630
 5245TIP3   OH237225   6.734   6.576  15.184  0.3978  0.5820 -0.2212
 5245TIP3    H137226   6.787   6.499  15.206  0.9132  0.3733 -2.0053
 5245TIP3    H237227   6.771   6.647  15.236 -0.5226 -0.4611  1.9952
 5246TIP3   OH237228   4.495   1.494  12.399 -0.7971 -0.0738 -0.0416
 5246TIP3    H137229   4.462   1.408  12.372  0.6572 -0.4114 -0.8085
 5246TIP3    H237230   4.560   1.475  12.466 -0.1925  0.3867 -0.4866
 5247TIP3   OH237231   1.769   2.305  15.532  0.1901  0.3779 -0.3844
 5247TIP3    H137232   1.764   2.245  15.457 -0.0758  0.3442 -0.3395
 5247TIP3    H237233   1.860   2.297  15.563 -0.5824 -2.3478  1.5412
 5248TIP3   OH237234   1.404   6.700  12.353 -0.2451 -0.2090  0.0629
 5248TIP3    H137235   1.400   6.665  12.442  2.1101 -0.0957  0.2807
 5248TIP3    H237236   1.481   6.658  12.315  0.5982  2.0352 -0.8556
 5249TIP3   OH237237   3.543   5.079  11.524  0.0391 -0.4228 -0.8146
 5249TIP3    H137238   3.594   4.999  11.537  1.1381 -0.5921 -4.8142
 5249TIP3    H237239   3.453   5.048  11.515 -0.2666 -0.5986  1.8770
 5250TIP3   OH237240   5.166   2.200  11.300  0.1859  0.1243 -0.5291
 5250TIP3    H137241   5.254   2.222  11.271  0.7603 -0.7988  0.4067
 5250TIP3    H237242   5.155   2.108  11.276 -0.4325  0.1639 -0.4195
 5251TIP3   OH237243   0.335   2.258   1.334  0.2190 -0.5436  0.4922
 5251TIP3    H137244   0.249   2.217   1.333 -0.1851  0.2770 -1.1292
 5251TIP3    H237245   0.393   2.196   1.291 -0.3240  0.3706 -1.6569
 5252TIP3   OH237246   1.483   1.417   2.633 -0.4159  0.4063  0.3340
 5252TIP3    H137247   1.565   1.455   2.602 -0.2647 -0.2899 -0.1385
 5252TIP3    H237248   1.460   1.352   2.567 -1.2123  0.4064  0.6025
 5253TIP3   OH237249   3.146   5.875  15.921 -0.5793 -0.0710  0.1950
 5253TIP3    H137250   3.224   5.924  15.895 -0.7715  0.8236  1.2834
 5253TIP3    H237251   3.124   5.907  16.008 -1.0215 -1.7234  0.7348
 5254TIP3   OH237252   3.478   3.392   0.718 -0.4545  0.4957  0.2408
 5254TIP3    H137253   3.533   3.351   0.785  0.8961  0.2376 -0.9607
 5254TIP3    H237254   3.389   3.387   0.753  0.2644  0.9636  2.2851
 5255TIP3   OH237255   5.992   0.453  13.253  0.3590  0.2268 -0.7414
 5255TIP3    H137256   6.038   0.401  13.187 -1.1378 -0.6639 -1.1131
 5255TIP3    H237257   5.951   0.524  13.204  0.4982  0.4455 -0.5469
 5256TIP3   OH237258   6.230   2.128  13.141 -0.3639 -0.1198 -0.1947
 5256TIP3    H137259   6.210   2.175  13.222  0.1098  0.5367 -0.4509
 5256TIP3    H237260   6.145   2.108  13.103 -0.5790  1.1058 -0.4050
 5257TIP3   OH237261   3.694   1.716  17.086 -0.1482 -0.5365 -0.1967
 5257TIP3    H137262   3.608   1.677  17.069 -0.6096  0.2562  0.2690
 5257TIP3    H237263   3.676   1.785  17.150  0.8568 -0.4388 -0.0150
 5258TIP3   OH237264   1.284   4.535   5.675  0.0116 -0.3691  0.4246
 5258TIP3    H137265   1.379   4.540   5.687 -0.1789  0.8208  1.6094
 5258TIP3    H237266   1.253   4.491   5.754 -0.5345  0.3074  0.5867
 5259TIP3   OH237267   2.697   0.742   1.730  0.4159 -0.3540 -0.0003
 5259TIP3    H137268   2.722   0.785   1.648 -0.6561 -1.3499 -0.8722
 5259TIP3    H237269   2.693   0.814   1.794  0.0448  0.6366 -1.1057
 5260TIP3   OH237270   4.570   4.664   1.174 -0.3260  0.2095 -0.2267
 5260TIP3    H137271   4.562   4.688   1.082 -0.6167 -0.2624 -0.3302
 5260TIP3    H237272   4.574   4.568   1.173 -1.9004  0.1047  0.3538
 5261TIP3   OH237273   2.555   4.748  11.470 -0.5265 -0.6655 -0.1739
 5261TIP3    H137274   2.547   4.838  11.500  1.2349 -0.6996  0.5095
 5261TIP3    H237275   2.578   4.754  11.378 -2.0125 -0.4791 -0.5582
 5262TIP3   OH237276   4.000   0.863  13.889 -0.4043 -0.2990  0.4508
 5262TIP3    H137277   4.060   0.911  13.831  1.5649 -1.0468  1.7864
 5262TIP3    H237278   4.051   0.789  13.921 -2.0449 -0.9485  1.7001
 5263TIP3   OH237279   0.198   2.236  12.480  0.0749  0.1948 -0.8209
 5263TIP3    H137280   0.162   2.158  12.521 -1.3720 -0.1083 -2.5788
 5263TIP3    H237281   0.287   2.243  12.516 -0.8715 -0.3905  1.8180
 5264TIP3   OH237282   6.500   1.156   4.279 -0.1440 -0.1115 -0.2220
 5264TIP3    H137283   6.510   1.187   4.369 -0.9088 -1.8346  0.5040
 5264TIP3    H237284   6.407   1.170   4.259  0.1474  0.8536 -1.0096
 5265TIP3   OH237285   1.129   4.778  13.036 -0.2359  0.4069 -0.4412
 5265TIP3    H137286   1.147   4.784  12.942 -0.8685  0.0330 -0.5929
 5265TIP3    H237287   1.034   4.784  13.042 -0.1946  0.4835  0.1862
 5266TIP3   OH237288   4.557   0.657  11.361  0.0655  0.1208  0.0333
 5266TIP3    H137289   4.506   0.599  11.304 -0.4898  1.3911 -0.7979
 5266TIP3    H237290   4.493   0.719  11.397  1.0282  2.1132 -1.4915
 5267TIP3   OH237291   0.124   0.346   0.500  0.6045  0.7501  0.6171
 5267TIP3    H137292   0.092   0.426   0.542  1.2571  1.5120 -0.2874
 5267TIP3    H237293   0.047   0.312   0.453  0.3505  0.8977  0.9238
 5268TIP3   OH237294   0.867   3.271   5.277  0.2636 -0.0932  0.0471
 5268TIP3    H137295   0.879   3.347   5.334  2.3015 -0.2482 -0.1247
 5268TIP3    H237296   0.860   3.308   5.189 -0.0078 -0.0357  0.0909
 5269TIP3   OH237297   4.634   6.802  15.839 -0.3916  0.1198  0.0706
 5269TIP3    H137298   4.606   6.736  15.777  0.7419 -2.1256  1.7705
 5269TIP3    H237299   4.585   6.783  15.919 -0.7431  1.9879  0.3507
 5270TIP3   OH237300   5.982   6.282  13.645 -0.4451  0.0188 -0.0120
 5270TIP3    H137301   5.981   6.189  13.666 -0.6039 -0.0794 -0.4422
 5270TIP3    H237302   6.063   6.295  13.595 -0.4321  0.1048  0.0313
 5271TIP3   OH237303   6.091   5.326  12.032 -0.0770 -0.4087  0.4126
 5271TIP3    H137304   6.137   5.345  11.950 -0.0534  0.6802  0.6688
 5271TIP3    H237305   6.064   5.411  12.065 -1.9450 -0.9874  0.4868
 5272TIP3   OH237306   3.612   2.907   3.886  0.0846  0.4630 -0.3807
 5272TIP3    H137307   3.539   2.919   3.946 -1.1622 -0.8472 -1.5532
 5272TIP3    H237308   3.620   2.991   3.840 -0.9160  0.5294 -0.4591
 5273TIP3   OH237309   2.976   2.627   2.364 -0.0729 -0.7278 -0.1442
 5273TIP3    H137310   2.933   2.615   2.280 -0.8025 -0.0419  0.1274
 5273TIP3    H237311   2.923   2.576   2.426 -0.7605  0.4595  0.2648
 5274TIP3   OH237312   6.395   6.585   5.863 -0.2668  0.3497  0.1994
 5274TIP3    H137313   6.491   6.580   5.866 -0.3009 -0.0939  1.0654
 5274TIP3    H237314   6.376   6.656   5.801  0.6339  0.8285  0.4486
 5275TIP3   OH237315   6.504   1.133  12.022  0.1049  0.0099  0.4503
 5275TIP3    H137316   6.472   1.062  12.077  1.2532  0.1845  1.3835
 5275TIP3    H237317   6.426   1.165  11.977 -0.9749  0.1263  2.2901
 5276TIP3   OH237318   3.414   5.149  16.034  0.3792  0.4698  0.1362
 5276TIP3    H137319   3.332   5.099  16.025  1.2064 -0.5181 -3.7998
 5276TIP3    H237320   3.473   5.089  16.080 -0.6681  0.7386  1.9392
 5277TIP3   OH237321   0.075   2.226   3.300  0.2423  0.1189 -0.2519
 5277TIP3    H137322   0.003   2.164   3.316 -0.0938  0.8923  1.4757
 5277TIP3    H237323   0.049   2.305   3.349  2.3030  0.3896  0.4888
 5278TIP3   OH237324   3.800   5.696  11.466  0.1546 -0.2840  0.3344
 5278TIP3    H137325   3.758   5.665  11.546 -0.6120  0.1997  0.1224
 5278TIP3    H237326   3.893   5.704  11.490 -0.0368 -0.3185  1.1139
 5279TIP3   OH237327   2.360   4.783  13.398  0.2710  0.0899  0.0472
 5279TIP3    H137328   2.353   4.700  13.445  2.7365 -0.4569 -0.4227
 5279TIP3    H237329   2.309   4.845  13.450 -0.0419 -1.2996  1.4532
 5280TIP3   OH237330   3.284   1.102   5.617  0.0144 -0.0983  0.7200
 5280TIP3    H137331   3.283   1.165   5.688 -0.5231  1.1796 -0.3843
 5280TIP3    H237332   3.375   1.071   5.614  0.1564  0.2167  1.6257
 5281TIP3   OH237333   3.819   1.122   5.817 -0.7237 -0.4087  0.0968
 5281TIP3    H137334   3.832   1.176   5.739  0.3064  0.6279  0.9450
 5281TIP3    H237335   3.837   1.182   5.890 -1.5861 -1.3723  1.1289
 5282TIP3   OH237336   0.530   4.901  15.909 -0.5327  0.2059  0.4026
 5282TIP3    H137337   0.451   4.847  15.904 -0.3785  0.0778 -1.0197
 5282TIP3    H237338   0.537   4.943  15.823  1.6241 -0.7630  0.0283
 5283TIP3   OH237339   3.278   4.660   5.277  0.2155  0.2973  0.1081
 5283TIP3    H137340   3.344   4.708   5.327  0.0484  1.0029 -0.3400
 5283TIP3    H237341   3.223   4.728   5.238  0.2321 -0.2417 -0.8857
 5284TIP3   OH237342   5.636   2.489   5.759  0.2338 -0.1196 -0.0481
 5284TIP3    H137343   5.660   2.521   5.846 -1.9342  0.7019  0.3042
 5284TIP3    H237344   5.658   2.396   5.761 -0.0519 -0.1790  1.5166
 5285TIP3   OH237345   6.311   2.186   1.275  0.5979  0.6389  0.6196
 5285TIP3    H137346   6.402   2.160   1.262  0.4213 -0.3567  1.3059
 5285TIP3    H237347   6.261   2.128   1.218  0.3303  0.6704  0.8214
 5286TIP3   OH237348   1.913   6.071   2.613  0.7998 -0.0011  0.5056
 5286TIP3    H137349   1.876   5.984   2.596  1.5024 -0.1236 -0.5057
 5286TIP3    H237350   1.958   6.061   2.697 -0.8072 -0.0355  1.4173
 5287TIP3   OH237351   6.479   5.747  11.139 -0.9681  0.0838 -0.7537
 5287TIP3    H137352   6.517   5.832  11.161 -1.7268  0.0367  0.9287
 5287TIP3    H237353   6.539   5.709  11.074  0.0278  1.3791 -0.6261
 5288TIP3   OH237354   6.601   4.166   5.316 -0.1802  0.1128 -0.3390
 5288TIP3    H137355   6.629   4.254   5.340  0.3094 -0.0190 -0.4343
 5288TIP3    H237356   6.675   4.109   5.338  0.0904 -0.0860 -1.6714
 5289TIP3   OH237357   0.721   2.355   5.888 -0.2385  0.1543 -0.0126
 5289TIP3    H137358   0.773   2.275   5.889 -0.6355 -0.2115 -2.3858
 5289TIP3    H237359   0.742   2.399   5.971  2.9329 -0.5226 -0.3411
 5290TIP3   OH237360   5.109   1.214   1.631  0.4293  0.1448  0.7135
 5290TIP3    H137361   5.114   1.127   1.591  0.0546  0.8100 -0.8636
 5290TIP3    H237362   5.161   1.207   1.711  1.1338 -1.2765  0.1636
 5291TIP3   OH237363   0.389   1.828  12.356  0.0278 -0.2782 -0.5688
 5291TIP3    H137364   0.346   1.911  12.333 -1.0030 -0.5535  0.2516
 5291TIP3    H237365   0.470   1.854  12.398  0.4670  0.2739 -1.7004
 5292TIP3   OH237366   3.805   1.613   5.482 -0.2711  0.2267 -0.7530
 5292TIP3    H137367   3.753   1.693   5.489  0.5226  0.7579 -0.7653
 5292TIP3    H237368   3.780   1.562   5.559  0.3280  1.1722  0.1037
 5293TIP3   OH237369   5.847   1.862  15.707 -0.0003 -0.1219  0.1814
 5293TIP3    H137370   5.878   1.791  15.764 -0.4993 -0.1407  0.4378
 5293TIP3    H237371   5.923   1.919  15.696 -0.0811  0.2719  1.4712
 5294TIP3   OH237372   3.129   1.853  16.735  0.6056  0.0487  0.8885
 5294TIP3    H137373   3.137   1.941  16.699  2.1823 -0.8808 -1.2076
 5294TIP3    H237374   3.060   1.861  16.801  1.5723  3.1098  1.7087
 5295TIP3   OH237375   5.652   1.026  14.863  0.6582  0.2772  0.1958
 5295TIP3    H137376   5.730   1.022  14.807  1.1266  2.3118  0.6335
 5295TIP3    H237377   5.613   1.111  14.844  0.6726  0.9223  2.7174
 5296TIP3   OH237378   5.327   5.292  13.182  0.3893  0.0525  0.1858
 5296TIP3    H137379   5.273   5.304  13.104 -1.4353  2.7845  1.7131
 5296TIP3    H237380   5.311   5.201  13.208 -0.1367 -0.4455 -1.7545
 5297TIP3   OH237381   1.785   3.764   6.138  0.7860 -0.1209  0.7813
 5297TIP3    H137382   1.789   3.670   6.157 -2.1391 -0.4182  0.4886
 5297TIP3    H237383   1.867   3.783   6.093  1.6241 -2.4487  1.1599
 5298TIP3   OH237384   6.579   6.561  14.958  1.1313 -0.2279  0.0345
 5298TIP3    H137385   6.648   6.588  15.018  0.1379 -0.5577  1.3810
 5298TIP3    H237386   6.586   6.466  14.954  2.2214 -0.1211 -1.7090
 5299TIP3   OH237387   3.620   0.213  14.296 -0.4271  0.6184 -0.1747
 5299TIP3    H137388   3.709   0.223  14.263 -1.2135  1.9523 -2.0494
 5299TIP3    H237389   3.621   0.128  14.340  1.4819  0.0951 -1.1025
 5300TIP3   OH237390   2.408   4.867  12.798 -0.3224 -0.4136  0.2394
 5300TIP3    H137391   2.499   4.846  12.820 -0.0447  0.7824  0.3126
 5300TIP3    H237392   2.415   4.924  12.722 -1.0159 -0.3033  0.2585
 5301TIP3   OH237393   2.037   6.253   4.669  0.0928 -0.4770  0.0894
 5301TIP3    H137394   2.001   6.256   4.758  1.1901  0.7765  0.5116
 5301TIP3    H237395   2.101   6.181   4.672 -0.5027 -1.0247  0.0394
 5302TIP3   OH237396   0.865   0.475  13.448 -0.2770  0.6271 -0.5253
 5302TIP3    H137397   0.845   0.547  13.389  0.9976  0.5732 -1.0557
 5302TIP3    H237398   0.914   0.516  13.520 -0.4778  0.4496 -0.2851
 5303TIP3   OH237399   0.667   0.756   4.554  0.6964  0.1661 -0.1796
 5303TIP3    H137400   0.754   0.757   4.594  0.1496  0.0514  1.0885
 5303TIP3    H237401   0.676   0.701   4.476  1.9068  0.7320 -0.4538
 5304TIP3   OH237402   3.591   1.702  14.021  0.3689  0.3492  0.2751
 5304TIP3    H137403   3.593   1.753  14.102 -1.1535 -1.4113  1.5146
 5304TIP3    H237404   3.683   1.688  13.999  0.8373  0.2847  2.1234
 5305TIP3   OH237405   0.510   0.054  13.284 -0.2637 -0.0351 -0.3717
 5305TIP3    H137406   0.437   0.067  13.346 -0.4784  1.1700 -0.8475
 5305TIP3    H237407   0.480   0.096  13.203  0.7751  0.0638 -0.7167
 5306TIP3   OH237408   2.611   6.311  11.264  0.2667  0.8398 -0.0125
 5306TIP3    H137409   2.639   6.281  11.177  0.4119  1.4452 -0.1784
 5306TIP3    H237410   2.643   6.401  11.270  0.8138  0.5902  0.9266
 5307TIP3   OH237411   4.707   5.564  12.194 -0.5761  0.0318  0.4484
 5307TIP3    H137412   4.649   5.609  12.256  0.3655  2.0640 -0.0544
 5307TIP3    H237413   4.785   5.543  12.245  0.0611  1.4006  0.0752
 5308TIP3   OH237414   5.799   6.757  16.835 -0.2118 -0.4917 -0.5343
 5308TIP3    H137415   5.809   6.846  16.803  1.1285 -0.9136 -1.3909
 5308TIP3    H237416   5.710   6.733  16.811 -0.5186  0.5400 -0.4719
 5309TIP3   OH237417   2.536   6.398   4.915  0.1528 -0.0512 -0.3916
 5309TIP3    H137418   2.535   6.302   4.913  1.5115 -0.1650  1.7074
 5309TIP3    H237419   2.611   6.422   4.861  1.2372 -0.3074  0.9620
 5310TIP3   OH237420   2.652   3.503   1.115  0.1068 -0.0958 -0.2637
 5310TIP3    H137421   2.645   3.515   1.020 -0.4849  0.1540 -0.1942
 5310TIP3    H237422   2.578   3.552   1.151 -1.8442 -3.0514  0.1136
 5311TIP3   OH237423   6.198   0.344  10.786  0.0458 -0.1598 -0.2710
 5311TIP3    H137424   6.140   0.305  10.851  1.1476 -0.7554  0.3828
 5311TIP3    H237425   6.157   0.323  10.702 -0.7397 -0.4630  0.1727
 5312TIP3   OH237426   0.028   4.888   0.455 -0.5292 -0.4119  0.8511
 5312TIP3    H137427  -0.034   4.932   0.396 -0.3079 -0.8524  0.2822
 5312TIP3    H237428   0.112   4.931   0.437 -0.0390 -1.8852 -0.6463
 5313TIP3   OH237429   3.074   4.518  11.077  0.3768  0.1694  0.0730
 5313TIP3    H137430   2.987   4.540  11.044  0.4746 -0.0028 -0.3104
 5313TIP3    H237431   3.129   4.516  10.998  0.4710 -0.9637  0.1505
 5314TIP3   OH237432   4.682   4.489  13.758 -0.2870 -0.4767 -0.3420
 5314TIP3    H137433   4.690   4.585  13.753 -1.2603 -0.2608  1.3445
 5314TIP3    H237434   4.699   4.459  13.669  0.6574  1.2159 -0.7859
 5315TIP3   OH237435   1.714   0.937   0.643 -0.5695 -0.0329  0.4516
 5315TIP3    H137436   1.801   0.918   0.608  0.0202  0.8550  1.4042
 5315TIP3    H237437   1.712   0.894   0.728 -0.0694  2.1245  1.6013
 5316TIP3   OH237438   2.495   2.208  15.654  0.2932  0.1846  0.2461
 5316TIP3    H137439   2.463   2.167  15.734 -0.4946  0.7500  0.2331
 5316TIP3    H237440   2.474   2.145  15.585 -0.5525  0.4261  0.2742
 5317TIP3   OH237441   5.211   0.089  16.981 -0.2234 -0.4150  0.5733
 5317TIP3    H137442   5.118   0.110  16.988  0.4146  3.4703 -0.2660
 5317TIP3    H237443   5.242   0.084  17.071 -0.8931  0.1905  0.8432
 5318TIP3   OH237444   3.594   3.427  12.782  0.1316  0.1793 -0.1948
 5318TIP3    H137445   3.672   3.420  12.727 -0.9239  0.6284 -1.8106
 5318TIP3    H237446   3.627   3.464  12.865  1.6379  0.2535 -0.7893
 5319TIP3   OH237447   5.273   0.580  13.438  0.3703  0.4499  0.7667
 5319TIP3    H137448   5.249   0.656  13.386  0.4636 -0.6132 -0.9158
 5319TIP3    H237449   5.360   0.555  13.406 -0.8670 -2.1122 -0.9381
 5320TIP3   OH237450   2.016   6.668   0.361  0.2519  0.3577 -0.4365
 5320TIP3    H137451   2.009   6.657   0.266 -0.3270 -0.2102 -0.3401
 5320TIP3    H237452   2.070   6.746   0.373  0.1685  0.5438 -1.2358
 5321TIP3   OH237453   5.640   0.297   3.223  0.0717  0.1150  0.3160
 5321TIP3    H137454   5.625   0.323   3.314  0.8729 -2.1487  1.1537
 5321TIP3    H237455   5.716   0.348   3.196  1.0655 -0.6097  1.6088
 5322TIP3   OH237456   1.494   5.944  11.410 -0.2517 -0.0318 -0.2474
 5322TIP3    H137457   1.478   5.853  11.388  0.9278 -0.3138  0.0007
 5322TIP3    H237458   1.587   5.958  11.391 -0.2848  0.9659  0.2373
 5323TIP3   OH237459   5.948   1.854   3.262  0.6670 -0.2111  0.3562
 5323TIP3    H137460   5.863   1.898   3.258  1.0528  0.7125  1.6516
 5323TIP3    H237461   5.989   1.873   3.178 -0.6558 -1.2588 -0.5823
 5324TIP3   OH237462   1.144   3.577   1.077  0.1077  0.3056  0.5942
 5324TIP3    H137463   1.089   3.644   1.118 -1.9886 -0.8997 -0.0620
 5324TIP3    H237464   1.170   3.520   1.149 -1.6949 -0.5448  0.6238
 5325TIP3   OH237465   5.368   6.802  13.041  0.3116  0.0590  0.7355
 5325TIP3    H137466   5.283   6.762  13.026  0.1466  0.1624  1.3600
 5325TIP3    H237467   5.350   6.896  13.046  0.2671  0.0088  2.0319
 5326TIP3   OH237468   5.115   3.289   4.582 -0.6927 -0.3917 -0.4576
 5326TIP3    H137469   5.045   3.241   4.537  0.3239 -1.2642 -1.1415
 5326TIP3    H237470   5.194   3.236   4.568 -0.0754  0.0106  1.2124
 5327TIP3   OH237471   3.240   1.763   0.894  0.3571  0.4856  0.0101
 5327TIP3    H137472   3.304   1.755   0.965  0.1179  1.5267  0.3582
 5327TIP3    H237473   3.156   1.774   0.939  0.0919  0.3223 -0.4409
 5328TIP3   OH237474   1.488   6.707   4.472  0.6521 -0.0047 -0.2041
 5328TIP3    H137475   1.429   6.706   4.548 -0.8260  2.3895 -1.1973
 5328TIP3    H237476   1.507   6.800   4.459  2.4354 -0.5352 -1.6267
 5329TIP3   OH237477   0.198   5.006  15.130  0.1958 -0.2946 -0.2267
 5329TIP3    H137478   0.186   5.055  15.048  0.9139  0.9855  0.3972
 5329TIP3    H237479   0.163   5.063  15.198 -1.0889 -1.6667  0.3197
 5330TIP3   OH237480   6.678   0.639  16.250 -0.4613  0.1793 -0.1991
 5330TIP3    H137481   6.770   0.611  16.253 -0.1781  0.9654 -1.2001
 5330TIP3    H237482   6.682   0.733  16.237 -1.4217  0.3782  0.8157
 5331TIP3   OH237483   2.126   4.589   1.769  0.2433  0.0994 -0.0043
 5331TIP3    H137484   2.087   4.672   1.743 -0.0127  0.2016  0.6751
 5331TIP3    H237485   2.205   4.614   1.817 -0.2271 -0.0123  0.8507
 5332TIP3   OH237486   0.390   1.683  15.084  0.2462 -0.3966 -0.2931
 5332TIP3    H137487   0.432   1.731  15.156  0.7812  0.8231 -1.3965
 5332TIP3    H237488   0.461   1.663  15.023 -0.3655 -0.5765 -0.9549
 5333TIP3   OH237489   1.536   6.292   6.158  0.1083 -0.3635 -0.5753
 5333TIP3    H137490   1.585   6.370   6.185  0.6624 -1.3240  1.4116
 5333TIP3    H237491   1.495   6.261   6.239 -0.8645 -1.6103 -1.5139
 5334TIP3   OH237492   4.245   1.222  14.586 -0.2224  0.3493 -1.1745
 5334TIP3    H137493   4.168   1.276  14.606 -0.7023 -0.8515  0.3812
 5334TIP3    H237494   4.208   1.138  14.557  0.4903 -0.1027 -0.7959
 5335TIP3   OH237495   3.426   6.524   3.643  0.0660  0.2146  0.6018
 5335TIP3    H137496   3.462   6.604   3.682  0.0581 -0.1350  1.3446
 5335TIP3    H237497   3.334   6.523   3.670  0.0248  0.0320  0.4603
 5336TIP3   OH237498   1.069   6.236   5.097  0.0423  0.6508  0.1750
 5336TIP3    H137499   1.029   6.171   5.039  0.9873  0.4349 -0.2438
 5336TIP3    H237500   1.022   6.225   5.180 -0.2619 -0.1083 -0.0853
 5337TIP3   OH237501   0.138   6.431   1.870  0.0307  0.5519 -0.3277
 5337TIP3    H137502   0.143   6.345   1.911  0.2381  0.8063  0.1828
 5337TIP3    H237503   0.217   6.476   1.899  0.5219  0.5154 -1.5207
 5338TIP3   OH237504   2.283   2.361  13.839  0.3229  0.3983 -0.6395
 5338TIP3    H137505   2.191   2.353  13.864  0.3589 -0.8215 -0.8466
 5338TIP3    H237506   2.289   2.320  13.753  1.1746 -0.0846 -0.3599
 5339TIP3   OH237507   4.861   1.737  14.895  0.2399 -0.2527  0.0232
 5339TIP3    H137508   4.790   1.765  14.837  1.5577  0.9835 -1.0888
 5339TIP3    H237509   4.855   1.795  14.970  1.2821  1.3160 -1.0300
 5340TIP3   OH237510   6.678   6.286  12.065 -0.8159 -0.9981 -0.3844
 5340TIP3    H137511   6.757   6.262  12.115 -0.5017 -0.5341 -0.6521
 5340TIP3    H237512   6.709   6.348  11.999 -1.5919  0.1134  0.2599
 5341TIP3   OH237513   1.043   5.947   2.912  0.5766  0.4456 -0.2345
 5341TIP3    H137514   0.998   5.872   2.951  1.3653  0.5199  0.8880
 5341TIP3    H237515   1.018   5.945   2.820  1.5237 -1.9106 -0.5193
 5342TIP3   OH237516   1.122   4.264  12.995 -0.1840 -0.0350  0.5655
 5342TIP3    H137517   1.137   4.284  12.902 -0.1748 -0.6415  0.4300
 5342TIP3    H237518   1.198   4.302  13.039  0.1799 -0.3556  0.2365
 5343TIP3   OH237519   3.070   0.895   6.017  0.0215  0.9762 -0.5619
 5343TIP3    H137520   2.976   0.901   6.004  0.1491  0.9007 -1.5661
 5343TIP3    H237521   3.089   0.960   6.084 -1.2597 -1.5763  2.5361
 5344TIP3   OH237522   0.358   6.539  15.774  0.9830  0.4025  0.2269
 5344TIP3    H137523   0.406   6.622  15.765  1.1758  0.1973 -0.7425
 5344TIP3    H237524   0.280   6.562  15.825  0.5900  1.3738 -0.7758
 5345TIP3   OH237525   0.402   4.621   2.906  0.6693  0.1715 -0.0466
 5345TIP3    H137526   0.378   4.538   2.866 -1.4443  1.3726 -1.5016
 5345TIP3    H237527   0.404   4.603   3.000 -2.4683 -1.0205 -0.0596
 5346TIP3   OH237528   5.889   0.888   0.977 -0.6981  0.3892 -0.5625
 5346TIP3    H137529   5.919   0.977   0.997 -1.3201  0.2777  0.9342
 5346TIP3    H237530   5.849   0.856   1.058 -2.1632 -0.5743 -1.6022
 5347TIP3   OH237531   3.570   1.903   1.752  0.5530  0.7157 -0.1262
 5347TIP3    H137532   3.575   1.960   1.675  0.0646  0.0651 -0.6526
 5347TIP3    H237533   3.481   1.868   1.750  1.0068 -0.4731 -0.1151
 5348TIP3   OH237534   4.751   2.590   2.677  0.1615 -0.7355  0.2969
 5348TIP3    H137535   4.824   2.650   2.696  0.8098 -1.0122 -1.1734
 5348TIP3    H237536   4.722   2.560   2.763  1.1043  0.1758  0.9694
 5349TIP3   OH237537   2.432   4.607   0.990 -0.0929  0.3875  0.1010
 5349TIP3    H137538   2.345   4.579   0.961  0.6812 -0.3995 -1.5462
 5349TIP3    H237539   2.447   4.558   1.071 -0.3850 -0.9777 -0.6460
 5350TIP3   OH237540   0.450   5.426   1.330 -0.7626 -0.0058 -0.4650
 5350TIP3    H137541   0.527   5.380   1.364 -0.7784  0.4525  0.2135
 5350TIP3    H237542   0.396   5.357   1.290 -0.3838 -0.4424 -0.2314
 5351TIP3   OH237543   2.659   0.969  16.456 -0.2866 -0.0805 -0.5019
 5351TIP3    H137544   2.748   0.952  16.425 -0.0990 -0.8892  0.4364
 5351TIP3    H237545   2.667   0.972  16.551 -1.2616 -0.1346 -0.4099
 5352TIP3   OH237546   5.819   1.794   2.900 -0.3537  0.3183  0.1511
 5352TIP3    H137547   5.790   1.705   2.879 -1.7300  0.7890 -0.0295
 5352TIP3    H237548   5.908   1.782   2.935 -1.0685 -1.2935  1.5840
 5353TIP3   OH237549   6.380   3.178  15.356 -0.2373  0.3878 -0.1199
 5353TIP3    H137550   6.412   3.251  15.303  0.2744  0.7282  0.6388
 5353TIP3    H237551   6.438   3.176  15.432 -1.4363  0.4232  0.8369
 5354TIP3   OH237552   0.962   5.225   2.784 -0.2420  0.1063  0.0270
 5354TIP3    H137553   1.043   5.179   2.804 -0.4623 -0.0973  0.4671
 5354TIP3    H237554   0.901   5.157   2.756  0.3098  0.4663 -2.2648
 5355TIP3   OH237555   4.992   1.647   2.415  0.2061 -0.5269 -0.5518
 5355TIP3    H137556   4.950   1.561   2.415  2.3888 -1.6699 -0.0868
 5355TIP3    H237557   4.963   1.688   2.497  2.1009 -2.4336  1.1575
 5356TIP3   OH237558   0.967   0.399   5.493 -0.3879  0.1385 -0.1656
 5356TIP3    H137559   0.936   0.374   5.406  0.4221 -0.3792 -0.3139
 5356TIP3    H237560   1.030   0.331   5.517 -2.3543 -1.1219  1.8595
 5357TIP3   OH237561   0.386   0.967   0.266  0.2604  0.0401  0.1489
 5357TIP3    H137562   0.405   0.877   0.295 -0.0249 -0.6237 -1.6326
 5357TIP3    H237563   0.331   0.956   0.189 -0.7957  1.7966  0.6094
 5358TIP3   OH237564   1.924   3.622  13.269 -0.8827  0.6410  0.4608
 5358TIP3    H137565   2.003   3.666  13.300 -0.5285  0.1641  0.2370
 5358TIP3    H237566   1.954   3.537  13.237 -1.5779  0.1628  1.0261
 5359TIP3   OH237567   1.770   2.664   4.391 -0.3364  0.0749 -0.6853
 5359TIP3    H137568   1.779   2.756   4.367  1.6782 -0.1082 -0.8667
 5359TIP3    H237569   1.828   2.654   4.467 -0.4781 -1.0523 -0.7124
 5360TIP3   OH237570   1.793   4.955   2.254 -0.6525  0.0067 -0.6361
 5360TIP3    H137571   1.755   4.975   2.340 -1.4236 -0.7286 -0.7958
 5360TIP3    H237572   1.729   4.987   2.191 -0.7983 -0.8292 -0.9164
 5361TIP3   OH237573   0.281   6.128   0.071 -0.0076 -0.2554  1.1225
 5361TIP3    H137574   0.235   6.179   0.138 -0.7959  0.8519 -0.2124
 5361TIP3    H237575   0.216   6.065   0.039  0.0604 -0.1365  0.7411
 5362TIP3   OH237576   6.129   3.946  11.649 -0.1636 -0.2773 -0.5637
 5362TIP3    H137577   6.200   3.939  11.712 -0.0452 -0.0871 -0.6770
 5362TIP3    H237578   6.169   3.923  11.565 -0.3166 -0.5112 -0.5746
 5363TIP3   OH237579   0.338   1.052  11.895  0.2281 -0.0981  0.1187
 5363TIP3    H137580   0.254   1.015  11.920 -0.7718  1.7845 -0.2890
 5363TIP3    H237581   0.320   1.100  11.814  1.7329  0.2178 -0.0645
 5364TIP3   OH237582   4.806   5.219  12.721 -0.4103  0.1330  0.6783
 5364TIP3    H137583   4.828   5.263  12.639 -1.4840  0.7025  0.6825
 5364TIP3    H237584   4.843   5.276  12.789  1.8623 -1.1177  0.6055
 5365TIP3   OH237585   3.654   2.575  14.546  0.8270  0.1103 -0.0306
 5365TIP3    H137586   3.726   2.633  14.521  0.9082  0.3218  0.6836
 5365TIP3    H237587   3.648   2.584  14.641 -1.2045  1.3500 -0.2212
 5366TIP3   OH237588   0.515   5.293   0.994  0.0436  0.0070 -0.6867
 5366TIP3    H137589   0.547   5.357   1.057  0.2178  0.2286 -0.9951
 5366TIP3    H237590   0.594   5.253   0.958 -0.0419  0.0506 -0.9323
 5367TIP3   OH237591   5.877   1.611   2.179 -0.3671  0.2264 -0.4234
 5367TIP3    H137592   5.853   1.654   2.261  2.1558  1.5154 -0.2473
 5367TIP3    H237593   5.893   1.520   2.203 -2.4539 -0.1126 -0.1183
 5368TIP3   OH237594   6.604   0.002  14.434  0.1983 -0.1483  0.1392
 5368TIP3    H137595   6.645  -0.020  14.518  0.7494  0.2315 -0.0227
 5368TIP3    H237596   6.557   0.083  14.451  0.6151  0.1268 -0.0087
 5369TIP3   OH237597   6.501   3.652   0.578  0.2230  0.1580  0.7776
 5369TIP3    H137598   6.502   3.556   0.569 -1.2098  0.1952 -0.0046
 5369TIP3    H237599   6.488   3.684   0.489 -0.4614  1.0427  1.1882
 5370TIP3   OH237600   3.966   1.771   0.640 -0.6433 -0.0527  0.6135
 5370TIP3    H137601   3.927   1.854   0.666  1.2656  1.2260 -0.4223
 5370TIP3    H237602   3.989   1.729   0.723 -0.8686  0.8283  1.1316
 5371TIP3   OH237603   1.546   3.644  16.942  0.2925  0.6618 -0.0395
 5371TIP3    H137604   1.540   3.635  17.038  0.9374 -0.0974 -0.0601
 5371TIP3    H237605   1.570   3.736  16.929  0.1139  0.7977  0.5279
 5372TIP3   OH237606   4.382   4.600   1.669  0.0258 -0.1749  0.0537
 5372TIP3    H137607   4.438   4.668   1.632  0.7502 -0.0076  1.3725
 5372TIP3    H237608   4.300   4.647   1.691  0.6394  0.3941  1.2599
 5373TIP3   OH237609   0.175   5.467  14.504 -0.4715 -0.8367 -0.7729
 5373TIP3    H137610   0.211   5.554  14.485  1.4516 -1.5717 -0.5942
 5373TIP3    H237611   0.118   5.482  14.580  2.3897 -0.2343  1.4159
 5374TIP3   OH237612   3.720   2.243   4.650  0.1349 -0.5466 -0.2788
 5374TIP3    H137613   3.718   2.278   4.561  1.0987  0.7047  0.1746
 5374TIP3    H237614   3.809   2.261   4.681 -0.0813 -1.2844  0.8188
 5375TIP3   OH237615   4.543   2.076  14.260 -0.3151 -0.1027 -0.5268
 5375TIP3    H137616   4.635   2.051  14.262 -0.1543  0.4511 -0.9560
 5375TIP3    H237617   4.498   2.000  14.223  0.1384  0.1169 -1.5624
 5376TIP3   OH237618   0.154   1.148   1.933 -0.0724 -0.0841 -0.3501
 5376TIP3    H137619   0.129   1.120   2.021  2.5682 -0.3882  0.3916
 5376TIP3    H237620   0.181   1.239   1.943  0.7512 -0.2750 -0.7126
 5377TIP3   OH237621   0.299   1.746  16.341  0.0751  0.4287  0.1043
 5377TIP3    H137622   0.230   1.681  16.326 -0.6528  0.7163  1.9810
 5377TIP3    H237623   0.269   1.824  16.293  0.0591 -0.0487 -0.6731
 5378TIP3   OH237624   0.803   2.143  16.956  0.5554  0.2018 -0.1624
 5378TIP3    H137625   0.737   2.075  16.964  0.4131  0.1946 -1.2922
 5378TIP3    H237626   0.865   2.125  17.026  0.1746 -0.6996 -0.0505
 5379TIP3   OH237627   6.306   5.999  13.577  0.5363 -0.0049  0.0082
 5379TIP3    H137628   6.368   5.935  13.613  1.5655  0.4390 -0.9072
 5379TIP3    H237629   6.317   5.992  13.482  1.0192  1.8526 -0.1125
 5380TIP3   OH237630   2.042   3.803   6.710  0.6316 -0.5518 -0.2372
 5380TIP3    H137631   2.050   3.819   6.804  0.9727 -2.8447  0.1764
 5380TIP3    H237632   2.003   3.883   6.676  0.5257  0.3561  1.8478
 5381TIP3   OH237633   0.520   4.423   4.253 -0.7218 -0.1586 -0.1646
 5381TIP3    H137634   0.530   4.337   4.295 -0.9289 -1.0827 -1.9380
 5381TIP3    H237635   0.514   4.484   4.326  0.0843 -1.5721  1.1432
 5382TIP3   OH237636   0.739   0.166   0.365 -0.2052 -0.2987 -0.0202
 5382TIP3    H137637   0.762   0.102   0.433  0.1870 -1.4161 -1.1648
 5382TIP3    H237638   0.760   0.251   0.404 -0.9481 -0.8368  1.6178
 5383TIP3   OH237639   6.148   1.735  12.582  0.0199  0.5117  0.8243
 5383TIP3    H137640   6.158   1.823  12.547  1.9937 -0.0760 -0.2431
 5383TIP3    H237641   6.056   1.713  12.568 -0.5675  2.4664  1.3397
 5384TIP3   OH237642   5.728   0.143  14.206  0.1254 -0.0759  0.1519
 5384TIP3    H137643   5.805   0.160  14.153 -0.1176  0.5149 -0.0220
 5384TIP3    H237644   5.715   0.223  14.256 -0.3399 -0.1934  0.2258
 5385TIP3   OH237645   3.873   2.600   3.647 -0.2075  0.4552 -0.5124
 5385TIP3    H137646   3.832   2.683   3.621  0.8707  0.7114 -1.4560
 5385TIP3    H237647   3.955   2.625   3.689 -0.7765 -0.0759  1.0171
 5386TIP3   OH237648   0.448   6.695   1.239  0.1125 -0.5089  0.5860
 5386TIP3    H137649   0.526   6.704   1.292  1.4236  0.1572 -1.3589
 5386TIP3    H237650   0.479   6.663   1.154 -1.5531  0.8907 -0.6346
 5387TIP3   OH237651   3.195   3.974   5.650  0.1278 -0.6311  0.1837
 5387TIP3    H137652   3.129   3.920   5.694 -0.6034  0.4450  0.4462
 5387TIP3    H237653   3.154   4.060   5.642  1.2747 -0.1035 -0.2111
 5388TIP3   OH237654   1.013   0.466  15.642 -0.3380  0.0205  0.3776
 5388TIP3    H137655   1.070   0.480  15.718  0.0235 -0.9616  0.3053
 5388TIP3    H237656   1.061   0.403  15.588 -1.5448 -0.9027  0.3670
 5389TIP3   OH237657   1.613   4.045   3.774  0.1608 -0.7592  0.1664
 5389TIP3    H137658   1.539   3.997   3.811  0.2680 -0.4928  0.7398
 5389TIP3    H237659   1.603   4.035   3.679 -1.5312  0.6235  0.1484
 5390TIP3   OH237660   0.719   1.193  14.903  0.1808 -0.3646  0.7572
 5390TIP3    H137661   0.790   1.247  14.868  0.1043 -0.1909  0.8713
 5390TIP3    H237662   0.713   1.119  14.842  0.8459 -0.6851  1.0697
 5391TIP3   OH237663   2.566   2.442   2.265  0.0558  0.0314 -0.3654
 5391TIP3    H137664   2.568   2.366   2.207 -1.7961 -0.7810  0.5748
 5391TIP3    H237665   2.473   2.461   2.277  0.4693  1.8421  0.2235
 5392TIP3   OH237666   5.762   6.806   5.811 -0.0106  0.3578 -0.2336
 5392TIP3    H137667   5.779   6.839   5.899 -0.0076  0.3818 -0.2429
 5392TIP3    H237668   5.801   6.719   5.810  1.3481  0.9344 -0.6793
 5393TIP3   OH237669   4.747   2.983   2.715  0.0331  0.3076  0.4553
 5393TIP3    H137670   4.734   2.922   2.788 -1.2799  0.2804  0.2372
 5393TIP3    H237671   4.797   2.933   2.651  1.2994  0.3693  1.3673
 5394TIP3   OH237672   2.363   5.818   0.671 -0.5135 -0.2837  0.8233
 5394TIP3    H137673   2.276   5.851   0.692 -0.6102 -0.3272  0.4891
 5394TIP3    H237674   2.420   5.894   0.680 -0.7224 -0.0434  0.1362
 5395TIP3   OH237675   0.979   0.829  15.960  0.3416 -0.1679 -0.1386
 5395TIP3    H137676   1.031   0.879  15.897  1.2156  0.4206  1.0073
 5395TIP3    H237677   1.014   0.855  16.045 -0.6933 -1.0754  0.5827
 5396TIP3   OH237678   5.207   5.917   0.469 -0.3135 -0.6211 -0.5299
 5396TIP3    H137679   5.134   5.855   0.461 -0.2247 -0.6740 -0.9821
 5396TIP3    H237680   5.205   5.966   0.387 -0.1180 -0.3160 -0.3513
 5397TIP3   OH237681   5.736   1.237   1.227  0.5058  0.7510  0.2356
 5397TIP3    H137682   5.756   1.290   1.304 -0.6971  2.1312 -0.3506
 5397TIP3    H237683   5.657   1.189   1.251 -0.5793  2.0873 -0.4888
 5398TIP3   OH237684   4.058   6.314  11.067  0.4634  0.1611  0.1524
 5398TIP3    H137685   3.967   6.294  11.044  0.7029 -0.8011 -0.0259
 5398TIP3    H237686   4.081   6.390  11.013 -0.4093  0.7805  0.6291
 5399TIP3   OH237687   3.780   5.067  11.852  0.1996 -0.2545 -0.0637
 5399TIP3    H137688   3.795   5.014  11.773 -1.0215 -2.8773  1.3259
 5399TIP3    H237689   3.862   5.061  11.900  0.7916  0.9689 -0.8725
 5400TIP3   OH237690   6.322   4.870  16.454 -0.0302 -0.0154 -0.1270
 5400TIP3    H137691   6.244   4.911  16.416 -0.5199 -0.5762  0.2419
 5400TIP3    H237692   6.309   4.878  16.548  0.1865 -0.4241 -0.0616
 5401TIP3   OH237693   3.009   4.770   4.918  0.1537  0.2733  0.3212
 5401TIP3    H137694   2.965   4.855   4.905  0.7008  0.2711 -1.9000
 5401TIP3    H237695   2.945   4.706   4.887 -0.1925 -0.1507  1.8468
 5402TIP3   OH237696   0.715   3.230   4.948 -0.0700 -0.5388 -0.1661
 5402TIP3    H137697   0.676   3.291   4.885 -1.8986  0.5869  1.8988
 5402TIP3    H237698   0.800   3.268   4.969 -0.3349  0.2030 -0.4117
 5403TIP3   OH237699   3.138   6.008   3.100  0.1666 -0.0623  0.7425
 5403TIP3    H137700   3.059   6.019   3.048  0.6102 -1.1413 -0.1823
 5403TIP3    H237701   3.121   6.059   3.180 -1.7418 -0.8692  0.8898
 5404TIP3   OH237702   4.318   2.631  17.148 -0.1046 -0.3825 -0.2008
 5404TIP3    H137703   4.287   2.605  17.061  0.3772  0.1668 -0.5417
 5404TIP3    H237704   4.405   2.668  17.132  0.8315 -2.0727  0.7553
 5405TIP3   OH237705   0.574   0.691   1.935  0.0677 -0.1694 -0.1869
 5405TIP3    H137706   0.548   0.620   1.994 -0.6552 -0.2755 -0.6127
 5405TIP3    H237707   0.668   0.679   1.923  0.1474 -0.3938  0.6148
 5406TIP3   OH237708   1.221   3.010  11.948 -0.2332 -0.4210 -0.2475
 5406TIP3    H137709   1.147   2.983  12.002 -1.0269  0.6473 -0.7456
 5406TIP3    H237710   1.187   3.007  11.859  0.0802  0.7586 -0.4229
 5407TIP3   OH237711   1.836   5.824  15.472 -0.3937  0.1898 -0.0447
 5407TIP3    H137712   1.857   5.762  15.402  0.7891  0.4063  0.1049
 5407TIP3    H237713   1.919   5.865  15.494 -0.6044 -0.3103  1.9113
 5408TIP3   OH237714   3.100   3.026   5.587  0.8457 -0.7731  0.1829
 5408TIP3    H137715   3.149   2.967   5.644  3.2688  0.3396 -0.5808
 5408TIP3    H237716   3.134   3.008   5.500 -0.7309 -0.4704 -0.5266
 5409TIP3   OH237717   3.405   1.498  13.359  0.5361 -0.0614  0.1424
 5409TIP3    H137718   3.425   1.556  13.432  0.6031 -0.3147  0.3267
 5409TIP3    H237719   3.468   1.426  13.367  0.0210 -0.5029  0.3122
 5410TIP3   OH237720   1.319   6.071  11.012  0.0504 -0.5155 -0.2188
 5410TIP3    H137721   1.325   6.089  10.918 -0.7226 -2.5478 -0.7070
 5410TIP3    H237722   1.333   6.157  11.053 -2.6138  1.0584 -2.2432
 5411TIP3   OH237723   1.592   5.940  16.615 -0.2380  0.1612 -0.4195
 5411TIP3    H137724   1.592   5.895  16.531 -0.2917 -0.0343 -0.3152
 5411TIP3    H237725   1.666   5.903  16.662 -1.5859 -1.4604  0.5370
 5412TIP3   OH237726   5.946   6.544   4.956 -0.2255 -0.1285 -0.2246
 5412TIP3    H137727   5.890   6.602   5.009  0.0396 -0.1296  0.0601
 5412TIP3    H237728   6.011   6.602   4.917  0.1364 -0.2488  0.1867
 5413TIP3   OH237729   6.323   4.631  12.771 -0.6767  0.1003  0.3345
 5413TIP3    H137730   6.329   4.712  12.720  2.6745 -0.8612 -1.1233
 5413TIP3    H237731   6.413   4.616  12.802 -0.8982 -3.4925 -0.2730
 5414TIP3   OH237732   3.034   1.777   4.590 -0.2139  0.2376 -0.1011
 5414TIP3    H137733   3.030   1.861   4.543  0.3659 -0.0880 -0.7475
 5414TIP3    H237734   3.124   1.748   4.580 -0.2071 -0.0808  0.8170
 5415TIP3   OH237735   2.085   0.079  13.943  0.3413  0.5702 -0.7487
 5415TIP3    H137736   2.142   0.074  13.866 -0.3197 -1.0694 -1.1597
 5415TIP3    H237737   2.122   0.016  14.004  0.8049  1.7963  0.2806
 5416TIP3   OH237738   5.990   0.154   3.430  0.0286  0.1395  0.1270
 5416TIP3    H137739   6.033   0.129   3.512 -1.4541 -1.6346  0.4319
 5416TIP3    H237740   5.915   0.096   3.424 -0.8653  1.3906 -1.6725
 5417TIP3   OH237741   0.233   6.445   2.954 -0.7985 -0.3718 -0.0670
 5417TIP3    H137742   0.262   6.461   3.044 -1.2908  1.2020 -0.1539
 5417TIP3    H237743   0.281   6.510   2.902 -2.2831  0.3544 -0.5907
 5418TIP3   OH237744   1.591   1.267  13.990  0.3157 -0.3622 -0.2768
 5418TIP3    H137745   1.518   1.249  14.050 -0.7940 -0.3434 -1.5547
 5418TIP3    H237746   1.600   1.362  13.993  1.0680 -0.4449  0.7236
 5419TIP3   OH237747   3.402   3.575   3.349 -0.0558  0.2232  0.3899
 5419TIP3    H137748   3.318   3.549   3.389 -0.7846  2.5412  0.5182
 5419TIP3    H237749   3.449   3.620   3.419  1.7847 -1.8876  0.6016
 5420TIP3   OH237750   2.793   2.154   3.123  0.4054  0.4480  0.1864
 5420TIP3    H137751   2.881   2.176   3.091  0.0838  0.0980 -0.9973
 5420TIP3    H237752   2.779   2.064   3.093 -0.7297  0.8279 -0.5011
 5421TIP3   OH237753   0.507   4.552   5.784 -0.4212  0.2126  0.2145
 5421TIP3    H137754   0.564   4.507   5.847 -0.0541 -0.1439 -0.3648
 5421TIP3    H237755   0.477   4.630   5.831 -0.1687 -0.0530  0.8398
 5422TIP3   OH237756   3.949   3.551   1.399  0.1546 -0.7469 -0.4959
 5422TIP3    H137757   3.873   3.494   1.392 -1.3701  0.0972  4.7423
 5422TIP3    H237758   4.020   3.493   1.427 -0.5218 -0.6990  1.4952
 5423TIP3   OH237759   4.162   5.815  11.694  0.3660 -0.0216 -0.3599
 5423TIP3    H137760   4.123   5.801  11.607  0.1951 -1.3681 -0.0939
 5423TIP3    H237761   4.087   5.818  11.753  0.5619 -1.0755 -0.0366
 5424TIP3   OH237762   4.458   3.469   5.607 -0.1832 -0.2467 -0.0721
 5424TIP3    H137763   4.491   3.415   5.535 -0.5685  0.4157 -0.7566
 5424TIP3    H237764   4.488   3.424   5.686  0.9451 -0.5422 -0.6506
 5425TIP3   OH237765   5.839   4.667  17.085  0.0736 -0.4632  0.3735
 5425TIP3    H137766   5.787   4.602  17.037 -1.2631  0.0665  1.0403
 5425TIP3    H237767   5.867   4.621  17.164 -1.4111 -0.1013  1.1590
 5426TIP3   OH237768   1.676   5.940   0.744  0.0072  0.1177  0.1448
 5426TIP3    H137769   1.622   6.018   0.729  1.4785  1.2726  0.5387
 5426TIP3    H237770   1.748   5.950   0.681  0.7498 -0.3907  0.9043
 5427TIP3   OH237771   6.562   3.600   5.440  0.2136  0.0091  0.2579
 5427TIP3    H137772   6.637   3.593   5.381  0.6823 -0.9634  0.9237
 5427TIP3    H237773   6.531   3.690   5.430 -1.1169 -0.6754 -3.1049
 5428TIP3   OH237774   0.401   2.338   1.936 -0.3189  0.0576 -0.3587
 5428TIP3    H137775   0.363   2.324   1.850  0.9152 -0.6564 -0.8046
 5428TIP3    H237776   0.411   2.433   1.943 -2.4429  0.3111 -0.0819
 5429TIP3   OH237777   0.705   2.675  11.551 -0.0521 -0.0883 -0.2925
 5429TIP3    H137778   0.667   2.736  11.488  0.4526  0.3217 -0.2091
 5429TIP3    H237779   0.720   2.728  11.630 -1.2094 -0.7320  0.3731
 5430TIP3   OH237780   0.526   6.081   0.155  0.2374  0.2899  0.0938
 5430TIP3    H137781   0.433   6.091   0.136  0.4544 -1.3570 -2.2252
 5430TIP3    H237782   0.568   6.084   0.069  2.1420 -0.8000  0.9425
 5431TIP3   OH237783   5.007   5.997  15.432 -0.1970  0.0531  0.4364
 5431TIP3    H137784   5.100   5.981  15.444  0.1909  0.5963 -1.5471
 5431TIP3    H237785   4.972   6.001  15.521  1.8980  1.1979  1.2818
 5432TIP3   OH237786   6.719   0.749  13.347 -0.1313 -0.0141 -0.1348
 5432TIP3    H137787   6.708   0.787  13.260 -2.6860 -0.6296 -0.1551
 5432TIP3    H237788   6.670   0.667  13.344  1.3841 -1.0511  1.3097
 5433TIP3   OH237789   5.541   6.015   4.221  0.2512  0.0374 -0.2703
 5433TIP3    H137790   5.528   6.092   4.165 -0.5746  0.6227  0.6903
 5433TIP3    H237791   5.576   6.051   4.303  0.6519 -0.7134 -0.1004
 5434TIP3   OH237792   2.516   0.975  10.383 -0.2004  0.1276 -0.0631
 5434TIP3    H137793   2.495   0.952  10.473 -1.9328 -1.1185 -0.7428
 5434TIP3    H237794   2.441   1.025  10.353 -0.6144 -1.2527 -1.4363
 5435TIP3   OH237795   0.165   3.281   0.988  0.4212 -0.0322  0.1536
 5435TIP3    H137796   0.226   3.251   1.056  1.0433  0.6519 -0.0889
 5435TIP3    H237797   0.197   3.368   0.963 -0.5023  0.2262 -0.1751
 5436TIP3   OH237798   1.933   4.679  16.714 -0.2260  0.0087  0.2094
 5436TIP3    H137799   1.896   4.611  16.657  1.9589 -0.5283 -0.6560
 5436TIP3    H237800   1.945   4.636  16.798  0.5210 -0.4974 -0.1481
 5437TIP3   OH237801   0.126   2.333  14.766 -0.1715 -0.0670  0.0609
 5437TIP3    H137802   0.155   2.403  14.825  1.5240 -2.2230  1.9635
 5437TIP3    H237803   0.079   2.272  14.823 -0.0195 -1.3865 -1.1861
 5438TIP3   OH237804   3.126   3.519   0.221 -0.0244  0.2490  0.2213
 5438TIP3    H137805   3.092   3.482   0.140 -0.9675  0.1653  0.6433
 5438TIP3    H237806   3.208   3.471   0.237 -0.5675 -0.7496  0.0798
 5439TIP3   OH237807   3.523   5.138  15.131 -0.2795 -0.8008  0.1119
 5439TIP3    H137808   3.592   5.185  15.177 -0.2042 -0.4349 -0.3593
 5439TIP3    H237809   3.569   5.082  15.069 -0.3990  0.4828 -1.2048
 5440TIP3   OH237810   5.081   5.954  11.968 -0.0908  0.2345  0.0676
 5440TIP3    H137811   5.132   5.878  11.998 -0.7417 -0.6696 -0.9943
 5440TIP3    H237812   4.990   5.922  11.965 -0.7026  1.6943  1.5630
 5441TIP3   OH237813   3.391   6.412  11.679  0.4740  0.5494  0.1397
 5441TIP3    H137814   3.352   6.392  11.763 -0.4159 -0.0067 -0.4021
 5441TIP3    H237815   3.463   6.472  11.700 -1.6202  2.9247  1.0263
 5442TIP3   OH237816   4.163   2.119   0.564  0.1187  0.1053 -0.4029
 5442TIP3    H137817   4.079   2.085   0.534 -1.1028  1.0821  1.6475
 5442TIP3    H237818   4.190   2.181   0.497 -1.6866  1.0440 -0.3351
 5443TIP3   OH237819   1.279   6.091  11.328  0.0269 -0.1420  0.5820
 5443TIP3    H137820   1.258   6.070  11.236 -0.9945  0.1491  0.7348
 5443TIP3    H237821   1.361   6.044  11.345 -0.9778 -2.1349  0.2224
 5444TIP3   OH237822   5.430   4.496  15.233  0.5735  0.2625 -0.4129
 5444TIP3    H137823   5.414   4.534  15.147 -1.6160 -2.2991 -1.2758
 5444TIP3    H237824   5.344   4.496  15.276  1.4943  0.9042  1.5567
 5445TIP3   OH237825   4.681   0.639   2.822  0.7105 -0.1387  0.1397
 5445TIP3    H137826   4.720   0.552   2.815  2.0070  0.3686  0.7124
 5445TIP3    H237827   4.656   0.646   2.915  0.5637  0.0811  0.0845
 5446TIP3   OH237828   6.026   4.090  15.537 -0.2330 -0.0151 -0.2285
 5446TIP3    H137829   5.990   4.052  15.617  0.9892  0.0736  0.3727
 5446TIP3    H237830   6.120   4.077  15.544  0.1708  2.4680 -0.3428
 5447TIP3   OH237831   2.165   0.571  11.331 -0.0955 -0.4218  0.0351
 5447TIP3    H137832   2.224   0.518  11.384 -0.4860  1.3734  2.4572
 5447TIP3    H237833   2.219   0.642  11.297  0.2346 -1.7558 -2.4469
 5448TIP3   OH237834   5.242   1.892  13.895  0.2313 -0.4004  0.0181
 5448TIP3    H137835   5.155   1.930  13.882  0.8067  1.0245  0.1100
 5448TIP3    H237836   5.233   1.800  13.869 -1.7810 -0.8047  1.8998
 5449TIP3   OH237837   0.357   5.449  17.250 -0.0166 -0.2246 -0.0778
 5449TIP3    H137838   0.314   5.509  17.190 -1.3211 -0.3136  0.7343
 5449TIP3    H237839   0.359   5.495  17.334 -0.5108 -1.0739  0.4170
 5450TIP3   OH237840   4.930   5.012   2.092 -0.0602  0.5514  0.7920
 5450TIP3    H137841   4.898   5.093   2.053 -0.4900 -0.8015 -1.8801
 5450TIP3    H237842   4.852   4.966   2.121 -0.1389 -0.3223 -0.7199
 5451TIP3   OH237843   0.502   2.670   1.263  0.5203 -0.5056  0.2095
 5451TIP3    H137844   0.470   2.602   1.322 -1.9810  0.0551 -0.3744
 5451TIP3    H237845   0.490   2.633   1.175  0.5533  0.1143 -0.0645
 5452TIP3   OH237846   1.537   0.552   1.566 -0.2831  0.1913 -0.3137
 5452TIP3    H137847   1.492   0.566   1.649 -1.2463  0.7488 -0.9086
 5452TIP3    H237848   1.588   0.632   1.553  0.2544 -0.1000 -0.0334
 5453TIP3   OH237849   0.123   4.177   4.731  0.9075  0.3494 -0.1293
 5453TIP3    H137850   0.052   4.129   4.775 -0.5187  1.9840 -0.5599
 5453TIP3    H237851   0.100   4.175   4.638  0.2013  2.7212 -0.0698
 5454TIP3   OH237852   5.573   0.517   4.190 -0.1930 -0.6666  0.0236
 5454TIP3    H137853   5.654   0.568   4.195 -0.9703  0.6476 -0.2546
 5454TIP3    H237854   5.513   0.563   4.249 -0.6917 -1.7420  0.3823
 5455TIP3   OH237855   6.358   6.734   2.517  0.3254 -0.4070 -0.3160
 5455TIP3    H137856   6.387   6.657   2.566 -0.3311 -1.8740 -2.1051
 5455TIP3    H237857   6.439   6.777   2.489  0.7710 -1.6667 -1.0561
 5456TIP3   OH237858   6.312   3.934  16.577  0.7695 -0.2306 -0.3507
 5456TIP3    H137859   6.282   4.011  16.625  0.0175  0.2487 -1.5295
 5456TIP3    H237860   6.301   3.861  16.638 -0.5154  0.3013  0.0888
 5457TIP3   OH237861   3.119   5.488  16.460  0.2561  0.4117 -0.5896
 5457TIP3    H137862   3.115   5.575  16.499 -0.8093 -0.2731  0.9278
 5457TIP3    H237863   3.028   5.458  16.460  0.8249 -1.4287  0.6511
 5458TIP3   OH237864   3.175   4.145  14.119 -0.2091  0.3183 -0.1273
 5458TIP3    H137865   3.259   4.107  14.093  0.3654  1.6491 -0.3187
 5458TIP3    H237866   3.115   4.121  14.049  0.2800  0.2675 -0.5378
 5459TIP3   OH237867   4.814   6.763  12.609 -0.2398 -0.1555  0.3114
 5459TIP3    H137868   4.870   6.838  12.587  1.6719 -1.7808 -0.6148
 5459TIP3    H237869   4.744   6.765  12.543 -0.5786  1.1419  0.6810
 5460TIP3   OH237870   1.623   0.197  14.462 -0.2780 -0.3578  0.2393
 5460TIP3    H137871   1.661   0.204  14.374 -0.5567 -0.5830  0.0970
 5460TIP3    H237872   1.618   0.103  14.479 -0.4265 -0.3207  0.4043
 5461TIP3   OH237873   3.148   4.911   5.132  0.2932  0.0096  0.5603
 5461TIP3    H137874   3.230   4.955   5.111 -0.5722  1.4370 -0.0020
 5461TIP3    H237875   3.144   4.837   5.071  0.7538  0.4521 -0.0118
 5462TIP3   OH237876   6.615   2.140   1.334  0.2506  0.7560 -0.1205
 5462TIP3    H137877   6.654   2.102   1.256 -0.6819 -2.9118  0.9943
 5462TIP3    H237878   6.635   2.234   1.328  1.5720  0.3914 -3.8631
 5463TIP3   OH237879   6.699   2.069   6.143 -0.2798  0.3448 -0.5251
 5463TIP3    H137880   6.677   2.162   6.135  0.3544  0.5344 -0.1573
 5463TIP3    H237881   6.702   2.053   6.238 -0.3641 -0.0456 -0.5865
 5464TIP3   OH237882   6.010   2.725  14.071 -0.1889 -0.3925  0.7146
 5464TIP3    H137883   5.974   2.804  14.029  1.2952  0.6239  1.2482
 5464TIP3    H237884   5.943   2.659  14.060 -1.7029  1.0881  0.6578
 5465TIP3   OH237885   3.997   6.304   2.888  0.2538 -0.3627  0.0819
 5465TIP3    H137886   3.936   6.256   2.831 -0.1907  0.0555  0.1969
 5465TIP3    H237887   3.968   6.395   2.882  2.1510  0.1906 -1.5071
 5466TIP3   OH237888   2.925   0.546  11.796 -0.4223 -0.2427  0.2675
 5466TIP3    H137889   2.873   0.624  11.817  1.6576  0.8554  1.7322
 5466TIP3    H237890   2.883   0.475  11.844 -0.3556  0.7066  1.8082
 5467TIP3   OH237891   2.960   0.112  14.910 -0.1759  0.2990 -0.2751
 5467TIP3    H137892   3.016   0.041  14.879 -0.3028  0.3562 -0.6330
 5467TIP3    H237893   3.001   0.191  14.874 -0.2497  0.3765 -0.1880
 5468TIP3   OH237894   6.168   1.752   2.226 -0.6658 -0.3022 -0.2832
 5468TIP3    H137895   6.184   1.846   2.223  0.9707 -0.5739 -1.0358
 5468TIP3    H237896   6.103   1.736   2.158  0.1116  0.0977 -1.1286
 5469TIP3   OH237897   2.732   0.551  15.868  0.2297  0.3744 -0.0621
 5469TIP3    H137898   2.658   0.603  15.839  0.1389 -0.4494 -1.3973
 5469TIP3    H237899   2.697   0.462  15.880  1.0668 -0.1447 -1.2206
 5470TIP3   OH237900   4.816   3.387   0.651  0.5112 -0.2272  0.1833
 5470TIP3    H137901   4.729   3.424   0.667 -0.5944 -2.6438  0.2847
 5470TIP3    H237902   4.872   3.426   0.717 -0.8838  0.1884  1.1512
 5471TIP3   OH237903   0.466   2.605   5.415  0.0729 -0.1230 -0.2806
 5471TIP3    H137904   0.555   2.618   5.383  1.3140 -0.2706  2.7633
 5471TIP3    H237905   0.435   2.527   5.369  2.0538 -0.8899 -0.4187
 5472TIP3   OH237906   2.139   1.993  15.882  0.2768 -0.2239  0.1507
 5472TIP3    H137907   2.052   2.024  15.859  0.1591  0.3722  1.3172
 5472TIP3    H237908   2.191   2.072  15.893  0.7894 -0.5521  0.1335
 5473TIP3   OH237909   2.245   0.179  13.614 -0.2400  0.2533  0.3401
 5473TIP3    H137910   2.233   0.092  13.652 -0.6651 -0.1004 -0.5725
 5473TIP3    H237911   2.157   0.210  13.596 -0.1407  1.2545  1.4357
 5474TIP3   OH237912   6.051   2.840   0.977 -0.4663  0.1728 -0.2197
 5474TIP3    H137913   6.142   2.832   0.947 -0.0751  1.7971  0.4113
 5474TIP3    H237914   6.039   2.766   1.037  0.5400  0.0984 -0.0830
 5475TIP3   OH237915   4.724   4.369  13.502 -0.1280  0.4656 -0.4761
 5475TIP3    H137916   4.791   4.326  13.448 -0.0402  0.1544 -0.1260
 5475TIP3    H237917   4.666   4.412  13.439 -1.6580 -2.1890 -1.0484
 5476TIP3   OH237918   0.824   3.064   1.903 -0.2738  0.8882  0.0399
 5476TIP3    H137919   0.849   3.126   1.972  0.1813 -1.0703  1.7311
 5476TIP3    H237920   0.742   3.026   1.933 -0.6416  0.7871 -1.0583
 5477TIP3   OH237921   4.527   0.740   0.681  0.0935 -0.4014  0.1393
 5477TIP3    H137922   4.495   0.814   0.733 -2.7165 -0.3935 -1.4506
 5477TIP3    H237923   4.572   0.781   0.607 -1.8663 -0.1928 -0.9897
 5478TIP3   OH237924   6.107   4.109  13.927 -0.2370  0.2599 -0.3250
 5478TIP3    H137925   6.170   4.131  13.858 -1.4471  0.3074 -1.4491
 5478TIP3    H237926   6.096   4.014  13.919 -0.5208  0.2923 -0.3001
 5479TIP3   OH237927   5.530   1.533  15.515 -0.2406 -0.5915 -0.1863
 5479TIP3    H137928   5.469   1.483  15.569 -0.3876 -1.6979 -1.3373
 5479TIP3    H237929   5.474   1.581  15.454 -0.0931  0.9071  0.8096
 5480TIP3   OH237930   6.504   5.476   2.368  0.9895 -0.3582 -0.1916
 5480TIP3    H137931   6.473   5.426   2.443  1.7530 -0.0121  0.3729
 5480TIP3    H237932   6.575   5.423   2.331 -0.2495 -1.1591 -1.4868
 5481TIP3   OH237933   5.332   2.686   5.398 -0.2356 -0.3371  0.8426
 5481TIP3    H137934   5.330   2.755   5.331  0.0537 -1.1006  0.0333
 5481TIP3    H237935   5.322   2.604   5.349  1.7049 -1.0506  1.5131
 5482TIP3   OH237936   4.363   4.534   2.197  0.2563 -0.4737  0.6820
 5482TIP3    H137937   4.338   4.565   2.284 -0.1915 -1.0862  0.7782
 5482TIP3    H237938   4.438   4.475   2.213  1.3256  0.7808  0.4674
 5483TIP3   OH237939   4.005   0.453  15.448  0.4251  0.1154  0.1723
 5483TIP3    H137940   3.910   0.461  15.461  0.7116  1.2411  1.8316
 5483TIP3    H237941   4.017   0.365  15.413 -1.3721  0.5562 -1.8117
 5484TIP3   OH237942   4.743   3.409   1.124  0.3145  0.2076  0.2433
 5484TIP3    H137943   4.693   3.476   1.171 -0.4004 -0.5633  0.6074
 5484TIP3    H237944   4.694   3.397   1.042  1.5450  1.5347 -0.7416
 5485TIP3   OH237945   4.060   5.404   2.471 -0.3764 -0.2425  0.3914
 5485TIP3    H137946   4.090   5.343   2.404 -1.1401  1.2314 -1.4049
 5485TIP3    H237947   4.051   5.351   2.550  1.0908 -1.9465 -0.5081
 5486TIP3   OH237948   1.090   0.043   3.658 -0.3411 -0.2811 -0.2989
 5486TIP3    H137949   1.010  -0.004   3.635 -0.8245  0.5538 -0.3596
 5486TIP3    H237950   1.060   0.124   3.699  0.4826 -0.2863  0.3455
 5487TIP3   OH237951   2.724   2.998  13.304  0.0724  0.0873 -0.1252
 5487TIP3    H137952   2.657   2.978  13.239 -0.2868 -0.7766  0.5009
 5487TIP3    H237953   2.791   3.047  13.256 -0.2688 -0.3943 -1.0928
 5488TIP3   OH237954   0.704   5.745   4.430  0.0361 -0.5786 -0.1180
 5488TIP3    H137955   0.630   5.771   4.374  1.6980 -0.9491 -2.6320
 5488TIP3    H237956   0.726   5.825   4.478  0.4187  0.6718 -2.2533
 5489TIP3   OH237957   2.436   6.406  16.338  0.8858 -0.1328 -0.4135
 5489TIP3    H137958   2.511   6.363  16.298 -0.5433 -1.5404 -1.6996
 5489TIP3    H237959   2.433   6.493  16.298  2.6284  0.4907  0.7231
 5490TIP3   OH237960   6.641   5.237  13.567  0.5584  0.5179 -0.0616
 5490TIP3    H137961   6.678   5.166  13.620  0.9259  0.4107 -0.4501
 5490TIP3    H237962   6.718   5.279  13.527  0.2860  0.6013 -0.4987
 5491TIP3   OH237963   2.329   5.042   5.301  0.4930  0.3799  0.2981
 5491TIP3    H137964   2.385   5.120   5.298  1.5546 -0.3896 -1.0045
 5491TIP3    H237965   2.242   5.076   5.322  0.7986  2.0192 -0.8796
 5492TIP3   OH237966   0.710   4.233   0.940  0.8859 -0.8054  0.5224
 5492TIP3    H137967   0.719   4.162   0.876 -2.1154 -1.2115  0.4056
 5492TIP3    H237968   0.703   4.312   0.887  0.1417 -0.9367  0.4139
 5493TIP3   OH237969   4.968   5.237   3.295 -0.4304  0.2755  0.5612
 5493TIP3    H137970   5.025   5.226   3.371 -2.6357 -1.4575  2.1170
 5493TIP3    H237971   4.950   5.331   3.291 -1.0566  0.3127  2.8787
 5494TIP3   OH237972   3.630   1.241  14.481 -0.3752 -0.2005 -0.2289
 5494TIP3    H137973   3.679   1.246  14.399 -2.6318 -0.7540 -1.7120
 5494TIP3    H237974   3.540   1.221  14.454 -1.3660  0.3469  2.3500
 5495TIP3   OH237975   5.245   4.463  15.866 -0.4495 -0.1192  0.2613
 5495TIP3    H137976   5.307   4.391  15.873 -0.2611 -0.3894 -2.8161
 5495TIP3    H237977   5.295   4.540  15.893  0.5567 -0.6181 -0.1441
 5496TIP3   OH237978   5.637   0.533  16.700  0.2044 -0.1046 -0.0694
 5496TIP3    H137979   5.578   0.478  16.648 -2.3699  0.0197  2.4582
 5496TIP3    H237980   5.584   0.610  16.721  1.3279  0.1135  2.1736
 5497TIP3   OH237981   0.076   4.346  14.270 -0.0394 -0.3009  0.1234
 5497TIP3    H137982   0.070   4.314  14.180 -1.6307  2.2932 -0.8115
 5497TIP3    H237983   0.090   4.440  14.261 -1.7082  0.2764  2.5378
 5498TIP3   OH237984   2.878   4.661   3.620 -0.1979  0.2235 -0.0857
 5498TIP3    H137985   2.952   4.687   3.674  0.9401 -0.2679 -1.3607
 5498TIP3    H237986   2.841   4.743   3.588  0.0076  0.4592  0.2781
 5499TIP3   OH237987   5.208   5.346   5.839 -0.2086  0.2632 -0.0268
 5499TIP3    H137988   5.281   5.291   5.869 -1.1886 -1.0782 -0.0047
 5499TIP3    H237989   5.179   5.392   5.917 -0.3738 -0.3888  0.3022
 5500TIP3   OH237990   5.092   5.914   4.231 -0.2950 -0.5639  0.3808
 5500TIP3    H137991   5.022   5.977   4.244 -0.7082 -0.1006 -3.0336
 5500TIP3    H237992   5.058   5.831   4.264 -2.6058 -0.3934 -1.3774
 5501TIP3   OH237993   3.680   2.258   1.158 -0.5212  0.1191  0.9652
 5501TIP3    H137994   3.692   2.338   1.107 -1.6350  1.1121  2.1733
 5501TIP3    H237995   3.756   2.255   1.216  0.1551 -0.3944  0.0833
 5502TIP3   OH237996   1.282   1.822  14.001 -0.3345 -0.3160  0.2668
 5502TIP3    H137997   1.290   1.772  14.082  2.0249 -1.2859 -0.4871
 5502TIP3    H237998   1.364   1.806  13.954 -2.2482 -1.2319 -3.1311
 5503TIP3   OH237999   3.559   6.751   4.072  0.3271 -0.0424 -0.2722
 5503TIP3    H138000   3.572   6.846   4.073  1.2443 -0.1301  1.7826
 5503TIP3    H238001   3.642   6.715   4.042  0.0199 -0.2043 -0.9347
 5504TIP3   OH238002   5.630   2.594   0.108  0.0657 -0.2630  0.0410
 5504TIP3    H138003   5.618   2.544   0.028 -0.5147  3.0323 -2.1268
 5504TIP3    H238004   5.544   2.594   0.150 -0.3250  0.1214 -0.7427
 5505TIP3   OH238005   5.305   1.359  16.509  0.0348  0.3495  0.1082
 5505TIP3    H138006   5.272   1.292  16.569  0.0292  0.6643  0.4639
 5505TIP3    H238007   5.391   1.327  16.481 -1.5348 -1.7568 -2.8450
 5506TIP3   OH238008   2.520   6.201   2.241  0.3663 -0.4213 -0.6943
 5506TIP3    H138009   2.547   6.112   2.265  0.2657 -0.3578 -0.3355
 5506TIP3    H238010   2.574   6.223   2.165  1.1813 -0.3663 -0.1065
 5507TIP3   OH238011   5.904   5.222  12.692  0.6315 -0.2483  0.3541
 5507TIP3    H138012   5.937   5.137  12.664  0.8728 -0.7510  2.0372
 5507TIP3    H238013   5.983   5.272  12.715  0.4395  0.0588  0.3560
 5508TIP3   OH238014   6.474   1.960   5.999  0.0377 -0.0595 -0.0101
 5508TIP3    H138015   6.550   2.014   5.975  0.6846 -1.5023 -1.3886
 5508TIP3    H238016   6.438   2.003   6.076  1.4524  1.4421 -0.1194
 5509TIP3   OH238017   3.893   2.139  11.699 -0.0759  0.7890  0.0698
 5509TIP3    H138018   3.928   2.050  11.709  2.3643  1.6711 -0.0988
 5509TIP3    H238019   3.938   2.174  11.623 -0.9467  2.2150  0.1866
 5510TIP3   OH238020   0.997   4.543   4.395 -0.2334  0.4867 -0.2369
 5510TIP3    H138021   1.077   4.540   4.448  0.4622 -0.7363 -1.2983
 5510TIP3    H238022   1.021   4.501   4.313 -2.4823 -1.6910  0.1079
 5511TIP3   OH238023   4.839   0.258   0.362 -0.0098  0.7748 -0.6119
 5511TIP3    H138024   4.818   0.346   0.393 -1.2811  0.4638 -0.5228
 5511TIP3    H238025   4.756   0.225   0.326  0.2447 -0.6561  0.0477
 5512TIP3   OH238026   6.532   1.856  11.152 -0.1874 -0.0590  0.2112
 5512TIP3    H138027   6.473   1.853  11.076 -0.5263 -2.7747  0.4652
 5512TIP3    H238028   6.596   1.924  11.130 -1.0943  0.2186 -1.8680
 5513TIP3   OH238029   6.245   3.612  16.543  0.3856 -0.0488  0.4986
 5513TIP3    H138030   6.297   3.532  16.545  0.8450  0.0856 -2.1352
 5513TIP3    H238031   6.303   3.676  16.501 -0.5343  1.2393  1.1359
 5514TIP3   OH238032   1.487   2.967   3.055  0.0116 -0.7987  0.0316
 5514TIP3    H138033   1.439   3.020   3.119 -1.4006 -2.7387  0.6726
 5514TIP3    H238034   1.552   2.920   3.106  0.5891 -0.4399 -0.3708
 5515TIP3   OH238035   2.970   6.633   2.479  0.7642  0.1480  0.6967
 5515TIP3    H138036   3.016   6.674   2.553 -0.3136 -0.8718  1.9652
 5515TIP3    H238037   2.877   6.642   2.500  0.3341  1.4243 -1.4243
 5516TIP3   OH238038   0.526   3.177   5.766 -0.2976  0.3489  0.2090
 5516TIP3    H138039   0.518   3.231   5.845  0.0739 -0.5785  0.8939
 5516TIP3    H238040   0.599   3.216   5.717 -0.4985  0.8975  0.3412
 5517TIP3   OH238041   3.959   2.789   5.173  0.3940 -0.3585 -0.0944
 5517TIP3    H138042   4.051   2.761   5.176  0.5819  0.2326 -0.1750
 5517TIP3    H238043   3.919   2.745   5.247  0.5864 -1.1572 -0.4548
 5518TIP3   OH238044   2.225   3.032   3.293 -0.7905  0.2016  0.3696
 5518TIP3    H138045   2.284   3.105   3.311 -0.1541 -0.5001  1.2676
 5518TIP3    H238046   2.168   3.027   3.369 -0.9606 -0.0999  0.2260
 5519TIP3   OH238047   4.206   6.757  11.880 -0.8206 -0.4115  0.3972
 5519TIP3    H138048   4.172   6.704  11.808  0.5013 -0.7537  0.0102
 5519TIP3    H238049   4.189   6.705  11.959 -1.4380 -0.4494  0.2440
 5520TIP3   OH238050   4.940   0.815   2.118 -0.2048 -0.1876 -0.0175
 5520TIP3    H138051   4.919   0.753   2.049 -2.1346  0.2123  0.1500
 5520TIP3    H238052   4.936   0.901   2.075  2.1910 -0.1094 -0.1913
 5521TIP3   OH238053   2.269   0.094  13.054  0.0422  0.4139  0.2316
 5521TIP3    H138054   2.309   0.068  13.137  0.0644  0.7689  0.3339
 5521TIP3    H238055   2.317   0.043  12.988 -1.5206 -1.6825  0.5837
 5522TIP3   OH238056   3.410   1.750  16.634  0.6026 -0.4826 -0.1897
 5522TIP3    H138057   3.343   1.808  16.670  0.9683 -0.5209  0.5772
 5522TIP3    H238058   3.470   1.809  16.587 -0.3795 -0.5352 -1.5664
 5523TIP3   OH238059   3.333   0.349  11.372 -1.0347  0.0352 -0.0324
 5523TIP3    H138060   3.385   0.321  11.297 -1.9299 -0.7002 -0.3943
 5523TIP3    H238061   3.356   0.287  11.442 -0.0301  0.8570  0.3946
 5524TIP3   OH238062   6.173   6.681   2.932 -0.2966  0.6389 -0.0499
 5524TIP3    H138063   6.135   6.709   2.849  0.7498  1.2486 -0.3438
 5524TIP3    H238064   6.245   6.623   2.906 -1.5482 -1.2796  0.5123
 5525TIP3   OH238065   3.377   3.905   0.129 -0.4439  0.3154  0.0707
 5525TIP3    H138066   3.352   3.979   0.185 -1.9326  1.2442 -1.7121
 5525TIP3    H238067   3.454   3.867   0.172 -0.7393  1.7662  2.0100
 5526TIP3   OH238068   0.035   1.161   4.523  0.6160  0.5884 -0.3533
 5526TIP3    H138069   0.052   1.115   4.441  0.6047  0.5418 -0.3293
 5526TIP3    H238070   0.121   1.167   4.566  0.1534 -2.5024  1.2956
 5527TIP3   OH238071   0.035   1.468  12.045 -0.6445 -0.4672 -0.5161
 5527TIP3    H138072  -0.057   1.445  12.031 -1.0468  1.7341 -1.9784
 5527TIP3    H238073   0.049   1.545  11.990  1.9075 -0.3285  0.2110
 5528TIP3   OH238074   3.151   5.532   3.681  0.0882  0.0351  0.1408
 5528TIP3    H138075   3.108   5.560   3.762 -0.6235  0.7783 -0.4764
 5528TIP3    H238076   3.245   5.531   3.703 -0.1928 -1.2516  1.3923
 5529TIP3   OH238077   3.329   4.566   2.761  0.1544  0.1952  0.0236
 5529TIP3    H138078   3.243   4.576   2.720  0.0334 -1.3934 -0.1677
 5529TIP3    H238079   3.339   4.472   2.771  0.8712  0.4656  2.2123
 5530TIP3   OH238080   0.124   1.169   0.779 -0.1638 -0.0196 -0.0629
 5530TIP3    H138081   0.214   1.163   0.812  0.1201 -0.9657 -0.9513
 5530TIP3    H238082   0.131   1.227   0.702 -0.3612  0.1111  0.0168
 5531TIP3   OH238083   1.050   4.481  10.700 -0.3028  0.1231 -0.1975
 5531TIP3    H138084   0.995   4.415  10.744  0.4350  0.2795  1.0038
 5531TIP3    H238085   1.138   4.465  10.734  0.2885  0.2884 -1.6188
 5532TIP3   OH238086   5.778   1.824   1.491  0.0599 -0.5299 -0.4688
 5532TIP3    H138087   5.687   1.825   1.519 -0.4546  0.6107 -2.0399
 5532TIP3    H238088   5.809   1.736   1.513 -2.1219 -1.7892 -1.9953
 5533TIP3   OH238089   0.448   2.160   0.866 -0.8292  0.6767  0.3628
 5533TIP3    H138090   0.400   2.099   0.922 -0.9808  1.1647  0.7667
 5533TIP3    H238091   0.528   2.179   0.915  1.1258 -2.1903 -1.4286
 5534TIP3   OH238092   2.511   1.291  15.894  0.1347  0.3650 -0.1766
 5534TIP3    H138093   2.579   1.354  15.869 -0.3363 -0.1635 -3.2660
 5534TIP3    H238094   2.560   1.213  15.921  0.7124  1.7432  3.2142
 5535TIP3   OH238095   5.942   5.696  12.518 -0.9125  0.7552  0.3386
 5535TIP3    H138096   5.874   5.749  12.478 -1.1520  0.9578  1.0048
 5535TIP3    H238097   5.895   5.638  12.578 -0.6088  0.0985 -0.0398
 5536TIP3   OH238098   2.805   5.917  12.656  0.2035 -0.6485  0.2501
 5536TIP3    H138099   2.774   6.005  12.632 -0.0519 -1.2286 -1.6912
 5536TIP3    H238100   2.726   5.871  12.685  0.1984 -0.5002  0.4772
 5537TIP3   OH238101   0.798   2.372   1.649  0.3570 -0.1346  0.3589
 5537TIP3    H138102   0.720   2.397   1.699  0.3019  1.6946 -0.5801
 5537TIP3    H238103   0.764   2.315   1.580  0.1276 -0.8493  1.0455
 5538TIP3   OH238104   1.581   0.244   6.005  0.4959 -0.1244  0.4189
 5538TIP3    H138105   1.577   0.153   6.037 -0.0433  0.0169  0.7639
 5538TIP3    H238106   1.499   0.256   5.957  0.3202  0.3411  0.8234
 5539TIP3   OH238107   2.453   0.303  13.108 -0.2549  0.0211  0.3587
 5539TIP3    H138108   2.535   0.254  13.104 -0.2288  0.1233 -0.5770
 5539TIP3    H238109   2.386   0.240  13.079 -0.6502 -0.3316  1.9528
 5540TIP3   OH238110   0.030   1.570  12.380  0.7789  0.2539 -0.3247
 5540TIP3    H138111   0.007   1.481  12.406 -0.7679  0.4916 -0.8060
 5540TIP3    H238112  -0.023   1.587  12.303  2.3311  0.9972 -1.2797
 5541TIP3   OH238113   0.939   4.246   4.844  0.2263  0.1951 -0.7659
 5541TIP3    H138114   0.984   4.162   4.852  0.1634  0.1666 -0.7075
 5541TIP3    H238115   0.904   4.263   4.932  1.0183  0.7195 -0.5412
 5542TIP3   OH238116   1.513   6.707  14.183 -0.1705 -0.1334 -0.1174
 5542TIP3    H138117   1.553   6.793  14.172  0.6389 -0.5243 -0.2859
 5542TIP3    H238118   1.445   6.721  14.250  0.7860  0.3772  0.7743
 5543TIP3   OH238119   3.638   4.594  14.333 -0.2051 -0.1227 -0.4406
 5543TIP3    H138120   3.609   4.681  14.304 -1.9660 -0.6684 -0.4177
 5543TIP3    H238121   3.728   4.608  14.364  0.2289  1.3164 -2.1684
 5544TIP3   OH238122   5.984   1.531  15.700  0.2147 -0.4326 -0.1680
 5544TIP3    H138123   6.048   1.474  15.658  0.8239 -0.0699  0.2598
 5544TIP3    H238124   5.925   1.555  15.629  2.2014  1.5364 -1.2838
 5545TIP3   OH238125   5.033   2.688  14.867  0.3036  0.4732 -0.3697
 5545TIP3    H138126   4.982   2.730  14.936  0.1018  1.3058 -1.0086
 5545TIP3    H238127   4.968   2.639  14.817  0.2810  0.7237 -0.5887
 5546TIP3   OH238128   4.118   3.927  12.544  0.1110  0.2224 -0.3226
 5546TIP3    H138129   4.164   3.971  12.616  2.4729 -1.8306 -0.4277
 5546TIP3    H238130   4.126   3.988  12.471  2.3116  0.2083 -0.1720
 5547TIP3   OH238131   2.539   5.226   6.207  0.3976  0.1138  0.1872
 5547TIP3    H138132   2.568   5.240   6.297  0.4962 -0.8710  0.3229
 5547TIP3    H238133   2.500   5.139   6.207  1.1208 -0.2473 -0.8867
 5548TIP3   OH238134   0.948   5.378   5.039  0.5342 -0.2499  0.0200
 5548TIP3    H138135   0.944   5.283   5.044  3.0727 -0.4097  1.0044
 5548TIP3    H238136   0.971   5.397   4.948 -2.5500 -0.3341 -0.8604
 5549TIP3   OH238137   3.817   2.416   5.097  0.1694 -0.0218 -0.4248
 5549TIP3    H138138   3.812   2.353   5.170 -2.1631 -0.8733 -1.2087
 5549TIP3    H238139   3.725   2.437   5.079  0.7133  0.4618 -2.8584
 5550TIP3   OH238140   6.642   4.887  17.024  0.1270 -0.0148 -0.6895
 5550TIP3    H138141   6.602   4.801  17.034  2.5525 -1.1772  0.0216
 5550TIP3    H238142   6.662   4.915  17.114  1.0134  0.4039 -0.9997
 5551TIP3   OH238143   3.358   4.306  11.405 -0.0730  0.1288 -0.0634
 5551TIP3    H138144   3.301   4.375  11.438 -0.1174  1.0553 -1.9413
 5551TIP3    H238145   3.321   4.283  11.320  0.0042 -2.1635  0.4618
 5552TIP3   OH238146   6.401   0.628   4.525 -0.5627 -0.0128  0.6356
 5552TIP3    H138147   6.375   0.539   4.504 -2.1277  0.2502  1.3678
 5552TIP3    H238148   6.415   0.628   4.620  1.5582  0.0365  0.3923
 5553TIP3   OH238149   2.029   6.657   2.416  0.0504  0.2284  0.4446
 5553TIP3    H138150   2.053   6.624   2.330  0.7362  0.3793  0.5760
 5553TIP3    H238151   2.040   6.583   2.475 -0.1591  0.1997  0.4513
 5554TIP3   OH238152   0.672   2.426  11.664 -0.8391  0.0204  0.0366
 5554TIP3    H138153   0.696   2.506  11.617  0.2472 -1.0292 -1.2515
 5554TIP3    H238154   0.605   2.455  11.726 -1.8085  1.5964 -1.6370
 5555TIP3   OH238155   0.919   6.788  11.948 -0.5148  0.1790  0.0467
 5555TIP3    H138156   0.893   6.795  12.040 -0.1137 -0.4820  0.2229
 5555TIP3    H238157   0.877   6.707  11.918 -1.7894  1.0933 -0.7636
 5556TIP3   OH238158   2.842   2.916  11.861  0.0239 -0.3024  0.0842
 5556TIP3    H138159   2.875   2.941  11.947  1.5816  2.0441 -1.0694
 5556TIP3    H238160   2.811   2.998  11.823  2.7351 -0.4309 -2.9029
 5557TIP3   OH238161   3.036   3.614   0.728 -0.0493  0.5217 -0.5229
 5557TIP3    H138162   2.942   3.595   0.733  0.2310 -1.3445 -1.3696
 5557TIP3    H238163   3.055   3.612   0.635  1.1533 -0.9848 -0.2743
 5558TIP3   OH238164   2.232   3.574  16.141  0.5398  0.6728  0.6021
 5558TIP3    H138165   2.276   3.501  16.098 -0.9377  0.5160 -0.6893
 5558TIP3    H238166   2.196   3.537  16.222  0.0349  0.0310  0.0889
 5559TIP3   OH238167   1.133   0.765  11.837  0.0709 -0.3493 -0.6302
 5559TIP3    H138168   1.151   0.701  11.905  2.3725 -0.2299 -1.0669
 5559TIP3    H238169   1.163   0.848  11.873 -2.8067  0.5582 -0.0976
 5560TIP3   OH238170   5.895   2.107   1.407 -0.5171  0.1984 -0.3343
 5560TIP3    H138171   5.829   2.042   1.432 -0.2415  0.0237 -0.0487
 5560TIP3    H238172   5.868   2.137   1.321  0.3467 -1.6669 -1.3232
 5561TIP3   OH238173   0.692   2.259   0.145 -0.2710 -0.4411 -0.0324
 5561TIP3    H138174   0.709   2.220   0.231 -2.3991  0.3066  0.7974
 5561TIP3    H238175   0.612   2.217   0.114 -1.0497  1.1782 -0.3763
 5562TIP3   OH238176   4.634   0.699   0.212 -0.3052  0.1679 -0.3801
 5562TIP3    H138177   4.583   0.657   0.143 -1.5516 -1.1601  1.2876
 5562TIP3    H238178   4.667   0.627   0.266  1.7304  1.1070 -0.2754
 5563TIP3   OH238179   0.893   3.143   3.358 -0.2488  0.6654 -0.1258
 5563TIP3    H138180   0.972   3.180   3.398  1.2959 -0.4543 -2.0080
 5563TIP3    H238181   0.872   3.067   3.413  1.1204 -0.1323 -0.6521
 5564TIP3   OH238182   1.422   4.254  14.484 -0.0121 -0.2706  0.1289
 5564TIP3    H138183   1.351   4.275  14.544 -0.7827 -0.1706 -0.7982
 5564TIP3    H238184   1.458   4.172  14.517 -0.5775 -0.3459  0.5793
 5565TIP3   OH238185   3.971   0.500   2.261  0.3027  0.1414  0.4366
 5565TIP3    H138186   3.979   0.583   2.213  0.3891  0.9442  1.7789
 5565TIP3    H238187   4.022   0.438   2.209  1.5001  1.2873  0.1788
 5566TIP3   OH238188   1.215   3.814  14.112 -0.2915  0.1716 -0.7055
 5566TIP3    H138189   1.261   3.875  14.170  2.0710 -2.4826  0.4774
 5566TIP3    H238190   1.128   3.805  14.150  0.2779  0.6300  0.7793
 5567TIP3   OH238191   1.822   1.865   0.258 -0.3730 -0.3187 -0.1609
 5567TIP3    H138192   1.832   1.770   0.248  1.0391 -0.2618  0.4893
 5567TIP3    H238193   1.876   1.902   0.188  0.8283  0.0000  0.9109
 5568TIP3   OH238194   0.627   0.419   2.103 -0.0307  0.8274 -0.6740
 5568TIP3    H138195   0.646   0.327   2.122  0.9850  1.3170  0.9151
 5568TIP3    H238196   0.536   0.420   2.073 -0.4826 -0.5479  0.5579
 5569TIP3   OH238197   6.042   2.642  12.509  0.2344 -0.0380  0.2515
 5569TIP3    H138198   5.957   2.608  12.479  0.5794 -0.5483 -0.1722
 5569TIP3    H238199   6.100   2.566  12.506  0.7955  0.3903  0.1792
 5570TIP3   OH238200   2.245   4.823   2.047  0.1427  0.0746 -0.0662
 5570TIP3    H138201   2.215   4.852   2.133  0.4856  2.7121 -0.7380
 5570TIP3    H238202   2.181   4.859   1.986  1.1621  0.2544 -1.0678
 5571TIP3   OH238203   1.308   6.024  10.722 -0.2053 -0.4475 -0.3070
 5571TIP3    H138204   1.374   6.090  10.700 -1.4618  0.5733 -1.2027
 5571TIP3    H238205   1.331   5.948  10.669  0.2538 -0.0858 -0.6346
 5572TIP3   OH238206   6.748   2.205  14.557 -0.0325  0.5174 -0.7780
 5572TIP3    H138207   6.807   2.205  14.481  1.8671 -2.6407  0.4769
 5572TIP3    H238208   6.806   2.222  14.631 -1.2775  0.3068  0.2665
 5573TIP3   OH238209   1.118   2.790  16.945 -0.5359  0.6349  0.4107
 5573TIP3    H138210   1.111   2.862  17.008  0.0615  0.0477  1.1773
 5573TIP3    H238211   1.123   2.833  16.860  1.7240  1.6328  0.9603
 5574TIP3   OH238212   5.049   4.267   0.823  0.5388 -0.7466  0.0760
 5574TIP3    H138213   5.001   4.349   0.808  2.2707  0.3347  0.2339
 5574TIP3    H238214   4.987   4.212   0.873 -1.6158 -0.5841 -2.2252
 5575TIP3   OH238215   1.599   4.227  11.488 -0.1670  0.1260  0.5627
 5575TIP3    H138216   1.681   4.265  11.520  0.5464 -0.7282 -0.2030
 5575TIP3    H238217   1.564   4.293  11.428 -0.0404  0.4877  0.8806
 5576TIP3   OH238218   2.017   4.447  16.025 -0.0139  1.1721  0.0281
 5576TIP3    H138219   2.001   4.520  15.966 -1.0243  2.4230  1.7423
 5576TIP3    H238220   2.061   4.486  16.101 -3.8550  0.8681  2.6898
 5577TIP3   OH238221   6.484   3.995   3.679 -0.4526 -0.1150 -0.1594
 5577TIP3    H138222   6.523   3.911   3.656  0.7284 -0.3074  2.1927
 5577TIP3    H238223   6.505   4.053   3.605  0.6000 -1.3287 -0.8447
 5578TIP3   OH238224   5.167   5.119  14.885  0.9191  0.2103 -0.2074
 5578TIP3    H138225   5.203   5.079  14.964  1.8180 -2.3682 -1.7884
 5578TIP3    H238226   5.084   5.073  14.871 -0.3010  2.1544  0.3370
 5579TIP3   OH238227   2.424   5.161  14.946 -0.2052  0.8160 -0.1797
 5579TIP3    H138228   2.488   5.110  14.896 -0.2931 -0.7028  1.1571
 5579TIP3    H238229   2.379   5.214  14.881 -0.0759 -0.8164 -1.6688
 5580TIP3   OH238230   2.117   1.433   6.247  0.2923 -0.2932 -0.1646
 5580TIP3    H138231   2.118   1.338   6.231  0.0904 -0.3937  0.4006
 5580TIP3    H238232   2.182   1.446   6.317  1.4330  0.1862 -1.2754
 5581TIP3   OH238233   4.709   2.693   4.986  0.1662  0.1697 -0.1684
 5581TIP3    H138234   4.624   2.652   4.970  0.3825 -0.0801 -0.6934
 5581TIP3    H238235   4.690   2.787   4.985 -0.4027  0.1009  1.4750
 5582TIP3   OH238236   1.521   2.772  16.208 -0.0044 -0.1645 -0.3627
 5582TIP3    H138237   1.558   2.856  16.181  1.5936 -1.1230 -1.3326
 5582TIP3    H238238   1.449   2.795  16.266  1.9217  1.8681  1.4118
 5583TIP3   OH238239   2.208   4.220  11.655 -0.1126  1.2432  0.9555
 5583TIP3    H138240   2.276   4.170  11.611 -2.5742 -0.0248 -1.7265
 5583TIP3    H238241   2.194   4.175  11.738  0.1841 -0.4019  0.1454
 5584TIP3   OH238242   1.713   3.291  16.007 -0.2185  0.9532  0.0988
 5584TIP3    H138243   1.784   3.286  16.071  0.4888 -0.0624 -0.7400
 5584TIP3    H238244   1.674   3.377  16.021 -0.1008  0.7436  1.9063
 5585TIP3   OH238245   5.217   2.469   0.344 -0.2176  0.3554  0.2713
 5585TIP3    H138246   5.293   2.411   0.350  0.6254  1.4749  0.7492
 5585TIP3    H238247   5.148   2.414   0.306  1.3224 -0.2123 -1.8551
 5586TIP3   OH238248   0.063   1.278  13.639  0.1671  0.0629  0.3669
 5586TIP3    H138249  -0.012   1.239  13.683  0.4352 -0.7303  0.1217
 5586TIP3    H238250   0.094   1.211  13.578  1.7255 -0.0418  1.2202
 5587TIP3   OH238251   3.764   4.166   1.628  0.0160  0.4918  0.2878
 5587TIP3    H138252   3.766   4.150   1.722  0.6748  1.1184  0.3884
 5587TIP3    H238253   3.680   4.210   1.613 -0.4743 -0.3516  0.4397
 5588TIP3   OH238254   2.426   2.186   0.643  0.0170 -0.3002 -0.3546
 5588TIP3    H138255   2.377   2.215   0.566  1.6730  2.6060 -0.4697
 5588TIP3    H238256   2.358   2.172   0.710 -1.1912  3.1957 -0.6102
 5589TIP3   OH238257   5.791   1.547   4.624 -0.0485  0.4889 -0.1147
 5589TIP3    H138258   5.759   1.486   4.691  0.3248  1.6797  1.2047
 5589TIP3    H238259   5.860   1.597   4.668  0.3822  1.1509 -1.4731
 5590TIP3   OH238260   0.877   2.293  14.447 -0.2069 -0.1280  0.4622
 5590TIP3    H138261   0.832   2.362  14.495 -2.2053 -1.5104  0.6925
 5590TIP3    H238262   0.832   2.290  14.362  1.0078 -0.0199 -0.2082
 5591TIP3   OH238263   6.776   3.719  15.150 -0.3388  0.1073 -0.1107
 5591TIP3    H138264   6.756   3.754  15.236  0.6766  1.6246 -0.4519
 5591TIP3    H238265   6.863   3.679  15.159 -0.7403 -0.8103 -0.1574
 5592TIP3   OH238266   3.954   6.009  16.609  0.0839  0.6293  0.1079
 5592TIP3    H138267   3.958   6.097  16.571  0.1350  0.8524  0.6323
 5592TIP3    H238268   3.913   5.956  16.541  1.4303  0.7346 -0.8314
 5593TIP3   OH238269   2.812   4.325  14.825  0.0269 -1.0737 -0.4284
 5593TIP3    H138270   2.874   4.290  14.762  0.4740  0.0886 -0.6648
 5593TIP3    H238271   2.864   4.386  14.878 -1.0753  0.6750 -1.2650
 5594TIP3   OH238272   0.541   1.519  13.898  0.3886 -0.3134  0.3982
 5594TIP3    H138273   0.480   1.579  13.854  1.5129  1.9016  1.6297
 5594TIP3    H238274   0.494   1.436  13.904 -1.2277  0.3895 -1.5214
 5595TIP3   OH238275   2.497   5.566  16.234  0.0810 -0.4107 -0.0472
 5595TIP3    H138276   2.487   5.620  16.155 -0.6642 -0.6811 -0.1501
 5595TIP3    H238277   2.448   5.486  16.214  0.0612 -0.5689  0.6188
 5596TIP3   OH238278   0.777   1.771  16.183 -0.1002  0.0115 -0.2943
 5596TIP3    H138279   0.686   1.803  16.186 -1.5073 -3.5431 -0.1331
 5596TIP3    H238280   0.810   1.784  16.272 -1.4563 -1.1394  0.4110
 5597TIP3   OH238281   1.912   4.434   3.603 -0.2548 -0.6117 -0.0885
 5597TIP3    H138282   1.983   4.465   3.658 -0.8725 -0.7063  0.7845
 5597TIP3    H238283   1.864   4.373   3.658 -0.8879 -0.7124 -0.7348
 5598TIP3   OH238284   5.394   3.598  16.889 -0.6166 -0.0386 -0.1295
 5598TIP3    H138285   5.373   3.691  16.897 -1.2271 -0.2325  0.6540
 5598TIP3    H238286   5.488   3.596  16.874 -0.8099  0.7618 -1.5910
 5599TIP3   OH238287   5.875   6.609  11.653  0.3150 -0.4431  0.5236
 5599TIP3    H138288   5.954   6.655  11.624  0.5845 -0.0283  1.8531
 5599TIP3    H238289   5.806   6.675  11.648  0.6877  0.1421  2.3613
 5600TIP3   OH238290   1.911   2.666  12.402  0.5797 -0.3825 -0.3126
 5600TIP3    H138291   1.852   2.736  12.432  0.6984 -0.1265 -0.6737
 5600TIP3    H238292   1.872   2.636  12.320 -0.4031 -1.8861  0.6422
 5601TIP3   OH238293   6.195   5.999   1.569 -0.5539  0.4947 -0.0601
 5601TIP3    H138294   6.173   5.938   1.639  0.0890  0.4755  0.1324
 5601TIP3    H238295   6.162   6.084   1.599 -0.2792  0.4870  0.2704
 5602TIP3   OH238296   2.971   1.621  11.933 -0.2037 -0.7180  0.1133
 5602TIP3    H138297   3.028   1.576  11.870  1.7252  0.8367  0.6296
 5602TIP3    H238298   2.901   1.558  11.951  0.4914 -2.1353 -1.7351
 5603TIP3   OH238299   2.125   5.602   1.639 -0.4800  0.0769 -0.4869
 5603TIP3    H138300   2.043   5.553   1.635 -0.6577  0.3950 -0.8165
 5603TIP3    H238301   2.110   5.678   1.582 -0.8720  1.4885  1.4020
 5604TIP3   OH238302   5.189   0.971   1.526 -0.3984  1.0990  0.2458
 5604TIP3    H138303   5.282   0.950   1.525 -0.6657 -0.4454  2.2767
 5604TIP3    H238304   5.157   0.936   1.608 -2.9403  0.9990 -0.6930
 5605TIP3   OH238305   2.889   0.007   3.085 -0.0909 -0.2518  0.0103
 5605TIP3    H138306   2.889  -0.071   3.028  0.1006  0.6375 -1.2476
 5605TIP3    H238307   2.827   0.067   3.043  0.1099  0.4617  0.7133
 5606TIP3   OH238308   3.463   5.323   4.159 -0.5038  0.3531  0.3334
 5606TIP3    H138309   3.480   5.373   4.239  0.7216  0.7972 -0.1774
 5606TIP3    H238310   3.431   5.389   4.097 -3.4755 -0.3264  1.0232
 5607TIP3   OH238311   3.859   2.301   0.740 -0.0516  0.4134  0.0659
 5607TIP3    H138312   3.788   2.363   0.758  0.6666  1.0572  0.7702
 5607TIP3    H238313   3.879   2.262   0.825  0.5778  0.4001 -0.0812
 5608TIP3   OH238314   3.450   5.369   4.633  0.1132  0.3514 -0.3350
 5608TIP3    H138315   3.510   5.324   4.573  0.4580 -0.1463  0.3760
 5608TIP3    H238316   3.375   5.392   4.578  0.1312 -0.6869 -0.8068
 5609TIP3   OH238317   4.474   2.956   2.666 -0.2861  0.8395 -0.3808
 5609TIP3    H138318   4.561   2.996   2.667  0.8355 -1.4527 -0.2377
 5609TIP3    H238319   4.419   3.017   2.715  0.6804  3.4274 -2.2867
 5610TIP3   OH238320   6.772   5.652  11.667  0.7247 -0.1555  0.0222
 5610TIP3    H138321   6.747   5.569  11.707 -0.2010 -0.6005 -1.4238
 5610TIP3    H238322   6.704   5.669  11.602  1.4346  1.2408 -0.3885
 5611TIP3   OH238323   1.908   6.365  10.632  0.1819 -0.7229  0.1488
 5611TIP3    H138324   1.882   6.390  10.720  0.4918 -0.0269  0.0543
 5611TIP3    H238325   1.994   6.405  10.620  0.3323 -1.1761 -0.3100
 5612TIP3   OH238326   3.871   4.451   1.500 -0.1383 -0.3312  0.3287
 5612TIP3    H138327   3.818   4.530   1.508  2.1702  1.3148  0.6058
 5612TIP3    H238328   3.834   4.390   1.564 -1.8216  0.5943  0.2958
 5613TIP3   OH238329   2.621   2.749   3.670  0.4049 -0.1664  0.5676
 5613TIP3    H138330   2.667   2.813   3.724 -0.2124  0.3370  0.5074
 5613TIP3    H238331   2.648   2.769   3.581 -1.2305  1.2725  0.3402
 5614TIP3   OH238332   2.390   4.055   6.002 -0.0242 -0.3589 -0.0425
 5614TIP3    H138333   2.348   4.010   6.075 -0.7473  2.6782  1.5984
 5614TIP3    H238334   2.452   4.116   6.043  0.6393  0.4338 -2.0512
 5615TIP3   OH238335   1.798   5.273  13.446  0.3377  0.5755  0.3056
 5615TIP3    H138336   1.715   5.226  13.452  0.4741  0.3230  0.2330
 5615TIP3    H238337   1.774   5.360  13.415  0.3347 -0.3346 -2.5622
 5616TIP3   OH238338   4.175   2.215  14.545  0.3665  0.2361  0.1718
 5616TIP3    H138339   4.161   2.181  14.634 -2.1620  0.6169 -0.0013
 5616TIP3    H238340   4.167   2.138  14.489  0.2585  0.2599  0.1546
 5617TIP3   OH238341   0.897   5.606  16.733  0.3078 -0.0168 -1.0111
 5617TIP3    H138342   0.820   5.549  16.730  0.0522  0.3588 -1.6590
 5617TIP3    H238343   0.862   5.694  16.719  0.2962  0.7391  2.6325
 5618TIP3   OH238344   5.518   5.201  11.227  0.3709 -0.8553 -0.0013
 5618TIP3    H138345   5.448   5.256  11.191 -1.1277 -1.7019  1.4774
 5618TIP3    H238346   5.510   5.210  11.322  1.7051 -1.6943  0.2207
 5619TIP3   OH238347   1.599   6.052   3.988 -0.6682 -0.7839 -0.1597
 5619TIP3    H138348   1.663   6.069   4.058 -1.5038  0.7151  0.2808
 5619TIP3    H238349   1.588   5.957   3.989 -1.1758 -0.7574  2.2368
 5620TIP3   OH238350   6.678   0.820  10.472  0.0630 -0.4748 -0.0217
 5620TIP3    H138351   6.693   0.881  10.544 -0.7686 -0.3051  0.0198
 5620TIP3    H238352   6.628   0.870  10.408 -1.4349 -1.3408  0.4111
 5621TIP3   OH238353   0.167   3.310   0.039  0.3551  0.2315  0.1303
 5621TIP3    H138354   0.243   3.323   0.096  1.7690  0.0474 -1.6198
 5621TIP3    H238355   0.139   3.220   0.056  1.2893 -0.1041 -0.0321
 5622TIP3   OH238356   4.243   3.788   2.268 -0.3350  0.9803  0.1535
 5622TIP3    H138357   4.276   3.826   2.186 -1.5355  0.3192 -0.6645
 5622TIP3    H238358   4.310   3.723   2.292 -0.9769 -0.4017 -1.5285
 5623TIP3   OH238359   1.703   4.240  12.939  0.3462  0.2771 -0.3602
 5623TIP3    H138360   1.660   4.319  12.907  0.2671 -0.1408 -1.3175
 5623TIP3    H238361   1.771   4.272  12.998 -0.7012  0.9858  0.5094
 5624TIP3   OH238362   1.613   5.419   2.775  0.0776  0.0269 -0.8418
 5624TIP3    H138363   1.602   5.327   2.798 -0.8452  0.1666 -0.6619
 5624TIP3    H238364   1.535   5.439   2.722  0.5267  0.5688 -1.3101
 5625TIP3   OH238365   6.408   4.603  16.524 -0.0440  0.0935  0.2327
 5625TIP3    H138366   6.327   4.596  16.473 -0.4190  0.3356  0.7778
 5625TIP3    H238367   6.418   4.697  16.539 -0.0060  0.0148  0.7047
 5626TIP3   OH238368   1.750   1.532  13.512 -0.3935  0.1383 -1.0692
 5626TIP3    H138369   1.823   1.591  13.532 -0.0633 -0.5276 -0.2457
 5626TIP3    H238370   1.691   1.541  13.586 -1.4698  1.1089 -2.0003
 5627TIP3   OH238371   3.743   0.630   0.393  0.4980  0.7460 -0.2505
 5627TIP3    H138372   3.660   0.673   0.370 -0.1074  0.0687  0.5845
 5627TIP3    H238373   3.758   0.655   0.484 -0.4592 -1.6198  0.6475
 5628TIP3   OH238374   6.036   3.049   2.923 -0.3326  0.5558 -0.3202
 5628TIP3    H138375   6.079   3.118   2.974 -1.2312  0.5613  0.4546
 5628TIP3    H238376   5.958   3.026   2.974 -1.1119  0.3588 -1.5630
 5629TIP3   OH238377   1.245   5.410  11.892 -0.4406  0.8184 -0.1239
 5629TIP3    H138378   1.272   5.380  11.805  0.0891  1.9527 -0.3697
 5629TIP3    H238379   1.279   5.499  11.898  0.3234  0.4465  1.5991
 5630TIP3   OH238380   4.711   2.046   0.875 -0.2095 -0.2949 -0.2596
 5630TIP3    H138381   4.723   2.141   0.874 -0.4195 -0.2658  0.0214
 5630TIP3    H238382   4.718   2.020   0.783  3.5807 -0.4581 -0.0975
 5631TIP3   OH238383   6.449   3.651   5.701 -0.5124  1.0042  0.2132
 5631TIP3    H138384   6.506   3.633   5.626  0.4043 -1.0334  1.3045
 5631TIP3    H238385   6.365   3.675   5.662 -0.3404 -0.9084 -1.5031
 5632TIP3   OH238386   5.816   0.674  12.699  0.3803 -0.0463  0.0264
 5632TIP3    H138387   5.839   0.763  12.724  1.0437 -0.5542  1.3457
 5632TIP3    H238388   5.727   0.680  12.665  0.7357  1.2472 -0.7327
 5633TIP3   OH238389   2.999   4.496   3.041  0.0924  0.0159  0.3844
 5633TIP3    H138390   3.038   4.418   3.081  0.2505 -0.2428 -0.2471
 5633TIP3    H238391   2.919   4.464   2.999  0.1867  0.1762  0.0754
 5634TIP3   OH238392   1.282   2.839   2.579  0.5507  0.2145  0.2155
 5634TIP3    H138393   1.211   2.814   2.639  1.2450 -0.2362  0.8739
 5634TIP3    H238394   1.358   2.850   2.637  0.9034  1.1915 -0.4109
 5635TIP3   OH238395   2.141   1.014  16.377 -0.6067 -0.1754  0.6341
 5635TIP3    H138396   2.090   0.964  16.314  1.9853 -1.9828 -0.2034
 5635TIP3    H238397   2.200   1.067  16.323  0.1035 -0.0134  1.5330
 5636TIP3   OH238398   5.245   2.167  12.032 -0.0337 -0.2884 -0.0682
 5636TIP3    H138399   5.202   2.235  11.980  0.5640 -0.4849 -0.8274
 5636TIP3    H238400   5.235   2.196  12.122 -1.0770  0.0634 -0.2779
 5637TIP3   OH238401   2.306   0.571  15.862  0.2747  0.3183  0.8547
 5637TIP3    H138402   2.233   0.632  15.869  2.3477  3.1428 -0.4904
 5637TIP3    H238403   2.378   0.614  15.908  2.0211 -0.8038 -0.6869
 5638TIP3   OH238404   6.347   6.365  11.018 -0.4338 -0.0680  0.3142
 5638TIP3    H138405   6.264   6.377  10.971 -0.8974  1.3273  1.4248
 5638TIP3    H238406   6.392   6.295  10.970 -2.0915 -0.6024 -0.5220
 5639TIP3   OH238407   1.480   4.659  14.636 -0.5120 -0.0385 -0.2247
 5639TIP3    H138408   1.471   4.634  14.544  1.2545  0.5811 -0.6102
 5639TIP3    H238409   1.490   4.754  14.633 -1.8245  0.1497  0.7471
 5640TIP3   OH238410   5.187   0.045  15.154 -0.0536  0.3754  0.4973
 5640TIP3    H138411   5.110   0.004  15.193 -1.1198  0.2209 -1.6216
 5640TIP3    H238412   5.189   0.133  15.193 -1.1507  0.2963  0.7720
 5641TIP3   OH238413   2.627   2.267  11.687  0.2645  0.3104 -0.3764
 5641TIP3    H138414   2.639   2.183  11.642  0.8933  0.0476  0.2730
 5641TIP3    H238415   2.539   2.261  11.725  1.1197 -0.9535  1.5201
 5642TIP3   OH238416   2.651   6.655  10.880  0.0404 -0.6916 -0.0110
 5642TIP3    H138417   2.655   6.561  10.868  1.0055 -0.6355 -0.2065
 5642TIP3    H238418   2.624   6.689  10.795  1.0573 -0.7078 -0.3553
 5643TIP3   OH238419   6.375   0.864   1.592 -0.6730  0.5412 -0.5855
 5643TIP3    H138420   6.315   0.838   1.522 -2.0218  0.8266  0.4150
 5643TIP3    H238421   6.346   0.953   1.615  0.6252  0.9806 -0.5588
 5644TIP3   OH238422   5.029   2.203  13.479 -0.0362 -0.1367 -0.2353
 5644TIP3    H138423   5.094   2.207  13.409  0.5167  0.7211  0.3009
 5644TIP3    H238424   4.967   2.273  13.458 -0.2055 -0.2702 -0.1836
 5645TIP3   OH238425   1.508   0.885  13.218 -0.4624  0.9230 -0.8175
 5645TIP3    H138426   1.496   0.790  13.230 -2.3020  1.3156  1.0294
 5645TIP3    H238427   1.597   0.902  13.251 -0.4208 -0.0499 -0.3671
 5646TIP3   OH238428   5.720   2.553   4.911 -0.2150  0.0159  0.1323
 5646TIP3    H138429   5.675   2.501   4.845  1.1549 -1.3826  0.2533
 5646TIP3    H238430   5.799   2.504   4.931 -0.0962  0.9104  2.0961
 5647TIP3   OH238431   2.586   4.662   2.961 -0.3938  0.7105  0.1762
 5647TIP3    H138432   2.540   4.686   3.041 -0.5041 -0.3906  0.4663
 5647TIP3    H238433   2.666   4.715   2.961 -1.8572  3.0477 -0.6065
 5648TIP3   OH238434   1.200   1.776  15.302 -0.2934  0.3131 -0.1959
 5648TIP3    H138435   1.175   1.692  15.263  1.3330 -0.1113 -0.3941
 5648TIP3    H238436   1.117   1.816  15.327 -1.2025 -0.6689 -1.4878
 5649TIP3   OH238437   5.664   6.280  15.622  0.2602  0.2924 -0.3324
 5649TIP3    H138438   5.612   6.254  15.547 -1.3053  0.9541  0.4717
 5649TIP3    H238439   5.692   6.198  15.662  0.2491 -0.0672 -1.0473
 5650TIP3   OH238440   6.129   1.064  16.045 -0.1477  0.6624  0.0898
 5650TIP3    H138441   6.054   1.121  16.030  0.0416  0.7333 -0.6235
 5650TIP3    H238442   6.205   1.118  16.024  0.1009  0.5525  0.6887
 5651TIP3   OH238443   5.940   6.399  13.115  0.0136 -0.0281  0.1498
 5651TIP3    H138444   5.862   6.381  13.168 -0.1704  1.2478  0.3438
 5651TIP3    H238445   5.954   6.318  13.065 -1.3957 -0.3052  0.1526
 5652TIP3   OH238446   1.237   1.173  11.585  0.5199 -0.3721 -0.0699
 5652TIP3    H138447   1.204   1.214  11.665 -0.0059  0.0489 -0.4994
 5652TIP3    H238448   1.332   1.190  11.586  0.1205  2.4511 -1.1306
 5653TIP3   OH238449   3.425   6.566  16.171  0.1137 -0.2555 -0.5294
 5653TIP3    H138450   3.380   6.638  16.215 -0.3447 -0.8801  0.0521
 5653TIP3    H238451   3.479   6.527  16.240 -1.3362 -1.8444 -0.2188
 5654TIP3   OH238452   6.060   2.024  14.414 -0.0714  0.2612  0.3296
 5654TIP3    H138453   5.974   2.018  14.374 -0.0251 -0.2456  0.3025
 5654TIP3    H238454   6.108   1.949  14.379  0.1639  0.1585  0.8677
 5655TIP3   OH238455   5.633   2.036  12.291 -0.0591  0.2395  0.4829
 5655TIP3    H138456   5.625   2.078  12.205  2.8552  0.0835  0.0509
 5655TIP3    H238457   5.551   1.988  12.301 -0.9482  1.1430 -1.6962
 5656TIP3   OH238458   5.256   2.420   3.312 -0.3174  0.4184 -0.6461
 5656TIP3    H138459   5.203   2.341   3.325  0.5248  0.1392  1.5155
 5656TIP3    H238460   5.310   2.400   3.235 -1.5684 -0.2556 -1.3819
 5657TIP3   OH238461   2.696   3.897  12.057  0.2993 -0.0329  0.1062
 5657TIP3    H138462   2.789   3.874  12.066  0.2256 -0.0755  0.8522
 5657TIP3    H238463   2.691   3.986  12.091 -0.1880 -0.5863  1.5527
 5658TIP3   OH238464   0.294   1.125  14.945 -0.2760  0.5594 -0.0796
 5658TIP3    H138465   0.323   1.212  14.916 -1.5456  0.8490 -0.5726
 5658TIP3    H238466   0.201   1.136  14.963 -0.0717 -0.2586  1.7103
 5659TIP3   OH238467   6.613   0.691   5.607 -0.4437  0.5553  0.1523
 5659TIP3    H138468   6.532   0.686   5.658 -0.0822  0.7222  0.7496
 5659TIP3    H238469   6.678   0.727   5.668  0.1943 -0.0051 -0.1829
 5660TIP3   OH238470   3.408   3.459  16.281 -0.6146  0.2820 -0.0078
 5660TIP3    H138471   3.404   3.442  16.187  0.2935 -0.3389  0.0530
 5660TIP3    H238472   3.426   3.374  16.320  0.3226  0.7528  0.6139
 5661TIP3   OH238473   2.327   5.956  12.049  0.1161 -0.4877  0.6291
 5661TIP3    H138474   2.233   5.967  12.057  0.3945  1.6598  1.7186
 5661TIP3    H238475   2.356   6.031  11.996  1.2444 -1.0311  0.4302
 5662TIP3   OH238476   5.821   4.100   4.173 -0.3014 -0.0848  0.1914
 5662TIP3    H138477   5.782   4.167   4.229 -1.3762 -0.3743 -0.1977
 5662TIP3    H238478   5.892   4.145   4.127 -1.4734  0.9817 -0.6081
 5663TIP3   OH238479   1.012   0.904   5.463 -0.2311  0.0287 -0.2752
 5663TIP3    H138480   0.965   0.821   5.461  0.7081 -0.5022 -1.3124
 5663TIP3    H238481   1.099   0.882   5.498  0.3019  0.4034 -1.3131
 5664TIP3   OH238482   2.135   0.484  16.595 -0.1443  0.2636 -0.3406
 5664TIP3    H138483   2.118   0.562  16.542  0.1431 -0.9578 -2.3388
 5664TIP3    H238484   2.088   0.501  16.677 -1.0704  2.0225 -1.1613
 5665TIP3   OH238485   3.681   6.199   2.141 -0.2855  0.4320 -0.3359
 5665TIP3    H138486   3.642   6.214   2.055 -0.0554 -0.8011 -0.6779
 5665TIP3    H238487   3.690   6.103   2.146  1.0408  0.5793  0.4538
 5666TIP3   OH238488   5.735   4.931   3.613  0.2096  0.5555 -0.0043
 5666TIP3    H138489   5.701   4.901   3.529  0.7226  2.0942 -0.8016
 5666TIP3    H238490   5.766   4.852   3.657  1.5626 -0.1045 -2.0197
 5667TIP3   OH238491   3.051   5.825  12.172 -0.1831  0.5216 -0.0666
 5667TIP3    H138492   2.987   5.824  12.243  0.0200  0.6868  0.1164
 5667TIP3    H238493   2.997   5.835  12.093 -0.5786 -1.5686 -0.1338
 5668TIP3   OH238494   4.133   5.220  14.031  0.4058  0.0585 -0.0445
 5668TIP3    H138495   4.056   5.183  14.074  0.4565  0.2297  0.1934
 5668TIP3    H238496   4.123   5.195  13.939 -0.2222  0.5519 -0.1162
 5669TIP3   OH238497   4.940   4.666  12.677  0.0696 -0.4052  0.2945
 5669TIP3    H138498   4.908   4.725  12.609  2.0115  1.4429  0.8651
 5669TIP3    H238499   5.020   4.629  12.640  0.3027 -0.5880  0.9784
 5670TIP3   OH238500   2.088   3.113   2.102  0.0937  0.1226 -0.3115
 5670TIP3    H138501   2.073   3.157   2.019  0.4711 -0.1203 -0.5111
 5670TIP3    H238502   2.019   3.047   2.108 -1.5143  1.8019  0.7600
 5671TIP3   OH238503   3.937   4.732   5.439  0.0031 -0.3175 -0.2927
 5671TIP3    H138504   3.844   4.737   5.463  0.2312 -0.4000  0.6433
 5671TIP3    H238505   3.938   4.747   5.345 -0.6862  2.8376  0.0874
 5672TIP3   OH238506   4.530   1.673   1.260  0.3127 -0.1225  0.1018
 5672TIP3    H138507   4.539   1.673   1.355  0.6876 -0.9296  0.0691
 5672TIP3    H238508   4.569   1.756   1.232  0.7785 -0.1735  0.5940
 5673TIP3   OH238509   4.424   0.106  12.556 -0.0986  0.1103  0.1207
 5673TIP3    H138510   4.446   0.186  12.509 -0.3880 -0.4160 -0.9198
 5673TIP3    H238511   4.332   0.117  12.581 -0.0615  0.2163  0.2107
 5674TIP3   OH238512   4.678   0.427   3.866  0.5882  0.1721  0.3991
 5674TIP3    H138513   4.683   0.518   3.894  2.0201  0.8835 -1.8874
 5674TIP3    H238514   4.766   0.406   3.835 -0.1562 -1.4008 -0.8042
 5675TIP3   OH238515   4.868   2.762  12.133 -0.7385  0.0458  0.1094
 5675TIP3    H138516   4.897   2.672  12.120 -1.2390 -0.0011 -0.7659
 5675TIP3    H238517   4.942   2.806  12.174 -0.4425 -0.7276  0.4100
 5676TIP3   OH238518   4.973   4.061   0.995  0.1305 -0.4515  0.0335
 5676TIP3    H138519   4.897   4.071   1.051 -0.2593 -0.9695 -0.3907
 5676TIP3    H238520   5.040   4.024   1.052  0.7537  1.8954  0.9420
 5677TIP3   OH238521   0.790   2.996   5.130 -0.1610 -0.7733  0.6158
 5677TIP3    H138522   0.850   2.995   5.056 -0.8900 -1.5066  0.0175
 5677TIP3    H238523   0.739   3.076   5.119  0.5283 -0.2691  0.9974
 5678TIP3   OH238524   5.807   4.540  11.793 -0.1012  0.2343 -0.2127
 5678TIP3    H138525   5.717   4.522  11.819  0.9764 -1.0245  3.2580
 5678TIP3    H238526   5.827   4.624  11.835  0.3696  0.5162 -0.9785
 5679TIP3   OH238527   4.575   3.273  16.231 -0.4569  0.2081 -0.2115
 5679TIP3    H138528   4.593   3.301  16.321 -0.7082 -0.9831  0.2273
 5679TIP3    H238529   4.494   3.316  16.208 -1.1999 -0.6427  0.6986
 5680TIP3   OH238530   3.585   3.222  13.130  0.0405  0.0332  0.1321
 5680TIP3    H138531   3.665   3.213  13.182 -0.0927 -1.5099  0.1199
 5680TIP3    H238532   3.518   3.247  13.194  0.1969 -0.3399  0.4498
 5681TIP3   OH238533   0.715   1.905   0.065  0.0381  0.2270  0.0232
 5681TIP3    H138534   0.733   1.997   0.085  1.6155 -0.4458  1.9118
 5681TIP3    H238535   0.730   1.898  -0.029  1.5959  1.5396  0.1323
 5682TIP3   OH238536   5.079   5.000  15.527 -0.2566  0.5453  0.3926
 5682TIP3    H138537   5.030   5.003  15.445  0.9961  0.0875 -0.4015
 5682TIP3    H238538   5.170   4.986  15.500  0.6297  3.1063  1.7182
 5683TIP3   OH238539   5.082   2.263   1.681  0.8622  0.1164 -0.2039
 5683TIP3    H138540   5.134   2.339   1.708 -0.4377  0.5247  1.3245
 5683TIP3    H238541   5.007   2.264   1.741  0.9279 -2.5246  0.0186
 5684TIP3   OH238542   0.624   0.883  13.082 -0.4503  0.0386  0.6285
 5684TIP3    H138543   0.660   0.797  13.060 -1.1661  0.3936 -2.3883
 5684TIP3    H238544   0.541   0.863  13.125 -1.1143 -0.8499 -0.9739
 5685TIP3   OH238545   3.536   5.042  12.010 -0.0911  0.1293  0.1963
 5685TIP3    H138546   3.497   5.118  11.967 -0.0404  1.0504  1.6889
 5685TIP3    H238547   3.630   5.049  11.991 -0.3533 -1.0065 -1.7681
 5686TIP3   OH238548   3.960   2.014   1.689  0.2796 -0.2660 -0.6427
 5686TIP3    H138549   4.052   2.029   1.709 -0.0850  1.3773 -0.0587
 5686TIP3    H238550   3.945   2.055   1.604 -0.0097 -0.1441 -0.5365
 5687TIP3   OH238551   2.899   3.281   5.937  0.1724  0.0532 -0.0030
 5687TIP3    H138552   2.909   3.238   6.021 -0.4343  1.7407  0.9949
 5687TIP3    H238553   2.981   3.328   5.924 -0.0751  0.5162  0.0915
 5688TIP3   OH238554   0.037   5.412   2.723  0.2740  0.1672  0.0864
 5688TIP3    H138555   0.045   5.432   2.629  1.8454  0.7180  0.3077
 5688TIP3    H238556   0.017   5.318   2.725 -0.3401  0.2599 -0.8043
 5689TIP3   OH238557   5.291   6.319   3.778 -0.2247  0.0787  0.0387
 5689TIP3    H138558   5.381   6.286   3.776 -0.6475 -1.0994 -0.6318
 5689TIP3    H238559   5.285   6.364   3.862  0.8236 -0.3208  0.3516
 5690TIP3   OH238560   3.168   5.407  11.382 -0.0592  0.0842 -0.3980
 5690TIP3    H138561   3.173   5.323  11.428 -1.3636  0.4893  0.5461
 5690TIP3    H238562   3.187   5.472  11.449 -2.2009  0.7012 -0.3145
 5691TIP3   OH238563   2.159   1.476   4.934 -0.0855 -0.2458 -0.3783
 5691TIP3    H138564   2.099   1.531   4.883  1.0036  1.1327 -0.2459
 5691TIP3    H238565   2.128   1.483   5.024 -0.1717 -0.1636 -0.4141
 5692TIP3   OH238566   0.821   5.307   3.837  0.0471  0.5940  0.4248
 5692TIP3    H138567   0.766   5.353   3.774 -1.1419  0.0062  1.0094
 5692TIP3    H238568   0.794   5.216   3.832  0.9944  0.2772  0.7188
 5693TIP3   OH238569   5.844   1.879  13.473  0.4554 -0.2271  0.0370
 5693TIP3    H138570   5.792   1.873  13.393 -0.1039  0.7177  0.3198
 5693TIP3    H238571   5.785   1.917  13.538  1.4035  0.6026  0.4424
 5694TIP3   OH238572   1.030   5.793  11.377 -0.4059  0.4912  0.6288
 5694TIP3    H138573   1.062   5.864  11.322 -2.6921  0.6633 -0.5772
 5694TIP3    H238574   1.015   5.721  11.316 -1.0660  0.0032  1.3506
 5695TIP3   OH238575   5.538   0.504   4.787  0.3217  0.5888  0.3862
 5695TIP3    H138576   5.614   0.562   4.789  1.2131 -0.5324  0.6959
 5695TIP3    H238577   5.557   0.442   4.717  0.2943 -0.4487  1.2642
 5696TIP3   OH238578   5.766   5.650  14.039  0.0168 -0.1062 -0.2157
 5696TIP3    H138579   5.732   5.695  13.961 -0.3562  0.8273  0.4628
 5696TIP3    H238580   5.827   5.585  14.004  1.3015  1.5439 -1.2357
 5697TIP3   OH238581   5.213   1.152   0.945 -0.4638  0.2811  0.2468
 5697TIP3    H138582   5.179   1.235   0.910  0.2750 -0.0210 -1.2586
 5697TIP3    H238583   5.220   1.168   1.039 -0.8550  1.7392  0.0689
 5698TIP3   OH238584   5.483   3.427  14.804 -0.3276 -0.1559 -0.1950
 5698TIP3    H138585   5.577   3.435  14.789 -0.6438  2.2426 -1.5219
 5698TIP3    H238586   5.456   3.514  14.834 -2.2901 -0.4173 -1.0183
 5699TIP3   OH238587   6.567   6.388   0.924  0.0530  0.4877 -0.8168
 5699TIP3    H138588   6.543   6.369   0.833 -0.2286 -2.9112 -0.1644
 5699TIP3    H238589   6.657   6.355   0.932 -0.8738 -1.9966  0.7208
 5700TIP3   OH238590   4.977   0.952  14.459  0.2414  0.6565  0.0567
 5700TIP3    H138591   5.066   0.964  14.426 -0.0632  0.8263 -0.7061
 5700TIP3    H238592   4.969   1.016  14.530  1.7029 -1.2803  2.1493
 5701TIP3   OH238593   1.007   1.787   1.465  0.4961 -0.2585 -0.1097
 5701TIP3    H138594   0.931   1.845   1.465  0.7213  0.0358  0.4037
 5701TIP3    H238595   1.045   1.796   1.552  1.4068 -0.0264 -0.5188
 5702TIP3   OH238596   0.803   4.596  16.758  0.3791  0.2332 -0.3475
 5702TIP3    H138597   0.761   4.617  16.842  0.6215  0.7029 -0.3369
 5702TIP3    H238598   0.734   4.611  16.693 -0.1791 -1.3245 -0.1428
 5703TIP3   OH238599   0.255   6.282   4.826 -0.4429  0.3246 -0.5086
 5703TIP3    H138600   0.317   6.289   4.753 -1.1015 -0.2336 -1.1417
 5703TIP3    H238601   0.177   6.329   4.795 -1.0677 -0.7038 -0.5686
 5704TIP3   OH238602   5.005   6.609  15.685  0.1012 -0.2405  0.0170
 5704TIP3    H138603   4.912   6.614  15.708 -0.2615  1.2989 -1.5830
 5704TIP3    H238604   5.016   6.520  15.650 -0.7682 -0.4180  0.1591
 5705TIP3   OH238605   6.341   3.749  12.294  0.4903  0.0120 -0.0456
 5705TIP3    H138606   6.383   3.730  12.210  1.3406  1.5518 -0.0060
 5705TIP3    H238607   6.409   3.789  12.347 -0.1276 -0.6378  1.2817
 5706TIP3   OH238608   3.612   3.654   0.773 -0.1717  0.0771 -0.1935
 5706TIP3    H138609   3.558   3.581   0.803 -1.1350  0.3711 -1.1379
 5706TIP3    H238610   3.550   3.726   0.763  0.5302  0.6320 -0.5864
 5707TIP3   OH238611   2.996   4.581   5.981  0.0466  0.0690  0.2497
 5707TIP3    H138612   3.042   4.499   5.965  0.4869  0.3479  0.0693
 5707TIP3    H238613   3.050   4.627   6.045  0.2026  0.5485 -0.2199
 5708TIP3   OH238614   1.432   3.846   6.885  0.2379  0.4287  0.4409
 5708TIP3    H138615   1.519   3.862   6.848  0.2952  0.7050  0.6959
 5708TIP3    H238616   1.414   3.755   6.863  0.6063  0.3597  0.4080
 5709TIP3   OH238617   4.495   6.651  16.021 -0.1744  0.2303 -0.3292
 5709TIP3    H138618   4.478   6.655  16.115  2.2343  0.5587  0.1500
 5709TIP3    H238619   4.548   6.572  16.010  1.0573  1.1390 -1.1202
 5710TIP3   OH238620   5.508   4.188   5.912 -0.0327  0.7477  0.3220
 5710TIP3    H138621   5.500   4.096   5.940  0.8834 -0.1040 -2.0003
 5710TIP3    H238622   5.600   4.209   5.927 -0.5360  1.8317  2.2194
 5711TIP3   OH238623   3.565   0.908   3.855 -0.3123  0.1804 -0.0651
 5711TIP3    H138624   3.585   0.978   3.793  1.6136 -1.4202 -1.4046
 5711TIP3    H238625   3.557   0.830   3.800 -2.8440 -0.6415  1.3129
 5712TIP3   OH238626   4.193   3.007  12.359  0.2194  0.2457  0.2550
 5712TIP3    H138627   4.170   3.097  12.336  1.0985  0.6619  0.9526
 5712TIP3    H238628   4.200   2.962  12.276  1.6357  1.2871 -0.2199
 5713TIP3   OH238629   6.608   4.043  13.358 -0.0969 -0.7627  0.1359
 5713TIP3    H138630   6.536   3.985  13.331 -0.2188 -0.5597  0.0256
 5713TIP3    H238631   6.633   4.011  13.445  0.5894 -1.7063 -0.3791
 5714TIP3   OH238632   6.347   2.637   0.002 -0.2104  0.2276 -0.2254
 5714TIP3    H138633   6.320   2.695  -0.069 -2.1468 -1.0816 -0.6365
 5714TIP3    H238634   6.283   2.652   0.071  0.1616 -0.3263  0.2558
 5715TIP3   OH238635   4.748   6.558  11.451  0.5749 -0.0089 -0.0183
 5715TIP3    H138636   4.715   6.573  11.540  0.9239 -1.1670  0.3268
 5715TIP3    H238637   4.674   6.521  11.403  1.0474 -1.7262  0.4992
 5716TIP3   OH238638   4.061   3.717  16.761 -0.4820 -0.3875 -0.1317
 5716TIP3    H138639   4.019   3.771  16.694 -0.6600  0.2923  0.5084
 5716TIP3    H238640   4.100   3.781  16.821 -1.9411 -0.9036  1.4607
 5717TIP3   OH238641   2.748   5.068  10.968  0.0136 -0.0777 -0.3266
 5717TIP3    H138642   2.716   5.150  10.930 -0.2949  0.9255  1.9365
 5717TIP3    H238643   2.843   5.072  10.959  0.1390  1.3332  1.1689
 5718TIP3   OH238644   3.665   6.398   5.747  0.1733  0.3404 -0.0361
 5718TIP3    H138645   3.604   6.324   5.751  0.7724 -0.1117  2.2180
 5718TIP3    H238646   3.715   6.383   5.667 -0.4346 -1.1299 -0.1847
 5719TIP3   OH238647   1.662   1.483  16.394 -0.0918 -0.0796 -0.3324
 5719TIP3    H138648   1.740   1.512  16.346  0.2075 -0.1165  0.1293
 5719TIP3    H238649   1.666   1.529  16.478 -0.4488 -0.2530 -0.2148
 5720TIP3   OH238650   6.511   1.059  15.034  0.1604 -0.2178 -0.6495
 5720TIP3    H138651   6.559   0.994  15.087  1.3456  1.1231 -0.0156
 5720TIP3    H238652   6.575   1.127  15.016 -1.3350  1.3257 -0.3684
 5721TIP3   OH238653   1.743   4.191  14.708  0.4280 -0.0350  0.0891
 5721TIP3    H138654   1.691   4.267  14.730  0.4506  0.0936 -0.2919
 5721TIP3    H238655   1.778   4.160  14.791  0.7158  0.5839  0.1989
 5722TIP3   OH238656   0.495   4.311  14.219  0.1659 -0.7296 -0.3445
 5722TIP3    H138657   0.443   4.296  14.298 -0.2480 -1.5254 -0.7634
 5722TIP3    H238658   0.478   4.235  14.163 -0.4101  0.3474 -1.6829
 5723TIP3   OH238659   1.274   4.021   3.083  0.2293 -0.1511  0.8829
 5723TIP3    H138660   1.304   4.055   3.168 -2.2196  1.3917  1.2375
 5723TIP3    H238661   1.218   4.090   3.048  1.6807 -0.4453 -2.3767
 5724TIP3   OH238662   2.890   6.192  14.296 -0.1063  0.2381 -0.4163
 5724TIP3    H138663   2.943   6.246  14.236  1.0059 -0.1331  0.2018
 5724TIP3    H238664   2.952   6.161  14.361 -0.5898 -2.2537 -1.0268
 5725TIP3   OH238665   6.638   2.732  14.058 -0.5262 -0.4244  0.7311
 5725TIP3    H138666   6.603   2.786  13.987  0.1843 -0.6894  0.1653
 5725TIP3    H238667   6.590   2.761  14.135 -2.9552 -1.6827 -0.2083
 5726TIP3   OH238668   6.710   2.246   3.808  0.1353  0.8380 -0.9177
 5726TIP3    H138669   6.681   2.155   3.813  0.1396  0.8622 -0.4034
 5726TIP3    H238670   6.637   2.297   3.841  0.5675  0.9302 -0.0639
 5727TIP3   OH238671   2.112   5.801  15.417 -0.1550 -0.6187 -0.3782
 5727TIP3    H138672   2.169   5.872  15.445  2.6238 -2.6058 -0.5927
 5727TIP3    H238673   2.131   5.791  15.323  0.1265 -2.1025 -0.1866
 5728TIP3   OH238674   0.471   3.360   6.013  0.1868  0.1061 -0.0455
 5728TIP3    H138675   0.383   3.365   5.977  0.8354 -1.5147 -2.0327
 5728TIP3    H238676   0.489   3.449   6.045 -2.0176  0.5339  0.1572
 5729TIP3   OH238677   6.232   6.373   5.791 -0.1543  0.4932  0.2855
 5729TIP3    H138678   6.219   6.313   5.864  1.5557  0.1555  0.3659
 5729TIP3    H238679   6.276   6.449   5.831 -1.7577  1.5952  0.0826
 5730TIP3   OH238680   2.467   2.756  14.515  0.4273 -0.1624 -0.3536
 5730TIP3    H138681   2.429   2.692  14.455  1.5777 -0.4450 -0.8091
 5730TIP3    H238682   2.454   2.841  14.471 -0.5294 -0.1436 -0.0466
 5731TIP3   OH238683   4.596   5.644   5.233 -0.5486 -0.4808  0.7735
 5731TIP3    H138684   4.660   5.578   5.261 -0.1786  0.2471  1.6738
 5731TIP3    H238685   4.626   5.669   5.145 -0.5301 -1.2978  0.5375
 5732TIP3   OH238686   3.834   4.463   3.054 -0.1031  0.0753  0.4651
 5732TIP3    H138687   3.804   4.542   3.099 -1.2019 -0.1336  0.1181
 5732TIP3    H238688   3.765   4.443   2.991  1.5754  0.6068 -1.6791
 5733TIP3   OH238689   0.298   6.343   6.068  0.0440  0.3657 -0.3484
 5733TIP3    H138690   0.222   6.287   6.086 -0.4931  1.1968  0.0736
 5733TIP3    H238691   0.354   6.333   6.145 -0.9107  1.7560  0.5736
 5734TIP3   OH238692   3.140   1.184   4.795  0.0615 -0.0760  0.0449
 5734TIP3    H138693   3.114   1.276   4.787 -1.7392 -0.6073 -1.0183
 5734TIP3    H238694   3.110   1.144   4.713  0.4382 -1.6894  0.6607
 5735TIP3   OH238695   5.373   0.849  15.955 -0.2743  0.1429  0.4266
 5735TIP3    H138696   5.410   0.769  15.917  1.4082  0.1399  1.9154
 5735TIP3    H238697   5.280   0.844  15.936 -0.1435 -1.9576  0.0924
 5736TIP3   OH238698   0.639   3.413   4.027  0.2539  0.2691 -0.1710
 5736TIP3    H138699   0.716   3.464   4.052 -1.0783  2.0187  0.5415
 5736TIP3    H238700   0.569   3.447   4.082 -0.5199 -3.1366  1.1570
 5737TIP3   OH238701   6.288   5.442  12.679  0.3059 -0.5651 -0.5285
 5737TIP3    H138702   6.381   5.422  12.677  0.2186 -1.0197 -0.1939
 5737TIP3    H238703   6.284   5.535  12.705  0.6177 -1.1464  1.8134
 5738TIP3   OH238704   1.004   3.422  16.328  0.1677 -0.1838  0.9482
 5738TIP3    H138705   0.937   3.442  16.392 -0.3860 -1.4846  0.8089
 5738TIP3    H238706   0.976   3.466  16.248  0.6619  1.1219  1.4664
 5739TIP3   OH238707   1.538   4.505   5.783  0.2437 -0.7664 -0.0764
 5739TIP3    H138708   1.622   4.469   5.755  0.3216  0.3948 -1.4824
 5739TIP3    H238709   1.508   4.446   5.852  0.9297 -2.7559 -1.4034
 5740TIP3   OH238710   6.180   6.674   4.876 -0.0974  0.1295  0.2108
 5740TIP3    H138711   6.232   6.740   4.829  0.0948 -0.5255 -0.5111
 5740TIP3    H238712   6.222   6.669   4.962  0.6568  0.0785 -0.1446
 5741TIP3   OH238713   4.469   5.188   4.898  0.1958 -0.2703  0.0687
 5741TIP3    H138714   4.398   5.130   4.871 -0.3478  1.0452 -1.4945
 5741TIP3    H238715   4.434   5.237   4.972  0.2829 -1.1471  0.7102
 5742TIP3   OH238716   1.256   1.827  14.807 -0.0630  0.1572  0.4561
 5742TIP3    H138717   1.273   1.921  14.799 -2.2942  0.6364  0.6684
 5742TIP3    H238718   1.323   1.796  14.868 -0.3428  1.9859  1.7855
 5743TIP3   OH238719   4.282   3.858   0.247 -0.3128  0.4630 -0.0581
 5743TIP3    H138720   4.188   3.849   0.265  0.0777 -1.4803  1.3582
 5743TIP3    H238721   4.306   3.774   0.207  0.6692  1.2659 -1.1893
 5744TIP3   OH238722   6.640   1.964  13.393 -0.2482  0.0129  0.6976
 5744TIP3    H138723   6.714   1.998  13.443 -0.7385 -0.1378  1.5545
 5744TIP3    H238724   6.649   1.869  13.397  1.4290 -0.0647 -2.1601
 5745TIP3   OH238725   5.553   5.311  12.337 -0.3596  0.6001  0.1328
 5745TIP3    H138726   5.644   5.318  12.310 -0.2994 -0.0712  0.1369
 5745TIP3    H238727   5.556   5.302  12.432 -0.4039  0.2545  0.1043
 5746TIP3   OH238728   1.854   1.206  16.123 -0.9422  1.1197  0.9131
 5746TIP3    H138729   1.860   1.125  16.071  1.7377  1.1020  1.1057
 5746TIP3    H238730   1.825   1.177  16.209 -0.9832  0.5051  0.6977
 5747TIP3   OH238731   0.091   4.520   6.188  0.3819 -0.4297 -0.0180
 5747TIP3    H138732   0.154   4.472   6.134  0.1182 -0.5473 -0.2214
 5747TIP3    H238733   0.144   4.556   6.259  0.5472 -1.2571  0.2960
 5748TIP3   OH238734   6.195   3.637  16.084  0.3317 -0.1214 -0.1093
 5748TIP3    H138735   6.104   3.614  16.063 -0.1260  0.8135  0.7534
 5748TIP3    H238736   6.246   3.561  16.056 -0.5801 -0.2103 -1.6539
 5749TIP3   OH238737   5.848   5.199  14.479  0.4251 -0.6517 -0.4523
 5749TIP3    H138738   5.937   5.164  14.479 -0.0285 -1.9336  1.4306
 5749TIP3    H238739   5.845   5.258  14.555  0.1166  0.6760 -1.4617
 5750TIP3   OH238740   0.306   0.934   3.024 -0.3754 -0.0753  0.2792
 5750TIP3    H138741   0.382   0.877   3.015  0.2071  0.8162 -0.6705
 5750TIP3    H238742   0.231   0.875   3.030  0.3685 -0.9639  1.1315
 5751TIP3   OH238743   3.063   4.898   0.388 -0.0910  0.2418 -0.2239
 5751TIP3    H138744   3.124   4.865   0.322  1.3584 -0.0718  1.2066
 5751TIP3    H238745   2.978   4.894   0.346  0.8625  0.7610 -2.3388
 5752TIP3   OH238746   6.337   3.438   4.764 -0.0477 -0.1093 -0.4917
 5752TIP3    H138747   6.385   3.517   4.740  0.9737 -0.3491  0.6249
 5752TIP3    H238748   6.256   3.441   4.713 -1.4045  3.1142  1.5258
 5753TIP3   OH238749   5.115   2.094  16.474  0.6490 -0.1110 -0.0693
 5753TIP3    H138750   5.152   2.070  16.388 -1.9917  1.2632 -1.7333
 5753TIP3    H238751   5.035   2.043  16.480  0.2891  0.5615  1.1323
 5754TIP3   OH238752   1.365   3.532   3.747 -0.1281 -0.4347 -0.3714
 5754TIP3    H138753   1.378   3.494   3.661 -0.5837  0.2023 -0.7341
 5754TIP3    H238754   1.271   3.546   3.754 -0.2268 -1.4473  0.6641
 5755TIP3   OH238755   5.482   5.943   0.201 -0.1199  0.1758 -0.4758
 5755TIP3    H138756   5.491   5.962   0.294 -0.3969  0.8485 -0.5835
 5755TIP3    H238757   5.396   5.977   0.177 -0.8912 -1.7130 -0.5615
 5756TIP3   OH238758   2.532   5.345  12.654 -0.3093  0.1197 -0.1078
 5756TIP3    H138759   2.464   5.359  12.587 -0.4600 -0.1982 -0.0259
 5756TIP3    H238760   2.510   5.406  12.724  0.4335  1.1750 -0.7762
 5757TIP3   OH238761   2.031   1.579   0.713  0.1935 -0.1375  0.6826
 5757TIP3    H138762   2.024   1.487   0.739 -0.6547  0.2368  1.9176
 5757TIP3    H238763   1.975   1.587   0.636  0.8330 -0.7935  0.1383
 5758TIP3   OH238764   5.326   1.042  16.487  0.3908  0.1101 -0.2488
 5758TIP3    H138765   5.281   1.011  16.409  1.7960 -2.2475 -0.2089
 5758TIP3    H238766   5.399   1.093  16.454  0.0403  0.5129 -0.4121
 5759TIP3   OH238767   2.394   5.954   5.309  1.1703  0.2987  0.4378
 5759TIP3    H138768   2.454   5.968   5.236 -0.4342  0.9934 -0.8172
 5759TIP3    H238769   2.368   5.862   5.302 -0.6224  0.8562 -1.2768
 5760TIP3   OH238770   1.179   4.982  14.220  0.6355  0.2006  0.3108
 5760TIP3    H138771   1.157   4.999  14.312  0.4692 -1.9024  0.7107
 5760TIP3    H238772   1.136   5.053  14.172 -1.4516 -0.0603  1.6567
 5761TIP3   OH238773   4.142   5.433   2.861 -0.1021  0.2842 -0.2270
 5761TIP3    H138774   4.104   5.481   2.934  1.0804 -0.0406  0.6282
 5761TIP3    H238775   4.068   5.412   2.804 -0.9671  0.9597  0.6325
 5762TIP3   OH238776   4.486   0.007  11.545  0.2672  0.3409  0.3269
 5762TIP3    H138777   4.516  -0.038  11.624 -1.6913 -3.2515 -0.7162
 5762TIP3    H238778   4.397   0.036  11.568  1.4952  3.9999  0.9730
 5763TIP3   OH238779   3.716   1.182   4.090  1.0690 -0.1207 -0.2943
 5763TIP3    H138780   3.722   1.119   4.162  0.7738  1.5925  1.3106
 5763TIP3    H238781   3.623   1.183   4.067  0.9549  0.2378  0.1708
 5764TIP3   OH238782   6.412   3.855   1.841 -0.0118 -0.7905  0.6517
 5764TIP3    H138783   6.439   3.790   1.906  1.6151 -2.1505 -1.2879
 5764TIP3    H238784   6.319   3.838   1.828 -0.0932 -1.2763  1.7165
 5765TIP3   OH238785   2.712   1.794   1.130  0.2056  0.1680  0.2224
 5765TIP3    H138786   2.712   1.839   1.215 -2.1128  0.8069 -0.0375
 5765TIP3    H238787   2.620   1.772   1.115  1.0921 -4.0463 -0.0624
 5766TIP3   OH238788   5.589   1.193  12.268  0.0369  0.0343 -0.2356
 5766TIP3    H138789   5.655   1.125  12.256 -0.5286 -0.5077 -0.3171
 5766TIP3    H238790   5.518   1.170  12.208 -0.4581  0.3146  0.2259
 5767TIP3   OH238791   5.918   0.441   2.827 -0.3125 -0.2273  0.1836
 5767TIP3    H138792   5.866   0.521   2.828 -1.0680 -0.6989 -0.6067
 5767TIP3    H238793   5.926   0.418   2.735  2.2643  0.4297  0.1662
 5768TIP3   OH238794   4.695   6.460  15.062 -0.5441 -0.2093  0.7583
 5768TIP3    H138795   4.775   6.416  15.089 -0.4446  0.8336  2.3070
 5768TIP3    H238796   4.710   6.552  15.084 -1.2599  0.3892 -1.1302
 5769TIP3   OH238797   3.634   3.363  16.027  0.2579 -0.1588  0.6008
 5769TIP3    H138798   3.640   3.448  16.072 -0.1051  0.1848  0.0161
 5769TIP3    H238799   3.607   3.385  15.937  0.3701 -0.8775  0.3820
 5770TIP3   OH238800   3.208   6.483   1.320 -0.2327 -0.4832  0.2900
 5770TIP3    H138801   3.302   6.467   1.335 -0.3666 -0.4133  1.3232
 5770TIP3    H238802   3.194   6.462   1.228  1.0468  0.6616 -0.2021
 5771TIP3   OH238803   3.426   2.806  11.440  0.0214 -0.1787  0.3869
 5771TIP3    H138804   3.438   2.713  11.421 -2.0994 -0.6459  1.0730
 5771TIP3    H238805   3.397   2.844  11.357  0.2828 -0.2532  0.2606
 5772TIP3   OH238806   5.092   4.639   5.193  0.3283  0.1303  0.4630
 5772TIP3    H138807   5.054   4.721   5.161  1.4565  1.2627  1.8646
 5772TIP3    H238808   5.017   4.580   5.201 -0.5080  0.9832 -0.6606
 5773TIP3   OH238809   3.445   3.533   1.263  0.2325  0.7813  0.1437
 5773TIP3    H138810   3.447   3.628   1.269  0.2698  0.9294 -1.6519
 5773TIP3    H238811   3.359   3.508   1.296  0.0978  1.4591  0.3126
 5774TIP3   OH238812   0.709   0.072   5.193 -0.0129  0.2065  0.0683
 5774TIP3    H138813   0.620   0.039   5.180  0.8418 -2.3375  0.0557
 5774TIP3    H238814   0.738   0.097   5.105 -0.3513 -0.0210 -0.1136
 5775TIP3   OH238815   0.623   1.786  15.221 -0.3840  0.3783 -0.0327
 5775TIP3    H138816   0.702   1.824  15.260 -0.1299 -0.1459 -0.0200
 5775TIP3    H238817   0.621   1.696  15.255 -3.2929  1.5122  3.4946
 5776TIP3   OH238818   6.191   0.803   3.103 -0.0920 -0.2683 -0.5122
 5776TIP3    H138819   6.132   0.820   3.176  0.2401 -1.1773 -0.0065
 5776TIP3    H238820   6.175   0.711   3.080 -0.1339 -0.0257 -1.5420
 5777TIP3   OH238821   2.329   2.457   5.475 -0.1740  0.0387 -0.0579
 5777TIP3    H138822   2.371   2.513   5.410 -0.9441 -0.6992 -1.2142
 5777TIP3    H238823   2.398   2.440   5.540  0.1192  2.1587  0.2521
 5778TIP3   OH238824   5.760   4.704   4.693  0.3680 -0.4618 -0.4646
 5778TIP3    H138825   5.835   4.658   4.729  2.0185  0.4936 -2.5041
 5778TIP3    H238826   5.762   4.685   4.600 -0.8750  1.0075 -0.8411
 5779TIP3   OH238827   4.792   4.032   2.298  0.1289 -0.1518 -0.0699
 5779TIP3    H138828   4.816   4.114   2.342  0.7500 -0.8061  0.8570
 5779TIP3    H238829   4.738   3.986   2.362  0.3121 -0.7333 -0.3331
 5780TIP3   OH238830   1.989   0.433   6.044 -0.0802 -0.2933  0.0797
 5780TIP3    H138831   2.054   0.482   6.094 -0.8677 -0.3771  1.2366
 5780TIP3    H238832   2.008   0.341   6.065 -1.0310 -0.2863  1.0547
 5781TIP3   OH238833   5.287   0.782   5.799  0.6818  0.1058  0.0580
 5781TIP3    H138834   5.274   0.734   5.881 -0.3652  1.9859  1.0606
 5781TIP3    H238835   5.245   0.728   5.733  0.8183 -1.0523  0.8726
 5782TIP3   OH238836   2.291   0.290   3.449  0.2271  0.6061  0.4969
 5782TIP3    H138837   2.361   0.352   3.429  1.2823 -0.3754  1.0495
 5782TIP3    H238838   2.293   0.281   3.545  0.2724 -0.4767  0.4041
 5783TIP3   OH238839   6.696   0.715  14.868 -0.1990  0.5564 -0.3723
 5783TIP3    H138840   6.792   0.721  14.867  0.0764 -2.0836  1.1371
 5783TIP3    H238841   6.669   0.767  14.944  0.4701 -1.8042  1.6023
 5784TIP3   OH238842   2.417   3.246   5.460  0.2789 -0.3781 -0.1858
 5784TIP3    H138843   2.372   3.162   5.466 -0.5039  0.0483  0.0329
 5784TIP3    H238844   2.408   3.284   5.547 -1.4875  0.9920 -0.9079
 5785TIP3   OH238845   0.098   4.542  14.711  0.6452  0.4591  0.4407
 5785TIP3    H138846   0.068   4.570  14.624 -0.8239  2.6958  1.5596
 5785TIP3    H238847   0.041   4.468  14.733  1.6069 -0.7076 -0.7806
 5786TIP3   OH238848   0.572   2.384   5.270  0.0746 -0.3326 -0.1071
 5786TIP3    H138849   0.519   2.345   5.201  0.0728 -0.6777  0.0901
 5786TIP3    H238850   0.657   2.339   5.264  0.3853  0.2754 -0.4786
 5787TIP3   OH238851   3.412   3.031  15.739 -0.7120  0.0353 -0.3219
 5787TIP3    H138852   3.379   2.963  15.797 -0.4521 -0.3143 -0.5822
 5787TIP3    H238853   3.334   3.078  15.709 -0.8658  0.0482  0.0973
 5788TIP3   OH238854   4.613   2.792  10.907 -0.4218 -0.2969 -0.2225
 5788TIP3    H138855   4.702   2.789  10.942 -0.3299 -0.1464 -0.4388
 5788TIP3    H238856   4.610   2.873  10.856 -0.8325 -0.0583  0.1735
 5789TIP3   OH238857   6.529   0.118  16.401 -0.8397  0.3115 -0.3097
 5789TIP3    H138858   6.564   0.204  16.377  0.3749  0.3240  1.3100
 5789TIP3    H238859   6.463   0.137  16.468 -1.2370  0.0362 -0.6216
 5790TIP3   OH238860   3.871   0.484  14.282 -0.5486 -0.3897  0.1635
 5790TIP3    H138861   3.776   0.496  14.289 -0.6748 -1.3930  0.3524
 5790TIP3    H238862   3.881   0.397  14.242  0.2829  0.1808 -0.9149
 5791TIP3   OH238863   3.256   4.435   0.404  0.5875 -0.2530  0.0310
 5791TIP3    H138864   3.202   4.393   0.471 -0.3890  1.2230  0.2306
 5791TIP3    H238865   3.344   4.402   0.419  0.2753 -0.4169  1.6734
 5792TIP3   OH238866   2.688   0.405  10.394 -0.1104  0.3979 -0.2188
 5792TIP3    H138867   2.652   0.320  10.370 -2.4549  0.0685  3.6737
 5792TIP3    H238868   2.613   0.455  10.425  1.5051  3.2425 -0.6281
 5793TIP3   OH238869   6.538   4.176  14.154  0.2057 -0.0672  0.0052
 5793TIP3    H138870   6.492   4.101  14.117  2.5402 -0.6261 -1.9878
 5793TIP3    H238871   6.493   4.252  14.118 -1.0902 -0.4737  0.6642
 5794TIP3   OH238872   2.919   5.575  16.768 -0.4943  0.0600 -0.1716
 5794TIP3    H138873   2.917   5.667  16.742 -0.8553 -0.2968 -1.5104
 5794TIP3    H238874   2.845   5.564  16.827 -0.6369  0.5671 -0.2536
 5795TIP3   OH238875   1.586   4.656   4.482  0.6858  0.0755 -0.2411
 5795TIP3    H138876   1.600   4.738   4.435  0.8138  0.9282  1.2113
 5795TIP3    H238877   1.520   4.677   4.547  0.5371 -1.0526 -0.0069
 5796TIP3   OH238878   6.782   6.699   1.733  0.2064 -0.3638 -1.2630
 5796TIP3    H138879   6.859   6.700   1.790 -0.4812 -0.2712 -0.3115
 5796TIP3    H238880   6.770   6.606   1.711  0.7159 -0.3534 -1.6102
 5797TIP3   OH238881   4.070   1.627  13.501 -0.2869  0.5175  0.0608
 5797TIP3    H138882   3.978   1.619  13.476 -0.1240  0.0163 -0.3978
 5797TIP3    H238883   4.119   1.605  13.421  0.2669  4.1827 -0.8144
 5798TIP3   OH238884   0.136   4.738  12.003 -0.1948 -0.1970 -0.5591
 5798TIP3    H138885   0.182   4.657  12.027 -0.5046 -0.4805 -0.9046
 5798TIP3    H238886   0.199   4.808  12.023 -0.7743 -0.3117  2.0304
 5799TIP3   OH238887   4.779   0.370  12.546  0.3522 -0.1851 -0.3926
 5799TIP3    H138888   4.697   0.334  12.512  0.7569  0.9572 -2.7783
 5799TIP3    H238889   4.753   0.419  12.624 -1.0520 -0.7727 -0.4537
 5800TIP3   OH238890   1.335   6.167  14.644 -0.3371  0.2196 -0.0022
 5800TIP3    H138891   1.240   6.156  14.634 -0.7707  1.0674  2.5829
 5800TIP3    H238892   1.357   6.237  14.582 -1.2939 -0.2739 -0.9349
 5801TIP3   OH238893   1.734   3.970  17.175 -0.6425 -0.2645 -0.4026
 5801TIP3    H138894   1.645   4.002  17.160 -1.4326 -1.3339  1.5603
 5801TIP3    H238895   1.761   4.012  17.257 -0.0780 -1.3437 -0.0170
 5802TIP3   OH238896   0.676   0.703  17.094  0.1112 -0.1969 -0.1490
 5802TIP3    H138897   0.717   0.726  17.011  0.2389 -0.4990 -0.1696
 5802TIP3    H238898   0.748   0.702  17.157  0.1561 -0.7952 -0.2005
 5803TIP3   OH238899   3.001   6.348  16.684 -0.3289  0.4010  0.1959
 5803TIP3    H138900   3.066   6.347  16.753  0.2793  0.4091 -0.3697
 5803TIP3    H238901   3.014   6.266  16.636  1.0135  1.5344 -1.4931
 5804TIP3   OH238902   0.557   0.086   3.037 -0.3020 -0.2055 -0.2949
 5804TIP3    H138903   0.565  -0.009   3.036 -0.0812 -0.1936 -0.0509
 5804TIP3    H238904   0.508   0.107   2.958 -0.4470 -0.5299 -0.2936
 5805TIP3   OH238905   2.161   5.234  15.035 -0.1183  0.5554  0.3593
 5805TIP3    H138906   2.183   5.298  14.967  2.8043  0.0818  0.7505
 5805TIP3    H238907   2.162   5.150  14.990  2.3515  0.1829  1.0079
 5806TIP3   OH238908   3.702   6.648   0.833  0.2936  0.2318 -0.5098
 5806TIP3    H138909   3.661   6.719   0.784 -0.3203  0.9345  0.9547
 5806TIP3    H238910   3.649   6.639   0.912  0.7872 -1.3793 -0.3143
 5807TIP3   OH238911   5.334   0.809   0.138 -0.0142  0.0567  0.1884
 5807TIP3    H138912   5.293   0.726   0.163 -1.3765 -0.3210 -2.8573
 5807TIP3    H238913   5.261   0.870   0.129  0.8904  1.4109  1.4828
 5808TIP3   OH238914   4.497   2.097  14.522 -0.6964 -0.3686 -0.6730
 5808TIP3    H138915   4.583   2.084  14.562 -0.4152  0.3768 -1.0022
 5808TIP3    H238916   4.513   2.091  14.428 -0.4585  2.3635 -0.9033
 5809TIP3   OH238917   1.973   2.951  14.173 -0.0289 -0.3012  0.1590
 5809TIP3    H138918   1.915   3.004  14.118 -0.3316 -0.8364 -0.0431
 5809TIP3    H238919   1.923   2.871  14.189  1.5843 -1.8494 -2.0159
 5810TIP3   OH238920   0.533   3.779   5.568 -0.0764  0.3324 -0.3636
 5810TIP3    H138921   0.475   3.830   5.511  0.7525  2.0026  0.2056
 5810TIP3    H238922   0.614   3.770   5.518 -0.9180 -2.5214 -1.4068
 5811TIP3   OH238923   1.536   3.838  14.745 -0.0413 -0.1610 -0.0531
 5811TIP3    H138924   1.553   3.747  14.720  1.5283 -0.1924  0.9550
 5811TIP3    H238925   1.453   3.835  14.793  0.4703 -1.2606  0.8229
 5812TIP3   OH238926   0.201   1.013  13.125 -0.2785 -0.2354 -0.4045
 5812TIP3    H138927   0.111   1.030  13.097 -0.2156  0.5643 -0.1462
 5812TIP3    H238928   0.255   1.030  13.048 -0.2586  0.2725 -0.2777
 5813TIP3   OH238929   1.331   3.988  13.662  0.7251 -0.5758  0.0260
 5813TIP3    H138930   1.286   3.928  13.603 -1.2603  2.4826 -1.8260
 5813TIP3    H238931   1.264   4.013  13.726  1.9087 -1.2748  1.6168
 5814TIP3   OH238932   1.250   5.637  11.622  0.7314 -0.4580 -0.0470
 5814TIP3    H138933   1.300   5.620  11.702 -0.3015 -2.3582  0.2732
 5814TIP3    H238934   1.177   5.692  11.650 -0.6948 -2.6220  0.8339
 5815TIP3   OH238935   1.786   6.637   5.953 -0.6723  0.3076 -0.5116
 5815TIP3    H138936   1.798   6.680   6.038  0.5634 -0.8084 -0.0999
 5815TIP3    H238937   1.691   6.627   5.945 -0.8238  0.7681  0.5583
 5816TIP3   OH238938   0.555   0.031   1.759  0.3061 -0.8301  0.1421
 5816TIP3    H138939   0.521  -0.019   1.684 -3.2176  1.6602 -0.1337
 5816TIP3    H238940   0.485   0.091   1.782  2.9056  1.5103  2.7637
 5817TIP3   OH238941   6.044   0.550   6.064  0.0455  0.4742 -0.1370
 5817TIP3    H138942   6.030   0.606   5.988 -0.0896 -0.1482 -0.5764
 5817TIP3    H238943   6.114   0.490   6.038 -1.1235 -0.8364 -0.4003
 5818TIP3   OH238944   1.218   4.943  16.305 -0.1098 -0.1544 -0.4738
 5818TIP3    H138945   1.228   4.848  16.312 -0.7813 -0.3165 -1.6151
 5818TIP3    H238946   1.304   4.974  16.275 -0.0676 -0.4683 -0.6833
 5819TIP3   OH238947   5.489   4.585  17.178  0.1618  0.2423  0.3423
 5819TIP3    H138948   5.399   4.600  17.206 -0.0182  1.3218 -0.7077
 5819TIP3    H238949   5.504   4.652  17.111  1.3788 -0.6378 -0.2945
 5820TIP3   OH238950   3.377   2.983   4.018 -0.7187  0.1424 -0.2033
 5820TIP3    H138951   3.338   2.896   4.027 -1.0129  0.2295 -0.5966
 5820TIP3    H238952   3.303   3.040   3.994  0.0243 -0.1857 -3.9683
 5821TIP3   OH238953   1.453   0.782   1.258  0.2956 -0.4918 -0.3794
 5821TIP3    H138954   1.517   0.744   1.319  1.5325  0.0347 -1.2875
 5821TIP3    H238955   1.373   0.733   1.273  0.1275  0.4485  2.5748
 5822TIP3   OH238956   6.641   0.280  16.943 -0.0653  0.0688 -0.1258
 5822TIP3    H138957   6.611   0.276  17.034 -0.6679  2.8862 -0.1195
 5822TIP3    H238958   6.714   0.341  16.944  0.0982 -0.0712 -1.5091
 5823TIP3   OH238959   6.149   4.723   3.119 -0.2652 -0.2291 -0.6922
 5823TIP3    H138960   6.087   4.734   3.191 -0.0367 -0.7995 -0.3981
 5823TIP3    H238961   6.235   4.732   3.159 -0.1138 -1.2902 -0.7320
 5824TIP3   OH238962   4.344   0.717   2.178 -0.0624  0.1849 -0.1565
 5824TIP3    H138963   4.435   0.747   2.172 -0.2544  0.8165  0.0534
 5824TIP3    H238964   4.321   0.726   2.271 -0.3439  0.0528 -0.2117
 5825TIP3   OH238965   1.578   2.565  16.012  0.1658 -0.3304 -0.4259
 5825TIP3    H138966   1.563   2.636  16.075  1.9468 -0.5543  0.3144
 5825TIP3    H238967   1.492   2.523  16.003 -0.1237 -0.4211  2.0604
 5826TIP3   OH238968   5.933   5.768  15.253  0.0315  0.0206  0.0892
 5826TIP3    H138969   5.850   5.733  15.220 -0.1020  0.6256 -0.2203
 5826TIP3    H238970   5.999   5.737  15.192  0.0143 -0.3236  0.2438
 5827TIP3   OH238971   3.905   2.929  13.649 -0.9649 -0.7499 -0.2116
 5827TIP3    H138972   3.985   2.976  13.670 -0.7070 -1.6029  0.8181
 5827TIP3    H238973   3.841   2.997  13.628 -0.5514  0.0565  1.0428
 5828TIP3   OH238974   3.625   6.207   2.398  0.7698  0.6460 -0.1816
 5828TIP3    H138975   3.606   6.220   2.305  1.0657  1.6141 -0.1225
 5828TIP3    H238976   3.720   6.195   2.402  1.0689  2.7214  0.1721
 5829TIP3   OH238977   0.612   0.959  13.724  0.4115 -0.2492 -0.3106
 5829TIP3    H138978   0.701   0.988  13.700  0.0676  0.5750 -0.6263
 5829TIP3    H238979   0.560   0.976  13.645 -0.5455  1.5724  0.6679
 5830TIP3   OH238980   3.212   4.528  15.616  0.1026  0.1716  0.0848
 5830TIP3    H138981   3.164   4.570  15.688  0.1671  2.3107 -1.0553
 5830TIP3    H238982   3.183   4.574  15.538  1.9685 -0.3418 -0.9622
 5831TIP3   OH238983   2.148   5.160  16.469 -0.0751 -0.0741  0.2115
 5831TIP3    H138984   2.060   5.139  16.436 -0.4342  1.5143  0.0983
 5831TIP3    H238985   2.137   5.243  16.515  1.1374 -0.4787  1.2787
 5832TIP3   OH238986   4.260   6.290   1.221  0.4972  0.0470  0.3385
 5832TIP3    H138987   4.351   6.310   1.200  0.4997  0.0053  0.3090
 5832TIP3    H238988   4.213   6.371   1.205  0.3155 -0.2927 -0.9421
 5833TIP3   OH238989   4.336   1.667  12.829 -0.3934  0.3679  0.0874
 5833TIP3    H138990   4.415   1.673  12.775 -0.0368  0.1361  0.5813
 5833TIP3    H238991   4.326   1.574  12.847 -0.2945  0.4813  0.7427
 5834TIP3   OH238992   4.266   3.674  16.054 -0.3836  0.6301 -0.1401
 5834TIP3    H138993   4.240   3.582  16.045 -0.4925  0.2011  3.2050
 5834TIP3    H238994   4.199   3.722  16.005 -1.0017 -0.9906 -0.9860
 5835TIP3   OH238995   2.094   0.847  11.462  0.1768  0.3672 -0.5961
 5835TIP3    H138996   2.157   0.861  11.533  0.1449 -1.6287 -0.1144
 5835TIP3    H238997   2.012   0.824  11.506  0.4047 -1.8680 -1.2095
 5836TIP3   OH238998   1.560   1.374   3.974 -0.1934 -0.3740 -0.4722
 5836TIP3    H138999   1.474   1.332   3.962 -0.2706 -0.7433  1.1693
 5836TIP3    H239000   1.621   1.317   3.927 -0.8585  0.0968 -1.9861
 5837TIP3   OH239001   1.302   0.707   4.505  0.0061 -0.0558 -0.4980
 5837TIP3    H139002   1.262   0.743   4.426 -0.0543  0.9652 -0.0135
 5837TIP3    H239003   1.266   0.759   4.576  1.8841  0.6304  0.0027
 5838TIP3   OH239004   0.965   5.006  12.247  0.1264 -0.7053 -1.1941
 5838TIP3    H139005   0.870   5.001  12.250  0.0782 -0.3869 -1.9937
 5838TIP3    H239006   0.989   5.057  12.324 -0.4180  0.1315 -1.5705
 5839TIP3   OH239007   4.173   3.049   3.763  0.1910  0.4808 -0.3295
 5839TIP3    H139008   4.093   2.997   3.770  0.4702 -0.2649 -2.1201
 5839TIP3    H239009   4.200   3.066   3.853 -2.5186  1.6341  0.3516
 5840TIP3   OH239010   3.760   2.271   5.331  0.0319 -0.6780 -0.7685
 5840TIP3    H139011   3.741   2.303   5.420  0.0479 -0.8581 -0.6986
 5840TIP3    H239012   3.674   2.251   5.294  0.0975 -2.0748 -0.2326
 5841TIP3   OH239013   4.880   1.125   3.733 -0.0116 -0.5173 -0.2499
 5841TIP3    H139014   4.828   1.048   3.710  0.4133 -1.3293  1.3850
 5841TIP3    H239015   4.967   1.091   3.752  0.9476  0.7322 -2.1050
 5842TIP3   OH239016   0.523   3.598   6.129 -0.6814 -0.5246  0.4675
 5842TIP3    H139017   0.562   3.594   6.216 -0.2448 -0.2619  0.2881
 5842TIP3    H239018   0.588   3.645   6.076 -0.4076 -1.7169 -0.2834
 5843TIP3   OH239019   5.910   2.210   6.582  0.2734  0.1357 -0.4699
 5843TIP3    H139020   5.917   2.305   6.573  2.5677  0.1761  0.9056
 5843TIP3    H239021   5.821   2.196   6.615 -0.1087  1.7954 -0.6869
 5844TIP3   OH239022   6.565   0.655  12.898 -0.2833  0.4140 -0.7651
 5844TIP3    H139023   6.510   0.637  12.822  0.1662  0.0297 -0.9979
 5844TIP3    H239024   6.585   0.748  12.892 -3.1793  1.3000  0.8009
 5845TIP3   OH239025   1.331   5.664   5.953 -0.1652 -0.1038  0.0959
 5845TIP3    H139026   1.321   5.596   5.886 -1.1382  0.4098 -0.3083
 5845TIP3    H239027   1.248   5.662   6.001 -0.2128  0.8076  0.0610
 5846TIP3   OH239028   0.472   2.872  13.345 -0.1493  0.4921 -0.0813
 5846TIP3    H139029   0.556   2.828  13.349 -1.0619 -1.5095 -1.5399
 5846TIP3    H239030   0.419   2.829  13.413 -0.4984  0.6198 -0.2688
 5847TIP3   OH239031   3.974   0.272   5.464 -0.0163 -0.3567 -0.3719
 5847TIP3    H139032   4.007   0.361   5.475 -1.6678  0.2534 -0.0145
 5847TIP3    H239033   3.965   0.238   5.553 -0.5229 -0.4148 -0.4383
 5848TIP3   OH239034   6.757   5.433  13.888 -0.4463 -0.3816 -0.1527
 5848TIP3    H139035   6.772   5.349  13.845 -1.4701 -0.1757 -0.9473
 5848TIP3    H239036   6.725   5.491  13.819 -2.7399 -0.2212  0.9239
 5849TIP3   OH239037   0.120   2.177  14.357  0.2897 -0.3120 -0.6907
 5849TIP3    H139038   0.141   2.265  14.328 -0.4504  0.8439  2.0352
 5849TIP3    H239039   0.102   2.129  14.275  2.7768  1.4177 -2.3958
 5850TIP3   OH239040   5.361   6.178  11.644 -0.2832 -0.7388  0.3951
 5850TIP3    H139041   5.280   6.127  11.649 -0.2280 -0.9788 -0.7816
 5850TIP3    H239042   5.431   6.112  11.644  0.0043 -0.5050  2.3312
 5851TIP3   OH239043   3.354   2.945  13.859 -0.4927  0.1272 -0.2892
 5851TIP3    H139044   3.291   3.014  13.836 -0.6466  0.7765  1.8297
 5851TIP3    H239045   3.439   2.989  13.855 -0.6364  0.6883  1.6370
 5852TIP3   OH239046   2.693   2.024   4.950  0.2529  0.4777  0.9448
 5852TIP3    H139047   2.674   1.945   5.000  1.2285  1.0960  2.3380
 5852TIP3    H239048   2.785   2.017   4.927 -0.1576  0.2386 -0.7730
 5853TIP3   OH239049   2.343   3.503   1.944  0.2085  0.4315  0.6487
 5853TIP3    H139050   2.403   3.470   2.011  0.5714  0.5895  0.3990
 5853TIP3    H239051   2.375   3.590   1.923 -0.2196  0.5913  0.6472
 5854TIP3   OH239052   3.277   3.295   2.051  0.7018 -0.3382 -0.3098
 5854TIP3    H139053   3.307   3.255   1.969 -0.7574 -0.8835 -0.6191
 5854TIP3    H239054   3.305   3.235   2.119  0.4951 -0.7404 -0.5734
 5855TIP3   OH239055   4.516   5.406  10.798  0.2230  0.0806 -0.4425
 5855TIP3    H139056   4.438   5.450  10.763 -1.3712 -1.0946  1.3877
 5855TIP3    H239057   4.498   5.313  10.787  0.0193 -0.3252  2.4739
 5856TIP3   OH239058   4.858   4.031   1.646 -1.0351  0.0971 -0.2002
 5856TIP3    H139059   4.786   4.087   1.676 -1.2762 -0.7856  0.9441
 5856TIP3    H239060   4.935   4.065   1.691 -0.3544  2.0318 -2.6004
 5857TIP3   OH239061   5.639   2.078   0.343  0.5156 -0.0625  0.0838
 5857TIP3    H139062   5.669   1.997   0.384  0.8856  0.4077  0.7468
 5857TIP3    H239063   5.559   2.101   0.391  1.5180  1.0541  1.2773
 5858TIP3   OH239064   1.666   0.435   6.564 -0.6219  0.1542 -0.1811
 5858TIP3    H139065   1.679   0.430   6.469  0.6339  0.0291 -0.0070
 5858TIP3    H239066   1.751   0.460   6.599 -1.3932  1.5208  0.8168
 5859TIP3   OH239067   4.001   1.029   5.301 -0.0316  0.3392  0.6313
 5859TIP3    H139068   4.079   0.986   5.267 -0.1588 -0.9656  1.8980
 5859TIP3    H239069   3.979   1.095   5.235  1.6614  0.1911 -0.1254
 5860TIP3   OH239070   1.096   4.330   5.214 -0.2244  0.6381  0.1823
 5860TIP3    H139071   1.164   4.336   5.147  0.0924  0.2369  0.4590
 5860TIP3    H239072   1.111   4.406   5.271  0.7121 -0.0366  0.8847
 5861TIP3   OH239073   2.647   1.560  15.825  0.1219  0.1616 -0.0334
 5861TIP3    H139074   2.734   1.569  15.786 -0.1005  2.5825 -0.0981
 5861TIP3    H239075   2.592   1.620  15.775 -0.7154  1.5455  2.4354
 5862TIP3   OH239076   3.175   3.796  11.837  0.3235  0.2258 -0.8914
 5862TIP3    H139077   3.152   3.716  11.885  3.8971 -0.5105 -0.0982
 5862TIP3    H239078   3.113   3.861  11.868 -0.1017 -1.2552  1.6740
 5863TIP3   OH239079   5.655   5.236  13.845  0.5033 -0.2984  0.2943
 5863TIP3    H139080   5.618   5.279  13.768  0.7351 -0.0606  0.3095
 5863TIP3    H239081   5.750   5.250  13.836  0.7470 -2.2450 -0.5605
 5864TIP3   OH239082   3.630   1.981   5.132  0.1846  0.2192 -0.1272
 5864TIP3    H139083   3.722   1.969   5.156  0.0468  1.4626  1.0895
 5864TIP3    H239084   3.599   1.892   5.116  1.0366 -0.4270  1.5849
 5865TIP3   OH239085   3.197   0.327  13.098  0.4453 -0.7714 -0.0442
 5865TIP3    H139086   3.266   0.266  13.072  0.4685 -1.1091  0.7854
 5865TIP3    H239087   3.173   0.372  13.017  1.7068 -0.5789 -0.3246
 5866TIP3   OH239088   5.727   1.161   2.579 -0.1093 -0.5362 -0.0825
 5866TIP3    H139089   5.655   1.098   2.581  0.3892 -1.1380 -0.5084
 5866TIP3    H239090   5.805   1.109   2.595  0.3493 -0.0827 -0.7671
 5867TIP3   OH239091   4.719   1.653  13.951 -0.1611 -0.1726 -0.2489
 5867TIP3    H139092   4.702   1.672  14.043  0.2642  0.0087 -0.1996
 5867TIP3    H239093   4.811   1.625  13.949 -0.1456 -0.1045 -0.6250
 5868TIP3   OH239094   5.042   5.696   2.103  0.2139 -0.0301 -0.1301
 5868TIP3    H139095   5.080   5.693   2.191 -0.2595  1.7711  0.1808
 5868TIP3    H239096   5.115   5.677   2.044  0.9298  0.4503  0.5866
 5869TIP3   OH239097   3.115   5.229   2.515  0.1813  0.7760  0.4428
 5869TIP3    H139098   3.086   5.311   2.556  2.1542  0.3636  2.8662
 5869TIP3    H239099   3.203   5.215   2.548  0.0331 -2.1849 -0.1248
 5870TIP3   OH239100   0.337   2.123   3.836 -0.3122  0.3130  0.4216
 5870TIP3    H139101   0.343   2.033   3.867 -0.2688  0.0572 -0.2976
 5870TIP3    H239102   0.245   2.147   3.850 -0.3131  0.1721  0.6609
 5871TIP3   OH239103   1.821   3.007   6.261 -0.3933 -0.6258 -0.1633
 5871TIP3    H139104   1.915   3.011   6.277 -0.4101 -1.8308  0.3090
 5871TIP3    H239105   1.808   2.926   6.213 -1.3699 -1.3665  1.2704
 5872TIP3   OH239106   4.974   1.626   4.809  0.3444  0.4120  0.1005
 5872TIP3    H139107   4.937   1.685   4.743  2.8648 -0.1604 -1.9898
 5872TIP3    H239108   4.961   1.539   4.773  1.2675  0.0499  0.6049
 5873TIP3   OH239109   2.922   4.999  15.237 -0.0147  0.1821 -0.6932
 5873TIP3    H139110   2.972   4.956  15.307  0.5919  0.9897 -0.6242
 5873TIP3    H239111   2.879   4.926  15.192  0.9924 -0.5127 -0.5749
 5874TIP3   OH239112   2.203   4.057   4.036 -0.2511 -0.2208  0.0291
 5874TIP3    H139113   2.271   4.002   4.074  0.4683  0.6198  0.0075
 5874TIP3    H239114   2.245   4.098   3.960 -1.4913 -1.4483 -1.3884
 5875TIP3   OH239115   0.723   2.024   3.754 -0.3918 -0.4532  0.2757
 5875TIP3    H139116   0.799   1.981   3.794  0.6198 -0.0688 -1.1338
 5875TIP3    H239117   0.735   2.117   3.774 -0.4736 -0.3948  0.0593
 5876TIP3   OH239118   6.064   4.904  14.290 -0.0762  0.1034  0.2814
 5876TIP3    H139119   6.089   4.820  14.328  0.4938  1.1099  2.2380
 5876TIP3    H239120   5.969   4.897  14.276  0.0521 -1.0332 -0.1110
 5877TIP3   OH239121   6.170   1.423   3.818  0.2558 -0.2834 -0.5191
 5877TIP3    H139122   6.090   1.476   3.813 -0.1496 -0.9009 -0.6961
 5877TIP3    H239123   6.153   1.360   3.888  1.7422  1.4331  1.4983
 5878TIP3   OH239124   5.525   5.956   0.737 -0.0806  0.9290 -0.3445
 5878TIP3    H139125   5.550   5.864   0.744 -0.4021  0.8058 -0.7666
 5878TIP3    H239126   5.474   5.973   0.817  0.2883  0.8422 -0.0884
 5879TIP3   OH239127   1.890   6.339  11.826  0.1030  0.1199 -0.5132
 5879TIP3    H139128   1.976   6.312  11.794 -0.4753  0.2105 -2.2872
 5879TIP3    H239129   1.900   6.430  11.851  0.1608  0.6774 -2.3928
 5880TIP3   OH239130   5.513   3.145  15.205  0.1343  0.1177  0.3353
 5880TIP3    H139131   5.493   3.237  15.186 -1.2026 -0.1069  0.5830
 5880TIP3    H239132   5.459   3.095  15.144  1.9396 -0.5210 -0.8206
 5881TIP3   OH239133   5.428   2.392   4.048  0.5151 -0.0069 -0.2095
 5881TIP3    H139134   5.493   2.437   3.994 -0.0491  2.4900  1.0341
 5881TIP3    H239135   5.406   2.455   4.116 -2.2296 -1.2673  0.2015
 5882TIP3   OH239136   2.193   5.924  17.031 -0.0398  0.5029 -0.1937
 5882TIP3    H139137   2.165   5.953  16.944  1.0062  0.3804 -0.5803
 5882TIP3    H239138   2.238   6.000  17.068 -0.7234  0.6493  0.3684
 5883TIP3   OH239139   4.934   5.357  11.759 -0.1016  0.4975  0.5497
 5883TIP3    H139140   4.930   5.295  11.831 -2.0536  0.7920  0.7327
 5883TIP3    H239141   4.945   5.302  11.681  0.4935  0.0849  0.9156
 5884TIP3   OH239142   2.339   2.486   5.882 -0.3316  0.0810 -0.1745
 5884TIP3    H139143   2.258   2.535   5.864 -1.2364  0.0592  3.1625
 5884TIP3    H239144   2.354   2.498   5.976  3.5921  0.0237 -0.6272
 5885TIP3   OH239145   2.224   2.993   3.905 -0.6097  0.1990 -0.3383
 5885TIP3    H139146   2.204   2.933   3.977  0.2370 -0.2391 -0.4478
 5885TIP3    H239147   2.140   3.010   3.863 -0.9074 -0.6713 -0.1152
 5886TIP3   OH239148   1.537   6.079  12.508 -0.4273 -0.3100 -0.2654
 5886TIP3    H139149   1.607   6.075  12.443 -0.2067 -0.1217 -0.0400
 5886TIP3    H239150   1.574   6.037  12.586  0.1601  1.5531  0.5130
 5887TIP3   OH239151   3.673   2.878  14.661 -0.3628  0.3565 -0.5444
 5887TIP3    H139152   3.644   2.948  14.720  0.1887  0.2073 -0.0895
 5887TIP3    H239153   3.753   2.912  14.622  0.7468 -0.5935  0.8029
 5888TIP3   OH239154   2.799   3.180   2.924 -0.3234  0.5438  0.2579
 5888TIP3    H139155   2.857   3.255   2.939 -1.5530  1.3755  1.0654
 5888TIP3    H239156   2.827   3.144   2.840  0.7860  1.4492  0.2171
 5889TIP3   OH239157   4.499   4.969  11.831 -0.2406  0.1966 -0.1985
 5889TIP3    H139158   4.436   5.037  11.857 -0.6612 -0.4764  0.5802
 5889TIP3    H239159   4.575   5.018  11.800  0.6504  1.1707  3.0630
 5890TIP3   OH239160   1.889   2.058  15.795 -0.4287 -0.1758 -0.0944
 5890TIP3    H139161   1.850   1.999  15.730  0.2797 -0.2193 -0.4881
 5890TIP3    H239162   1.864   2.145  15.765 -0.1313 -0.1978 -0.4112
 5891TIP3   OH239163   1.465   1.787   1.438  0.6074  0.8369 -0.4367
 5891TIP3    H139164   1.492   1.695   1.429  0.5536  0.5311  1.8531
 5891TIP3    H239165   1.375   1.789   1.404  0.6296  0.0530 -0.5646
 5892TIP3   OH239166   1.837   4.853   2.574 -0.0088 -0.2055  0.2406
 5892TIP3    H139167   1.752   4.894   2.557  0.8495  1.5487 -0.0803
 5892TIP3    H239168   1.886   4.920   2.623  0.9011 -1.5075  1.1644
 5893TIP3   OH239169   5.499   2.585  12.566  0.4790 -0.9500 -0.0908
 5893TIP3    H139170   5.441   2.597  12.641 -1.3364  0.3123 -1.6077
 5893TIP3    H239171   5.557   2.513  12.592 -0.1412 -0.6329  2.4445
 5894TIP3   OH239172   3.754   3.150   2.711  0.6863  0.5983  0.6723
 5894TIP3    H139173   3.781   3.071   2.665 -0.0710  1.0937 -0.6893
 5894TIP3    H239174   3.770   3.221   2.648 -0.4091  1.2937  1.1449
 5895TIP3   OH239175   2.339   4.037   2.231 -0.1816  0.6179  0.0196
 5895TIP3    H139176   2.406   4.104   2.220 -0.0773  0.1754 -2.7710
 5895TIP3    H239177   2.375   3.978   2.297 -0.4786  3.3885  2.9077
 5896TIP3   OH239178   2.209   1.706   6.433  0.6815 -0.5845  0.1255
 5896TIP3    H139179   2.150   1.695   6.508  0.6602  0.2211  0.2271
 5896TIP3    H239180   2.288   1.657   6.458  0.3038 -1.1464  0.2498
 5897TIP3   OH239181   2.091   5.826   2.075  0.0160  0.6180 -0.1446
 5897TIP3    H139182   2.081   5.892   2.144  1.1750  0.4412  0.2005
 5897TIP3    H239183   2.144   5.757   2.114  1.1254  0.7414 -1.3593
 5898TIP3   OH239184   0.343   4.782  13.003 -0.1346  0.4003 -0.5065
 5898TIP3    H139185   0.292   4.723  13.060 -2.7982  2.2362 -0.8189
 5898TIP3    H239186   0.423   4.733  12.984 -1.0092 -1.9924  1.4008
 5899TIP3   OH239187   5.422   3.010   0.795  0.0811  0.0376 -0.1995
 5899TIP3    H139188   5.353   3.076   0.790  0.9304  0.9433 -0.4213
 5899TIP3    H239189   5.394   2.941   0.734 -1.1993 -0.1946  0.6286
 5900TIP3   OH239190   2.499   6.751   0.351  0.3137  0.1983 -0.0403
 5900TIP3    H139191   2.538   6.831   0.315  0.1200  1.0667  1.5967
 5900TIP3    H239192   2.481   6.697   0.274  2.9021  0.5669 -1.0014
 5901TIP3   OH239193   0.908   2.651   2.692 -0.2627 -0.5261 -0.4753
 5901TIP3    H139194   0.977   2.649   2.626 -1.3778  2.4195 -1.8678
 5901TIP3    H239195   0.849   2.579   2.667  1.2408 -1.8561 -0.3748
 5902TIP3   OH239196   3.107   3.706  14.892 -0.4687 -0.3489  0.4274
 5902TIP3    H139197   3.073   3.771  14.831  1.1330  0.9848  0.8926
 5902TIP3    H239198   3.100   3.623  14.845  0.7931  0.6500 -1.6420
 5903TIP3   OH239199   3.513   0.796   3.087 -0.6777 -0.0114 -0.1200
 5903TIP3    H139200   3.514   0.771   3.179  2.0886 -0.0293 -0.0616
 5903TIP3    H239201   3.453   0.870   3.082 -0.0967  0.6583  1.9242
 5904TIP3   OH239202   6.742   6.372   4.722 -0.2836  0.3306 -0.4594
 5904TIP3    H139203   6.701   6.294   4.759  0.8774 -0.5109 -0.8814
 5904TIP3    H239204   6.768   6.424   4.798  1.5262 -1.0912 -0.0253
 5905TIP3   OH239205   3.037   1.311  17.205 -0.2095 -0.1634  0.1801
 5905TIP3    H139206   2.970   1.298  17.272 -0.0285  1.8866  0.8295
 5905TIP3    H239207   2.988   1.332  17.125 -0.3843 -0.4745  0.2068
 5906TIP3   OH239208   5.031   0.546  11.085  0.4366  0.4938  0.0881
 5906TIP3    H139209   4.970   0.598  11.137  0.0653 -1.4995  1.7664
 5906TIP3    H239210   5.116   0.589  11.097  0.0728  0.9597  1.0554
 5907TIP3   OH239211   3.812   0.787   1.492 -0.3049 -0.4508 -0.2027
 5907TIP3    H139212   3.775   0.862   1.445 -0.7528 -0.1918  0.5543
 5907TIP3    H239213   3.739   0.727   1.503 -0.8242  0.5005  2.1952
 5908TIP3   OH239214   3.427   3.683  12.349 -0.2106  0.4196 -0.0704
 5908TIP3    H139215   3.404   3.731  12.269  0.3563 -0.1606 -0.5930
 5908TIP3    H239216   3.467   3.749  12.406  0.3261  0.6352 -0.6806
 5909TIP3   OH239217   0.334   5.649   5.358 -0.3590 -0.0362  0.2588
 5909TIP3    H139218   0.346   5.738   5.324 -0.1589 -0.5674 -1.1240
 5909TIP3    H239219   0.333   5.594   5.280 -1.8340 -1.1117  1.0036
 5910TIP3   OH239220   0.492   1.081   4.159  0.1625 -0.4289  0.0590
 5910TIP3    H139221   0.458   1.093   4.247  0.8650 -0.0815  0.2926
 5910TIP3    H239222   0.419   1.043   4.110 -1.3095  2.2639 -0.0319
 5911TIP3   OH239223   3.544   2.583   3.548 -0.9507 -0.0023  0.1899
 5911TIP3    H139224   3.569   2.584   3.641 -2.5855 -0.4193  0.6719
 5911TIP3    H239225   3.592   2.510   3.511  1.4260  1.4515  0.1480
 5912TIP3   OH239226   2.328   2.692   0.444  0.2480 -0.0248  0.1374
 5912TIP3    H139227   2.415   2.717   0.476 -0.1404  0.5893  0.7579
 5912TIP3    H239228   2.268   2.745   0.497 -0.4847 -0.1399 -0.5723
 5913TIP3   OH239229   2.672   4.675   0.836  0.0319 -0.3852  0.2229
 5913TIP3    H139230   2.586   4.650   0.872 -1.4235  2.0058 -1.2855
 5913TIP3    H239231   2.698   4.751   0.889  0.1802  0.1774 -0.6385
 5914TIP3   OH239232   5.749   4.942  14.388  0.5416 -0.5921 -0.5194
 5914TIP3    H139233   5.800   5.008  14.434 -0.1677 -1.4947  1.6988
 5914TIP3    H239234   5.746   4.972  14.297  2.0466  1.2574 -0.0059
 5915TIP3   OH239235   0.089   6.576   3.870  0.3092  0.2463  0.1213
 5915TIP3    H139236   0.163   6.516   3.865  0.4577  0.5180 -1.3045
 5915TIP3    H239237   0.096   6.630   3.791 -1.2538  0.4538  0.0906
 5916TIP3   OH239238   6.161   0.601  12.954 -0.2789 -0.3413 -0.6366
 5916TIP3    H139239   6.213   0.555  13.021 -0.0113  0.8373 -0.0024
 5916TIP3    H239240   6.071   0.590  12.982 -0.1474  0.4368  0.1270
 5917TIP3   OH239241   4.290   6.612   1.527 -0.1891 -0.0639 -0.4676
 5917TIP3    H139242   4.260   6.668   1.455 -0.2634 -1.7018 -1.7843
 5917TIP3    H239243   4.259   6.656   1.606 -2.4780  0.4343 -1.5535
 5918TIP3   OH239244   6.214   1.124   5.347 -0.6161  0.0117  0.3875
 5918TIP3    H139245   6.177   1.203   5.387  0.1852  0.2500  0.6793
 5918TIP3    H239246   6.149   1.098   5.282  0.4415  2.7711 -2.0571
 5919TIP3   OH239247   3.812   1.056  11.832  0.5321  0.4803  0.2620
 5919TIP3    H139248   3.785   1.053  11.924  1.2607  0.6701  0.4835
 5919TIP3    H239249   3.882   0.992  11.825 -2.6614 -3.3029 -1.2645
 5920TIP3   OH239250   1.936   2.211   4.963  0.9217 -0.0477 -0.0447
 5920TIP3    H139251   1.994   2.171   5.028  1.0171 -0.7594 -0.5531
 5920TIP3    H239252   1.925   2.301   4.993  0.5093 -0.5123  1.2717
 5921TIP3   OH239253   5.268   3.412  13.405 -0.4666  0.3977 -0.7613
 5921TIP3    H139254   5.359   3.401  13.432 -0.3199  0.2393 -1.2888
 5921TIP3    H239255   5.218   3.420  13.486  0.3346  3.3107 -0.4716
 5922TIP3   OH239256   0.532   5.420  13.984  0.1962  0.1909 -0.0967
 5922TIP3    H139257   0.555   5.504  13.945  0.8082 -1.6224 -4.0892
 5922TIP3    H239258   0.464   5.441  14.048 -1.7894  3.5318 -2.9464
 5923TIP3   OH239259   1.565   4.005   2.990 -0.4087 -0.4445  0.2888
 5923TIP3    H139260   1.475   3.992   2.960  0.0207  0.0920 -1.2938
 5923TIP3    H239261   1.563   4.087   3.040  0.0219  2.3740 -3.8324
 5924TIP3   OH239262   0.002   4.170   2.758 -0.1121  0.2869 -0.2833
 5924TIP3    H139263   0.039   4.258   2.750  0.0012  0.0761 -3.0689
 5924TIP3    H239264  -0.092   4.183   2.752 -0.1282  0.2690 -0.0708
 5925TIP3   OH239265   1.362   5.723  13.139  0.0643 -0.3903 -0.7091
 5925TIP3    H139266   1.335   5.645  13.090 -1.2577 -0.5767  0.2585
 5925TIP3    H239267   1.282   5.751  13.184  0.1732  2.2606 -1.9783
 5926TIP3   OH239268   6.512   6.328   6.349 -0.3958  0.5023  0.5502
 5926TIP3    H139269   6.421   6.345   6.327 -0.6698 -2.9280 -1.8018
 5926TIP3    H239270   6.562   6.372   6.280 -0.1674  2.2546  1.7553
 5927TIP3   OH239271   1.889   3.226  11.777 -0.6822  0.1643 -0.1927
 5927TIP3    H139272   1.796   3.205  11.786 -0.8875  1.4576  1.1653
 5927TIP3    H239273   1.899   3.256  11.687 -1.2371 -1.4616 -0.8233
 5928TIP3   OH239274   3.495   5.674  13.080 -0.0006 -0.2274 -0.1276
 5928TIP3    H139275   3.568   5.730  13.107  1.0808 -1.0001 -1.3343
 5928TIP3    H239276   3.512   5.590  13.122  0.5355 -0.7984 -1.4533
 5929TIP3   OH239277   2.952   6.494   3.528  0.1303  0.1210 -0.1304
 5929TIP3    H139278   3.014   6.430   3.563  0.6661  1.4461  1.5093
 5929TIP3    H239279   2.890   6.442   3.476  0.8736 -1.6310  0.6525
 5930TIP3   OH239280   3.783   1.823   3.315  0.1837  0.3632 -0.4692
 5930TIP3    H139281   3.787   1.750   3.254 -1.7657  0.8304 -1.2469
 5930TIP3    H239282   3.863   1.873   3.299  0.1332 -0.0069 -2.0434
 5931TIP3   OH239283   0.346   2.063   3.236 -0.5105  0.2799 -0.3606
 5931TIP3    H139284   0.364   1.976   3.201 -1.3327  0.2042 -0.6108
 5931TIP3    H239285   0.364   2.122   3.163  1.5721  0.4916  0.2527
 5932TIP3   OH239286   0.473   6.131  14.713 -0.1511 -0.5485 -0.0145
 5932TIP3    H139287   0.552   6.150  14.762  0.1400 -0.3251 -0.5572
 5932TIP3    H239288   0.488   6.170  14.627 -0.7738 -0.6641 -0.1836
 5933TIP3   OH239289   5.133   0.965   5.109  0.0419 -0.1847  0.6933
 5933TIP3    H139290   5.164   1.051   5.079  0.3444 -0.5883 -0.2048
 5933TIP3    H239291   5.172   0.954   5.195  0.4980  0.3208  0.5571
 5934TIP3   OH239292   2.395   1.576   4.832  0.0916  0.1842  0.6162
 5934TIP3    H139293   2.318   1.538   4.874  1.2253 -0.3026  2.3933
 5934TIP3    H239294   2.382   1.671   4.837 -0.2169  0.1104  1.2708
 5935TIP3   OH239295   3.046   0.150  11.433 -0.3316  0.3715  0.2145
 5935TIP3    H139296   2.959   0.190  11.430 -0.6306 -0.2426  0.5392
 5935TIP3    H239297   3.105   0.221  11.410 -0.9132  0.8137  0.0473
 5936TIP3   OH239298   6.794   3.676   5.293 -0.9626  0.5260  0.1694
 5936TIP3    H139299   6.803   3.734   5.218 -0.5731  0.6513  0.3121
 5936TIP3    H239300   6.842   3.597   5.269 -0.7808  0.5924  0.3140
 5937TIP3   OH239301   0.378   4.581  16.794 -0.4028  0.5452 -0.9051
 5937TIP3    H139302   0.346   4.529  16.868 -0.4526  1.0373 -0.5731
 5937TIP3    H239303   0.409   4.517  16.731  0.7823  0.1249  0.0490
 5938TIP3   OH239304   2.700   0.459  16.648  0.0548 -0.3118 -0.0141
 5938TIP3    H139305   2.638   0.519  16.607  2.9398  2.4148 -0.8120
 5938TIP3    H239306   2.707   0.488  16.738 -0.8705 -1.5847  0.4939
 5939TIP3   OH239307   1.562   0.316  13.786  0.0232  0.2249 -0.4937
 5939TIP3    H139308   1.531   0.385  13.845  0.7676  0.8484 -0.8059
 5939TIP3    H239309   1.649   0.345  13.759 -1.3391  1.5017 -4.1929
 5940TIP3   OH239310   0.051   3.504  11.823  0.1801  0.3935  0.1115
 5940TIP3    H139311   0.031   3.422  11.867 -0.5112 -0.7753 -2.2265
 5940TIP3    H239312  -0.023   3.519  11.765  0.0795  2.9391  0.7594
 5941TIP3   OH239313   2.555   0.474   0.561  0.3659  0.4423 -0.4870
 5941TIP3    H139314   2.592   0.506   0.644  1.0379 -1.1363 -0.1372
 5941TIP3    H239315   2.521   0.553   0.518  0.7013  1.4068  0.9334
 5942TIP3   OH239316   2.136   3.844  14.537 -0.3663  0.0286 -0.0578
 5942TIP3    H139317   2.189   3.768  14.558 -1.9300 -0.9911  0.3418
 5942TIP3    H239318   2.140   3.851  14.442  3.0605  1.9504  0.0800
 5943TIP3   OH239319   1.398   1.220   1.812 -0.0071  0.1883 -0.5938
 5943TIP3    H139320   1.455   1.224   1.734  0.9151 -1.8578 -0.0967
 5943TIP3    H239321   1.458   1.199   1.884 -1.3578 -2.0084 -0.0369
 5944TIP3   OH239322   5.098   4.163  14.888 -0.4479 -0.2949  0.0924
 5944TIP3    H139323   5.184   4.179  14.849 -0.2806  1.2645  0.9983
 5944TIP3    H239324   5.071   4.249  14.921 -3.3156 -0.2657 -1.9732
 5945TIP3   OH239325   5.337   6.764  11.523  0.4218 -0.6269  0.3661
 5945TIP3    H139326   5.359   6.794  11.435  0.0420 -1.0145  0.1349
 5945TIP3    H239327   5.251   6.723  11.514  0.2954 -0.5029  0.9554
 5946TIP3   OH239328   3.555   2.216   4.872  0.1461  0.6704  0.1101
 5946TIP3    H139329   3.570   2.131   4.912 -0.8709  1.0523  1.3580
 5946TIP3    H239330   3.614   2.218   4.796  1.3884 -0.4790  1.0003
 5947TIP3   OH239331   4.340   1.885   2.122 -0.3071  0.1183  0.3377
 5947TIP3    H139332   4.333   1.933   2.205  2.1267  1.9650 -0.3725
 5947TIP3    H239333   4.295   1.941   2.058 -0.9171 -0.5745  0.1490
 5948TIP3   OH239334   2.924   4.613  14.580  0.4016  0.6092  0.1127
 5948TIP3    H139335   2.975   4.610  14.661 -1.5428 -1.0057  1.3446
 5948TIP3    H239336   2.906   4.706  14.567 -0.4423  0.8085  2.3366
 5949TIP3   OH239337   0.608   1.776   1.454 -0.0549 -0.7626 -0.2097
 5949TIP3    H139338   0.637   1.722   1.527 -0.8545  1.3780  1.8278
 5949TIP3    H239339   0.680   1.837   1.438  0.3102 -1.5063 -1.5993
 5950TIP3   OH239340   3.889   5.000  15.733  0.2036 -0.1976 -0.1396
 5950TIP3    H139341   3.928   5.066  15.675  2.0916  1.1389  2.4081
 5950TIP3    H239342   3.873   5.048  15.815 -0.1962 -2.4801  1.1912
 5951TIP3   OH239343   2.964   4.919  11.174 -0.5180 -0.3571 -0.5184
 5951TIP3    H139344   2.986   4.969  11.096  0.6141 -0.1920 -0.1058
 5951TIP3    H239345   2.869   4.931  11.184 -0.0646  3.4468  0.7102
 5952TIP3   OH239346   3.155   3.642  10.456  0.1060 -0.5485  0.3167
 5952TIP3    H139347   3.140   3.559  10.412  0.8374 -0.7767  0.4740
 5952TIP3    H239348   3.231   3.625  10.513  0.0289  0.1183  0.6277
 5953TIP3   OH239349   4.318   5.406   2.223 -0.5019  0.0203  0.0086
 5953TIP3    H139350   4.399   5.455   2.209 -0.2642 -0.0543  1.0497
 5953TIP3    H239351   4.256   5.471   2.256 -0.7287 -0.0222 -0.3267
 5954TIP3   OH239352   2.279   0.142   2.746 -0.5226 -0.2543 -0.0654
 5954TIP3    H139353   2.359   0.180   2.784  0.0938 -1.0543 -0.5529
 5954TIP3    H239354   2.304   0.055   2.718 -1.5014 -0.4097 -0.5004
 5955TIP3   OH239355   2.803   1.913   1.369  0.6431 -0.2355 -0.3600
 5955TIP3    H139356   2.894   1.883   1.378  1.1695  1.4147  0.1115
 5955TIP3    H239357   2.809   2.008   1.362 -0.9494 -0.1984 -2.0079
 5956TIP3   OH239358   0.583   6.269   5.541 -0.3498 -0.2290 -0.3375
 5956TIP3    H139359   0.631   6.349   5.561 -0.1400 -0.2950 -0.5688
 5956TIP3    H239360   0.596   6.256   5.447  1.3547 -1.6570  0.0454
 5957TIP3   OH239361   6.227   6.589  15.431  0.2742  0.4426  0.3844
 5957TIP3    H139362   6.163   6.601  15.362  0.4576  1.2089  0.3398
 5957TIP3    H239363   6.305   6.556  15.386 -0.7266 -2.7152  0.7083
 5958TIP3   OH239364   4.752   0.455   1.801  0.3814 -0.3015  0.2212
 5958TIP3    H139365   4.697   0.518   1.755  1.8937  1.1162  0.2498
 5958TIP3    H239366   4.828   0.443   1.743  0.1122 -2.1417  0.2046
 5959TIP3   OH239367   6.672   3.044   1.146 -0.4427 -0.1129  0.5292
 5959TIP3    H139368   6.635   3.100   1.078 -0.4546  0.1519  0.7528
 5959TIP3    H239369   6.740   2.993   1.101  0.7066  1.2392  0.6619
 5960TIP3   OH239370   3.584   2.461   6.065 -0.2826  0.2686  0.0686
 5960TIP3    H139371   3.643   2.525   6.025 -2.4920  2.5248  0.1793
 5960TIP3    H239372   3.558   2.501   6.148 -0.0808 -1.8266  1.2160
 5961TIP3   OH239373   0.003   4.591   1.541 -0.1422 -0.0766 -0.8235
 5961TIP3    H139374  -0.063   4.636   1.593  0.2484  0.5769 -0.8760
 5961TIP3    H239375   0.075   4.576   1.601 -0.5131 -1.2051 -0.6484
 5962TIP3   OH239376   1.948   5.051   6.379 -0.6897  0.8712  0.6683
 5962TIP3    H139377   1.923   4.972   6.427 -0.5882  0.4380  0.0230
 5962TIP3    H239378   1.875   5.111   6.392 -0.9043  0.5639  0.9177
 5963TIP3   OH239379   2.287   0.908  12.047 -0.4914 -0.2561 -0.6677
 5963TIP3    H139380   2.267   0.978  11.985 -0.2770  0.4341  0.0348
 5963TIP3    H239381   2.349   0.947  12.109 -0.7534 -0.9142  0.0244
 5964TIP3   OH239382   1.227   5.918   0.614  0.6801 -0.0576 -0.9473
 5964TIP3    H139383   1.150   5.865   0.633  1.9746 -0.7715  3.4095
 5964TIP3    H239384   1.297   5.855   0.600  1.2205  0.5449 -1.0162
 5965TIP3   OH239385   4.611   2.685  13.771 -0.0671 -0.2769 -0.4086
 5965TIP3    H139386   4.663   2.605  13.772 -0.7623 -0.7407 -0.5371
 5965TIP3    H239387   4.600   2.705  13.678  0.2732  0.0805 -0.3726
 5966TIP3   OH239388   0.725   6.243   1.044  0.0503  0.5934 -0.6207
 5966TIP3    H139389   0.638   6.281   1.054 -0.3759 -0.5729  0.3812
 5966TIP3    H239390   0.779   6.286   1.110 -0.0968  0.4111 -0.3805
 5967TIP3   OH239391   2.588   5.550  15.039  0.0698 -0.3189 -0.1296
 5967TIP3    H139392   2.654   5.582  15.102 -0.1303 -1.0166  0.4463
 5967TIP3    H239393   2.527   5.623  15.030  0.3074 -0.0723  0.2012
 5968TIP3   OH239394   4.374   6.113  11.369 -0.2558 -0.1412 -0.3378
 5968TIP3    H139395   4.360   6.157  11.453 -3.5933 -0.3894 -0.5970
 5968TIP3    H239396   4.407   6.027  11.392  0.2845  0.3041  0.6236
 5969TIP3   OH239397   3.727   3.126  15.406 -0.1120  0.2724  0.1970
 5969TIP3    H139398   3.643   3.135  15.450 -0.5003  1.5250 -0.7513
 5969TIP3    H239399   3.789   3.104  15.476 -1.3545 -1.6562  0.7818
 5970TIP3   OH239400   1.099   1.881   5.013  0.0598 -0.6239  0.5148
 5970TIP3    H139401   1.102   1.903   5.106 -2.7969 -2.9034  1.2799
 5970TIP3    H239402   1.137   1.794   5.007 -0.9672 -1.0488 -0.1859
 5971TIP3   OH239403   0.859   3.662  13.135 -0.5943  0.3237 -0.6077
 5971TIP3    H139404   0.947   3.635  13.161 -1.4421 -2.0303  0.0958
 5971TIP3    H239405   0.832   3.724  13.202  0.1828  0.3958 -0.3471
 5972TIP3   OH239406   2.350   3.137   6.386 -0.2328  0.3798 -0.1845
 5972TIP3    H139407   2.380   3.206   6.445  1.8552  0.2751 -1.0562
 5972TIP3    H239408   2.401   3.060   6.410 -0.3419 -0.0284 -1.2211
 5973TIP3   OH239409   3.140   5.287  16.704 -0.0117  0.4308 -0.4949
 5973TIP3    H139410   3.188   5.319  16.628  0.1630 -1.4169 -1.2273
 5973TIP3    H239411   3.080   5.221  16.668  1.7036 -2.2372  1.1688
 5974TIP3   OH239412   6.761   6.144   6.308 -0.1073 -0.5772  0.0940
 5974TIP3    H139413   6.670   6.123   6.288 -0.0657 -1.0705  0.4033
 5974TIP3    H239414   6.764   6.239   6.313 -0.5212 -0.5384 -0.3110
 5975TIP3   OH239415   6.592   6.232  16.379  0.8243  0.5375  0.5238
 5975TIP3    H139416   6.525   6.291  16.415 -0.2978 -0.4958  0.2163
 5975TIP3    H239417   6.636   6.284  16.313 -0.0473  1.1046  0.3653
 5976TIP3   OH239418   6.237   5.087   5.030  0.0315 -0.2673 -0.4637
 5976TIP3    H139419   6.288   5.142   5.090 -0.4938  0.6250 -0.8052
 5976TIP3    H239420   6.258   5.122   4.943 -1.1946  0.1661 -0.6019
 5977TIP3   OH239421   0.814   2.084   6.102 -0.3776  0.2660 -0.3687
 5977TIP3    H139422   0.870   2.027   6.154 -0.0833 -0.6288 -1.6280
 5977TIP3    H239423   0.732   2.087   6.150  0.4853  1.0522  1.1533
 5978TIP3   OH239424   1.937   1.345   5.108 -0.1724 -0.0774 -0.2417
 5978TIP3    H139425   1.893   1.311   5.030  0.7306  0.8814 -1.2081
 5978TIP3    H239426   1.882   1.418   5.137 -0.9726 -0.9659  0.5732
 5979TIP3   OH239427   3.053   0.443  17.016 -0.5816 -0.0283 -0.0467
 5979TIP3    H139428   3.024   0.502  17.085  0.3651 -0.0310  0.3638
 5979TIP3    H239429   3.092   0.500  16.950  0.4329 -0.1811  0.3992
 5980TIP3   OH239430   1.917   2.744  15.548 -0.5065  0.0735  0.3055
 5980TIP3    H139431   1.866   2.808  15.598  1.2939  1.6750  0.2145
 5980TIP3    H239432   1.995   2.793  15.519  0.3568 -1.8525 -0.8032
 5981TIP3   OH239433   5.932   4.315   5.831 -0.3032 -0.3612  0.1052
 5981TIP3    H139434   5.906   4.336   5.920 -1.0639 -1.5140  0.1779
 5981TIP3    H239435   5.878   4.240   5.807  0.1514 -0.3060 -1.1953
 5982TIP3   OH239436   4.178   5.110  13.516  0.0063 -0.7744 -0.0720
 5982TIP3    H139437   4.169   5.015  13.511  0.4693 -0.7871 -0.8137
 5982TIP3    H239438   4.236   5.133  13.443 -1.3713  0.2466 -0.9155
 5983TIP3   OH239439   4.817   1.511  17.067  0.6393 -0.1748 -0.0488
 5983TIP3    H139440   4.875   1.459  17.122  0.5679  1.2006  1.4051
 5983TIP3    H239441   4.779   1.575  17.126 -0.6620  0.3881 -1.4151
 5984TIP3   OH239442   2.573   6.527   0.508 -0.6799 -0.0252  0.0449
 5984TIP3    H139443   2.551   6.584   0.435 -1.1536 -0.9234 -0.5293
 5984TIP3    H239444   2.510   6.455   0.502 -1.4855  0.4460  2.0093
 5985TIP3   OH239445   2.809   2.218   4.082 -0.7074 -0.1095 -0.6536
 5985TIP3    H139446   2.738   2.276   4.055  0.4276  0.6015 -2.3104
 5985TIP3    H239447   2.785   2.133   4.046  0.3737  0.6477 -3.4037
 5986TIP3   OH239448   3.598   3.468  15.710  0.3351  0.2048  0.4412
 5986TIP3    H139449   3.636   3.524  15.642  0.5640 -0.2525  0.1885
 5986TIP3    H239450   3.505   3.462  15.688  0.5701 -0.6782 -0.3593
 5987TIP3   OH239451   0.962   0.398   0.524  0.2302  0.0393  0.0775
 5987TIP3    H139452   1.023   0.427   0.457 -1.3758  0.6284 -1.2079
 5987TIP3    H239453   0.968   0.303   0.523 -0.4131 -0.0202 -1.5881
 5988TIP3   OH239454   2.092   3.452  14.091  0.4258 -0.1344  0.0507
 5988TIP3    H139455   2.063   3.360  14.091  0.0226 -0.0093  0.0191
 5988TIP3    H239456   2.018   3.500  14.129  1.0520  0.0478  1.0826
 5989TIP3   OH239457   2.936   5.779  16.297 -0.0962  0.0148  0.2021
 5989TIP3    H139458   2.849   5.740  16.301 -0.7781  1.3472 -0.8117
 5989TIP3    H239459   2.988   5.715  16.248 -1.3185  0.4962 -1.8840
 5990TIP3   OH239460   4.578   3.246   4.519 -0.5993 -0.3382 -0.7357
 5990TIP3    H139461   4.559   3.324   4.466  0.6470  0.3220 -0.2563
 5990TIP3    H239462   4.672   3.252   4.538 -0.5477 -1.7835 -0.3893
 5991TIP3   OH239463   3.922   4.554  14.396 -0.5230  0.0158  0.5654
 5991TIP3    H139464   3.926   4.588  14.485  1.6462  2.1284 -0.2342
 5991TIP3    H239465   4.000   4.499  14.388 -0.3115  0.4242 -0.2400
 5992TIP3   OH239466   0.720   6.303  15.373  0.5574 -0.1188  0.6818
 5992TIP3    H139467   0.759   6.239  15.433  1.8106  0.5107  0.5776
 5992TIP3    H239468   0.692   6.375  15.430  2.1912  0.6983  0.5170
 5993TIP3   OH239469   1.615   2.331   0.695 -0.3233 -0.3118  0.2485
 5993TIP3    H139470   1.672   2.399   0.730 -2.2177  0.8850  1.1626
 5993TIP3    H239471   1.668   2.251   0.697  2.0635  1.1359 -1.1420
 5994TIP3   OH239472   0.786   3.037  14.988 -0.2731 -0.6147  0.1610
 5994TIP3    H139473   0.722   3.103  14.962  1.7415  1.2911 -0.3607
 5994TIP3    H239474   0.741   2.984  15.053 -2.0228  1.3119  0.6414
 5995TIP3   OH239475   0.233   3.554   6.650 -0.3088  0.7314  0.8933
 5995TIP3    H139476   0.161   3.594   6.699  0.2842  0.9606  1.5966
 5995TIP3    H239477   0.222   3.460   6.664  0.5598  0.8369  2.5206
 5996TIP3   OH239478   3.400   0.610  15.529 -0.6710  0.3781  0.3335
 5996TIP3    H139479   3.336   0.563  15.582 -0.6442 -0.5388 -0.4149
 5996TIP3    H239480   3.425   0.547  15.461  1.3054  0.5857  0.8129
 5997TIP3   OH239481   0.442   0.760  11.817  0.0600  0.2656 -0.0584
 5997TIP3    H139482   0.383   0.778  11.889 -0.9968  0.6801 -0.9943
 5997TIP3    H239483   0.516   0.819  11.830 -0.6437  1.1346  0.0816
 5998TIP3   OH239484   5.598   3.652  12.463  0.4051 -0.4267 -0.4705
 5998TIP3    H139485   5.674   3.605  12.427 -0.1145 -1.2786 -0.4789
 5998TIP3    H239486   5.533   3.650  12.393  0.1462 -0.2470 -0.2380
 5999TIP3   OH239487   4.720   5.908   5.010  0.1095 -0.1319  0.0142
 5999TIP3    H139488   4.797   5.883   4.960  0.7193 -1.4891  1.5647
 5999TIP3    H239489   4.749   5.982   5.063  0.2366 -0.4128  0.3348
 6000TIP3   OH239490   4.664   3.823   3.059  0.2029  0.0068 -0.1656
 6000TIP3    H139491   4.746   3.867   3.084 -0.6612  0.3681  2.3433
 6000TIP3    H239492   4.674   3.734   3.092 -1.1837  0.6429  2.2811
 6001TIP3   OH239493   0.597   3.852   0.598  0.1272 -0.5689 -0.5679
 6001TIP3    H139494   0.554   3.938   0.597 -0.3025 -0.6953  1.9136
 6001TIP3    H239495   0.562   3.808   0.520 -0.0701  1.2585 -1.5898
 6002TIP3   OH239496   4.536   0.577  15.291  0.1850 -0.1468  0.3726
 6002TIP3    H139497   4.497   0.639  15.229 -1.6732  0.4105  1.9737
 6002TIP3    H239498   4.627   0.570  15.265 -0.0049  1.8294 -1.0143
 6003TIP3   OH239499   3.798   1.526  10.845 -0.3852 -0.1498 -1.2204
 6003TIP3    H139500   3.749   1.551  10.766 -1.9798 -1.1475 -0.5993
 6003TIP3    H239501   3.798   1.605  10.899 -1.1483 -0.0565 -1.3338
 6004TIP3   OH239502   2.700   1.898   3.008 -0.0775 -0.1322  0.4900
 6004TIP3    H139503   2.710   1.878   2.915 -1.6037 -1.2218  0.5242
 6004TIP3    H239504   2.696   1.812   3.051  2.3134  0.3151  1.8149
 6005TIP3   OH239505   2.444   1.927   6.555  0.0192 -0.6040 -0.1015
 6005TIP3    H139506   2.350   1.939   6.565  0.1745  0.1764  0.6004
 6005TIP3    H239507   2.481   1.954   6.640  0.7889 -1.9874  0.0314
 6006TIP3   OH239508   5.484   2.420   0.983 -0.4738  0.2315 -0.3827
 6006TIP3    H139509   5.415   2.466   0.936 -0.6036 -0.8116 -1.2201
 6006TIP3    H239510   5.469   2.328   0.965  0.8545 -0.0396 -0.1878
 6007TIP3   OH239511   3.207   4.239   4.149  0.5120  1.1650  0.3855
 6007TIP3    H139512   3.257   4.270   4.074  1.1158  0.5299  0.5143
 6007TIP3    H239513   3.212   4.312   4.212 -1.7305  2.5655 -0.9202
 6008TIP3   OH239514   1.048   0.139   0.525  0.2113  0.3830 -0.2537
 6008TIP3    H139515   1.002   0.057   0.539  0.1145  0.4806  0.0099
 6008TIP3    H239516   1.140   0.118   0.540  0.0867  0.5459  0.8509
 6009TIP3   OH239517   1.391   2.530  15.079 -0.0276  0.6674  0.6578
 6009TIP3    H139518   1.475   2.573  15.094 -0.0495  0.8032  0.4076
 6009TIP3    H239519   1.365   2.496  15.165  1.3457 -1.3554  0.3307
 6010TIP3   OH239520   2.725   3.746  14.519  0.1673 -0.3623  0.1220
 6010TIP3    H139521   2.681   3.760  14.602 -0.1561  0.2770 -0.1494
 6010TIP3    H239522   2.804   3.800  14.524  1.0224 -1.6229  0.6687
 6011TIP3   OH239523   3.480   3.067   2.530 -0.1210 -0.1788 -0.1390
 6011TIP3    H139524   3.412   3.126   2.563  1.0243  1.7041 -0.9672
 6011TIP3    H239525   3.510   3.020   2.608 -0.7138  0.7190  0.6494
 6012TIP3   OH239526   1.445   1.215   2.110  0.1402 -0.0650  0.0899
 6012TIP3    H139527   1.370   1.258   2.150  1.1671  0.6120  1.3647
 6012TIP3    H239528   1.514   1.281   2.111  0.8304 -0.7385 -0.8650
 6013TIP3   OH239529   6.561   2.443   0.054  0.1630 -0.0160 -0.2062
 6013TIP3    H139530   6.510   2.514   0.015  3.7318  1.4364 -2.6844
 6013TIP3    H239531   6.537   2.365   0.004 -1.1551  0.1244  0.1620
 6014TIP3   OH239532   6.355   5.517  16.691  0.2312  0.0940  0.1649
 6014TIP3    H139533   6.287   5.510  16.624 -1.7551  0.2875  2.0405
 6014TIP3    H239534   6.315   5.570  16.760  2.7152  1.1593  0.8876
 6015TIP3   OH239535   5.405   2.760   2.254 -0.2427 -0.1989 -0.1209
 6015TIP3    H139536   5.413   2.665   2.246 -0.2501 -0.2522  0.5002
 6015TIP3    H239537   5.315   2.775   2.283  0.0896 -0.0752  0.8772
 6016TIP3   OH239538   3.903   5.702  14.532 -0.5576  0.3581  0.6040
 6016TIP3    H139539   3.834   5.645  14.567 -1.2522  1.3576  0.9156
 6016TIP3    H239540   3.968   5.642  14.496 -0.4332 -0.6871  2.4581
 6017TIP3   OH239541   2.187   2.486   5.103 -0.4188 -0.4840 -0.5330
 6017TIP3    H139542   2.205   2.398   5.136  0.2194 -0.0156  0.4188
 6017TIP3    H239543   2.114   2.474   5.042  1.2649 -2.0429 -2.4091
 6018TIP3   OH239544   0.900   1.954  16.015  0.5340  0.3727 -0.3590
 6018TIP3    H139545   0.952   1.936  16.094 -0.2736 -0.2699  0.0407
 6018TIP3    H239546   0.835   1.884  16.013  1.3308 -0.3881 -2.2950
 6019TIP3   OH239547   5.966   6.665  13.676 -0.3071  0.7132  0.5819
 6019TIP3    H139548   5.975   6.748  13.629  0.7068  0.4095  0.2190
 6019TIP3    H239549   5.919   6.608  13.615 -1.6022  1.2016  1.0864
 6020TIP3   OH239550   1.292   3.427  17.069  0.3540 -0.4581 -0.2128
 6020TIP3    H139551   1.304   3.346  17.119 -1.8989 -0.0133  1.2315
 6020TIP3    H239552   1.346   3.491  17.115 -0.9320 -0.2828  1.1173
 6021TIP3   OH239553   6.799   2.845  15.057  0.8548  0.1283  0.5914
 6021TIP3    H139554   6.706   2.856  15.072  0.8297 -0.5219  0.9393
 6021TIP3    H239555   6.805   2.807  14.969  0.8590  1.2364  0.0953
 6022TIP3   OH239556   6.050   6.041  10.327  0.6904  0.0458 -0.8834
 6022TIP3    H139557   5.982   5.993  10.279 -1.1281  1.4418  0.1614
 6022TIP3    H239558   6.003   6.114  10.369  2.5259  0.0622  1.3386
 6023TIP3   OH239559   4.078   0.881  13.003  0.0051  0.2867  0.5229
 6023TIP3    H139560   4.158   0.881  12.950  0.5972  2.4735  1.3092
 6023TIP3    H239561   4.056   0.789  13.012  0.5250 -0.2314 -2.5136
 6024TIP3   OH239562   6.102   2.793   2.492  0.2177 -0.1294 -0.1925
 6024TIP3    H139563   6.107   2.766   2.584 -0.0408  1.5608  0.3691
 6024TIP3    H239564   6.132   2.884   2.493 -0.9177  0.2919 -1.5961
 6025TIP3   OH239565   4.000   4.144  14.700 -0.2083  0.6642 -0.4236
 6025TIP3    H139566   4.009   4.170  14.792  3.2679 -1.2656 -0.0241
 6025TIP3    H239567   4.081   4.175  14.659 -0.3131 -1.1195 -2.0984
 6026TIP3   OH239568   1.071   6.216   3.441  0.4929 -0.8836  0.3314
 6026TIP3    H139569   1.059   6.303   3.402  0.8814 -0.7477  0.5119
 6026TIP3    H239570   1.047   6.156   3.371 -1.2370 -0.6397  0.6641
 6027TIP3   OH239571   1.000   1.239   3.092  0.4114  0.4591 -0.8284
 6027TIP3    H139572   1.094   1.222   3.092  0.3607  0.1679 -1.0492
 6027TIP3    H239573   0.965   1.183   3.161  0.7340  2.5702  1.1889
 6028TIP3   OH239574   1.206   0.425   4.508  0.6197 -0.3074 -0.5278
 6028TIP3    H139575   1.231   0.363   4.576  0.0600  1.2407  1.1699
 6028TIP3    H239576   1.274   0.492   4.508 -0.5577  0.9613  0.2288
 6029TIP3   OH239577   6.587   6.340  15.514  0.6271  0.5163  0.2697
 6029TIP3    H139578   6.651   6.387  15.568  0.1605  2.3902 -0.7566
 6029TIP3    H239579   6.516   6.318  15.575  0.8660  1.1039  0.7683
 6030TIP3   OH239580   5.660   3.058  14.288  0.2539 -0.1226  0.9830
 6030TIP3    H139581   5.616   2.980  14.321  1.7911 -0.7615  1.5867
 6030TIP3    H239582   5.651   3.122  14.358 -2.6804  0.9799 -0.2444
 6031TIP3   OH239583   0.563   5.077  15.704 -0.2720 -0.1970 -0.2140
 6031TIP3    H139584   0.500   5.149  15.706 -1.4165 -1.1854  1.2724
 6031TIP3    H239585   0.557   5.043  15.615 -0.7922  0.6194 -0.5062
 6032TIP3   OH239586   5.883   0.639   0.681 -0.1705 -0.2394 -0.0422
 6032TIP3    H139587   5.927   0.723   0.695  2.5526 -0.9600 -2.9477
 6032TIP3    H239588   5.798   0.663   0.643  0.2290  1.2222 -0.0868
 6033TIP3   OH239589   0.655   5.962   5.344 -0.1261  0.0040 -0.9903
 6033TIP3    H139590   0.646   5.920   5.430 -2.0340  0.0180 -1.1331
 6033TIP3    H239591   0.741   5.935   5.313  0.7917  0.3645  1.1073
 6034TIP3   OH239592   6.516   4.216   0.086  0.2326  0.3144  0.2177
 6034TIP3    H139593   6.467   4.251   0.012 -0.9564 -0.8527  0.4163
 6034TIP3    H239594   6.605   4.246   0.072  0.0222  0.1736 -1.6540
 6035TIP3   OH239595   3.625   6.165  17.179  0.4284  0.0872 -0.1778
 6035TIP3    H139596   3.578   6.081  17.180 -1.2844  0.9742 -1.3735
 6035TIP3    H239597   3.613   6.201  17.267 -0.8983  0.1431 -0.3607
 6036TIP3   OH239598   0.759   5.004   0.777  0.4841 -0.4087  0.2601
 6036TIP3    H139599   0.701   4.985   0.703  0.7825 -0.2825 -0.0101
 6036TIP3    H239600   0.824   4.934   0.775  2.1838  1.1153 -1.3528
 6037TIP3   OH239601   4.641   3.739  13.066 -0.0330  0.2037  0.5686
 6037TIP3    H139602   4.569   3.679  13.085 -0.0601  0.2760  0.6976
 6037TIP3    H239603   4.712   3.710  13.122 -1.0226  2.1929  3.0620
 6038TIP3   OH239604   3.729   1.508  12.551  0.1295 -0.5635  0.2793
 6038TIP3    H139605   3.662   1.549  12.605  0.3576 -0.0913  0.2077
 6038TIP3    H239606   3.681   1.445  12.497 -0.3626  0.2504 -0.2581
 6039TIP3   OH239607   2.663   1.149   5.159 -0.2505  0.2580  0.3283
 6039TIP3    H139608   2.624   1.118   5.241 -1.5310  0.2929 -0.2425
 6039TIP3    H239609   2.594   1.202   5.119  0.6535  0.9032 -0.3968
 6040TIP3   OH239610   1.130   6.122   4.013 -0.4766 -0.2474  0.3563
 6040TIP3    H139611   1.127   6.180   4.089  1.4154  1.3131 -0.6959
 6040TIP3    H239612   1.054   6.148   3.960  0.0424  0.9132  0.1615
 6041TIP3   OH239613   3.076   3.713   2.921  0.0446  0.0249 -0.5052
 6041TIP3    H139614   3.126   3.680   2.995 -1.6197 -0.5772  0.4050
 6041TIP3    H239615   3.023   3.784   2.957 -0.3263  0.1393 -1.2544
 6042TIP3   OH239616   5.239   3.969   1.560 -0.1611  0.3082 -0.3369
 6042TIP3    H139617   5.300   3.923   1.618  0.2914  1.3311  0.0150
 6042TIP3    H239618   5.153   3.935   1.585  0.2669 -1.8879 -1.5008
 6043TIP3   OH239619   6.545   1.371   6.787 -0.8572  0.2406 -0.4799
 6043TIP3    H139620   6.485   1.421   6.842 -0.8838 -0.0172 -0.2703
 6043TIP3    H239621   6.632   1.392   6.820 -0.9136 -0.5582  0.2206
 6044TIP3   OH239622   2.440   0.685  16.099  0.0145 -0.2905 -0.4012
 6044TIP3    H139623   2.465   0.595  16.120 -1.4311 -1.3409 -2.8031
 6044TIP3    H239624   2.513   0.717  16.045 -0.3085 -0.7164 -1.1120
 6045TIP3   OH239625   6.210   1.970   0.708 -0.2689  0.1954  0.0548
 6045TIP3    H139626   6.279   2.015   0.660  0.1555 -0.8250 -0.3305
 6045TIP3    H239627   6.256   1.906   0.762 -0.7524  1.2406  1.7714
 6046TIP3   OH239628   3.455   1.370   3.555  0.1081 -0.2918  0.2829
 6046TIP3    H139629   3.393   1.327   3.497 -0.8554  0.6899  0.5439
 6046TIP3    H239630   3.538   1.368   3.507  0.0300 -2.0879  0.1505
 6047TIP3   OH239631   2.360   6.708  17.030 -0.5075  0.0169 -0.1266
 6047TIP3    H139632   2.451   6.712  17.058 -0.5780  2.0552 -0.0577
 6047TIP3    H239633   2.359   6.753  16.945 -1.7800  2.2310  0.9603
 6048TIP3   OH239634   0.513   3.493  16.272 -0.4095 -0.2552  0.4412
 6048TIP3    H139635   0.543   3.528  16.188  0.9219 -2.2039  0.0428
 6048TIP3    H239636   0.490   3.402  16.254 -1.0276 -0.4451  2.0045
 6049TIP3   OH239637   0.469   0.100  12.469  0.3306 -0.7549 -0.0139
 6049TIP3    H139638   0.470   0.194  12.486  0.5705 -0.6568 -0.5455
 6049TIP3    H239639   0.383   0.083  12.433  0.5269 -0.6237 -0.5438
 6050TIP3   OH239640   0.729   1.474  14.285 -0.7244 -0.1076 -0.2396
 6050TIP3    H139641   0.808   1.466  14.338 -0.4903  0.3136 -0.5154
 6050TIP3    H239642   0.691   1.386  14.285 -0.7965 -0.0859  0.7169
 6051TIP3   OH239643   1.946   2.459   0.092 -0.2344  0.7451 -0.5886
 6051TIP3    H139644   1.895   2.380   0.076  2.0986 -1.2576  1.0199
 6051TIP3    H239645   1.941   2.472   0.186  2.6004  0.0303 -0.2360
 6052TIP3   OH239646   2.710   3.853  13.808 -0.0498  0.0726  0.5314
 6052TIP3    H139647   2.737   3.814  13.892 -4.2722 -0.7681  1.6991
 6052TIP3    H239648   2.709   3.780  13.747  2.0664  0.5027 -0.0950
 6053TIP3   OH239649   2.182   5.445   6.590 -0.5053 -0.0201 -0.8457
 6053TIP3    H139650   2.102   5.395   6.574 -0.3296 -0.2502 -1.0124
 6053TIP3    H239651   2.155   5.536   6.580 -1.1517  0.0032  0.8677
 6054TIP3   OH239652   5.125   5.177  14.078 -0.3596  0.9945 -0.1881
 6054TIP3    H139653   5.130   5.271  14.094 -0.6385  0.9132  0.4285
 6054TIP3    H239654   5.213   5.145  14.096 -0.0969  1.2196 -1.0221
 6055TIP3   OH239655   3.443   5.577  11.984 -0.3942  0.5923 -0.0535
 6055TIP3    H139656   3.462   5.614  11.898  1.4474  0.8631  0.4206
 6055TIP3    H239657   3.521   5.526  12.006 -1.0668  0.0562  1.2266
 6056TIP3   OH239658   2.086   5.065   0.394  0.5601 -0.1723  0.1277
 6056TIP3    H139659   2.141   5.135   0.358  1.9294 -0.8424  0.8182
 6056TIP3    H239660   2.017   5.053   0.329 -0.6435  2.8344  0.7068
 6057TIP3   OH239661   0.014   1.598  13.613  0.0042  0.5070 -0.0623
 6057TIP3    H139662   0.030   1.641  13.529 -0.6305  0.2171 -0.3323
 6057TIP3    H239663   0.088   1.539  13.624 -0.9097 -0.9674 -1.3978
 6058TIP3   OH239664   3.745   1.461   1.511 -0.3773 -0.2083  0.5188
 6058TIP3    H139665   3.809   1.519   1.552 -1.1819  0.6436  0.5895
 6058TIP3    H239666   3.746   1.382   1.567  1.7524 -0.8954 -0.3954
 6059TIP3   OH239667   0.646   1.667  14.549 -0.1380 -0.2416 -0.4980
 6059TIP3    H139668   0.566   1.670  14.602  1.0160  1.9315  1.2867
 6059TIP3    H239669   0.636   1.587  14.496 -2.2309 -1.5544  1.6472
 6060TIP3   OH239670   6.268   5.406   5.789  0.3833 -0.1717  0.4070
 6060TIP3    H139671   6.238   5.340   5.852 -0.6565  0.6148  0.7613
 6060TIP3    H239672   6.311   5.355   5.720 -0.3370 -1.2145  0.7010
 6061TIP3   OH239673   3.302   5.557   0.368  0.3252  0.5697  0.6867
 6061TIP3    H139674   3.334   5.642   0.337 -1.5498  0.7855 -0.8776
 6061TIP3    H239675   3.250   5.577   0.446  0.2320  0.8059  0.5636
 6062TIP3   OH239676   4.376   4.850  14.278 -0.5217  0.3380 -0.2624
 6062TIP3    H139677   4.383   4.943  14.258 -0.7017  0.2710 -0.6376
 6062TIP3    H239678   4.324   4.846  14.358 -0.0753  0.5889  0.0440
 6063TIP3   OH239679   4.900   0.591   3.314 -0.2841 -0.1379  0.8269
 6063TIP3    H139680   4.898   0.586   3.409  1.3946 -0.6882  0.8718
 6063TIP3    H239681   4.969   0.655   3.295  0.9081 -1.5692  0.0177
 6064TIP3   OH239682   0.131   4.126  13.358 -0.4465 -0.2639 -0.6592
 6064TIP3    H139683   0.067   4.058  13.335 -0.2064 -0.5615 -0.4443
 6064TIP3    H239684   0.140   4.119  13.453  0.4973 -0.7428 -0.7809
 6065TIP3   OH239685   0.897   4.201  14.925 -0.3527  0.1372 -0.3001
 6065TIP3    H139686   0.845   4.172  15.000 -0.4790 -0.6840 -0.6873
 6065TIP3    H239687   0.917   4.293  14.943 -1.0920  0.1856  0.3343
 6066TIP3   OH239688   6.296   0.843  11.219  0.2698 -0.1653  0.3669
 6066TIP3    H139689   6.348   0.923  11.217  0.2902 -0.1855 -0.2119
 6066TIP3    H239690   6.320   0.800  11.301  0.2710  0.4106  0.6755
 6067TIP3   OH239691   5.717   6.412   5.417 -0.3135  0.1813  0.2783
 6067TIP3    H139692   5.644   6.378   5.468  0.8596 -0.2900  1.7164
 6067TIP3    H239693   5.787   6.347   5.429  0.2153  0.3558 -1.4696
 6068TIP3   OH239694   0.006   0.648  10.993 -0.2857 -0.6603  0.7209
 6068TIP3    H139695  -0.007   0.554  10.983 -1.2108 -0.3126 -2.4661
 6068TIP3    H239696  -0.077   0.680  11.029 -0.7708 -0.8537 -0.1908
 6069TIP3   OH239697   6.221   4.965   1.757 -0.0244  0.0489  0.2718
 6069TIP3    H139698   6.213   5.050   1.801 -0.1668  0.4131 -0.4352
 6069TIP3    H239699   6.283   4.981   1.686  0.5513 -0.6431  0.6151
 6070TIP3   OH239700   2.733   6.568  11.229 -0.2786  0.4821 -0.0551
 6070TIP3    H139701   2.787   6.566  11.307  1.0896  1.3821 -0.9298
 6070TIP3    H239702   2.777   6.631  11.171 -2.2727  1.2795 -0.8016
 6071TIP3   OH239703   5.877   5.152  11.651 -0.3423  0.5467  0.3082
 6071TIP3    H139704   5.821   5.155  11.728 -0.2420 -0.3512  0.4259
 6071TIP3    H239705   5.817   5.134  11.578 -0.0900 -1.7503  0.6078
 6072TIP3   OH239706   5.841   5.110   0.835 -0.4128 -0.5148 -0.9590
 6072TIP3    H139707   5.787   5.177   0.876  0.7685  0.2190 -0.5798
 6072TIP3    H239708   5.844   5.135   0.742 -1.5251 -1.1202 -1.1742
 6073TIP3   OH239709   5.534   0.093   3.958 -0.7721 -0.2918 -0.3778
 6073TIP3    H139710   5.518   0.188   3.961  1.2427  0.1211 -0.9413
 6073TIP3    H239711   5.512   0.068   3.868 -1.8136 -0.4858 -0.0813
 6074TIP3   OH239712   4.847   3.076   3.195 -0.3652 -0.0311  0.0837
 6074TIP3    H139713   4.903   3.152   3.177 -0.3811  0.4566  1.9593
 6074TIP3    H239714   4.908   3.006   3.218 -0.4600  0.1682  0.9636
 6075TIP3   OH239715   5.131   5.411  11.298 -0.1833 -0.4988  0.1858
 6075TIP3    H139716   5.036   5.414  11.311 -0.1787  0.6891  0.0195
 6075TIP3    H239717   5.164   5.368  11.377 -0.9207 -1.7760 -0.1702
 6076TIP3   OH239718   5.775   1.660   2.469 -0.3435 -0.2408  0.0104
 6076TIP3    H139719   5.703   1.606   2.501  1.5660 -2.5556  0.6945
 6076TIP3    H239720   5.765   1.744   2.515 -1.2511 -1.3411  1.9066
 6077TIP3   OH239721   0.796   2.746  15.161 -0.0323 -0.0092 -0.6438
 6077TIP3    H139722   0.803   2.705  15.248  0.9494 -1.1636 -1.2405
 6077TIP3    H239723   0.885   2.774  15.141 -0.5500  1.8259 -0.5756
 6078TIP3   OH239724   6.254   2.430  11.830  0.5214  0.2825  0.0464
 6078TIP3    H139725   6.275   2.502  11.770  1.0829  0.1522  0.0788
 6078TIP3    H239726   6.332   2.375  11.829  0.4344  0.1373  0.6961
 6079TIP3   OH239727   0.018   6.167  14.818 -0.4161 -0.0142 -0.0166
 6079TIP3    H139728  -0.050   6.206  14.873 -0.6704 -0.8690  0.2836
 6079TIP3    H239729  -0.007   6.191  14.728 -1.1436 -0.3805  0.0884
 6080TIP3   OH239730   0.403   0.123   2.794  0.0852  0.1530  0.5508
 6080TIP3    H139731   0.313   0.136   2.823 -0.3453 -1.2334 -0.1027
 6080TIP3    H239732   0.417   0.190   2.727 -0.3447  0.5728  0.8715
 6081TIP3   OH239733   4.796   5.427   5.529  0.0748  0.3242  0.0968
 6081TIP3    H139734   4.713   5.403   5.570 -0.4295 -0.3574 -1.2561
 6081TIP3    H239735   4.826   5.504   5.577 -0.9445  0.1024  1.1157
 6082TIP3   OH239736   1.404   0.945  15.936 -0.3891  0.6194  0.1866
 6082TIP3    H139737   1.387   0.972  15.846 -0.8402  2.2304  0.7207
 6082TIP3    H239738   1.319   0.955  15.980 -0.1311  0.0329  0.8434
 6083TIP3   OH239739   1.797   3.024   4.965 -0.1099  0.4716  0.2349
 6083TIP3    H139740   1.779   2.961   4.896 -0.7618 -0.5963  1.3454
 6083TIP3    H239741   1.878   2.994   5.005 -0.9446 -0.3060  1.4237
 6084TIP3   OH239742   4.730   3.001  14.704 -0.0416  0.4127 -0.0046
 6084TIP3    H139743   4.767   3.076  14.750 -2.5353  1.1158  1.0171
 6084TIP3    H239744   4.653   2.977  14.755  1.8799 -4.4879  1.1327
 6085TIP3   OH239745   1.807   0.029  13.982  0.3634  0.2171 -0.2303
 6085TIP3    H139746   1.890   0.070  13.958  0.9759 -0.6327  0.3798
 6085TIP3    H239747   1.798  -0.044  13.921 -0.6550  1.1245 -1.2224
 6086TIP3   OH239748   5.663   5.712   2.863 -0.0064 -0.0561 -0.7044
 6086TIP3    H139749   5.710   5.744   2.940  1.2014 -0.1369 -1.3826
 6086TIP3    H239750   5.657   5.617   2.877  0.6098 -0.1322 -0.8967
 6087TIP3   OH239751   4.268   5.478   5.940  0.1334 -0.0725  0.2010
 6087TIP3    H139752   4.346   5.521   5.906 -0.7008  2.3966  1.2051
 6087TIP3    H239753   4.299   5.426   6.014  1.1285 -1.0376 -0.8546
 6088TIP3   OH239754   5.278   4.433  11.508  0.3258 -0.7619  0.4172
 6088TIP3    H139755   5.320   4.380  11.440 -1.7027 -2.1668  0.1758
 6088TIP3    H239756   5.190   4.395  11.517 -2.1130  3.8023 -1.2118
 6089TIP3   OH239757   4.646   1.823   3.724  0.3300  0.3429  0.0905
 6089TIP3    H139758   4.691   1.834   3.808  0.1275  2.1732  0.0124
 6089TIP3    H239759   4.699   1.759   3.676  0.1949 -1.0859  1.7564
 6090TIP3   OH239760   1.852   0.969  16.501 -0.1006  0.1784 -0.0188
 6090TIP3    H139761   1.877   0.895  16.446  1.2973  0.0379  0.7472
 6090TIP3    H239762   1.873   1.046  16.449 -2.2601  0.1037 -1.1264
 6091TIP3   OH239763   5.735   2.328   3.618 -0.8390 -0.0439  0.5338
 6091TIP3    H139764   5.782   2.410   3.634  0.5843 -0.6252 -0.4120
 6091TIP3    H239765   5.678   2.348   3.543  1.3997 -0.5261 -1.4270
 6092TIP3   OH239766   2.379   2.164   5.566 -0.1465  0.2433  0.3887
 6092TIP3    H139767   2.412   2.184   5.654  0.2722  0.6216  0.1503
 6092TIP3    H239768   2.331   2.243   5.540  0.7637  0.6153 -0.2069
 6093TIP3   OH239769   6.809   4.341   0.028  0.0226  0.1873 -0.4067
 6093TIP3    H139770   6.781   4.267  -0.025 -1.4761  0.0374  0.5228
 6093TIP3    H239771   6.856   4.398  -0.033 -0.5217 -0.5800 -1.5783
 6094TIP3   OH239772   2.269   3.493   1.367 -0.1764  0.2861 -0.2856
 6094TIP3    H139773   2.344   3.442   1.396 -0.3446  0.0721 -0.2274
 6094TIP3    H239774   2.220   3.435   1.308 -0.8914  0.0319  0.5366
 6095TIP3   OH239775   2.348   3.959   2.660 -0.1275  0.1582 -0.1362
 6095TIP3    H139776   2.423   3.927   2.711 -0.4404 -0.5176 -0.0922
 6095TIP3    H239777   2.291   4.000   2.726  0.4286  1.1270 -0.2391
 6096TIP3   OH239778   0.270   1.793   5.309 -0.0323  0.0576  0.0326
 6096TIP3    H139779   0.354   1.751   5.331 -0.3085 -1.5784 -1.7790
 6096TIP3    H239780   0.290   1.886   5.305  1.9514 -0.3778 -1.2903
 6097TIP3   OH239781   3.984   1.234   0.388 -0.8908  0.3021  0.0457
 6097TIP3    H139782   3.922   1.185   0.335 -1.2055  1.4161 -0.6558
 6097TIP3    H239783   3.945   1.235   0.476 -0.7354 -0.9054  0.1480
 6098TIP3   OH239784   1.863   0.958   2.943 -0.3491 -0.0911  0.1510
 6098TIP3    H139785   1.897   1.034   2.990 -0.1347 -0.1160  0.0357
 6098TIP3    H239786   1.777   0.986   2.912  0.2760  0.5790 -1.0442
 6099TIP3   OH239787   0.797   5.850   1.948 -0.4517  0.5178  0.1814
 6099TIP3    H139788   0.762   5.764   1.923  0.0679  0.2964  0.2174
 6099TIP3    H239789   0.803   5.846   2.043 -0.9228  0.7869  0.2259
 6100TIP3   OH239790   4.692   5.333  13.312 -0.0453  0.0687 -0.1107
 6100TIP3    H139791   4.637   5.315  13.236  1.5095 -1.2157 -1.0099
 6100TIP3    H239792   4.687   5.253  13.365 -1.1061  0.9467  1.1807
 6101TIP3   OH239793   0.638   5.975  14.332  0.1055  0.1203 -0.2801
 6101TIP3    H139794   0.729   5.958  14.310 -0.6479 -1.8232 -2.2209
 6101TIP3    H239795   0.640   5.999  14.425  2.6783  1.4113 -0.5720
 6102TIP3   OH239796   4.102   1.985   2.027  0.0016 -0.2248  0.7795
 6102TIP3    H139797   4.067   1.945   2.106 -0.6037 -0.9930  0.1407
 6102TIP3    H239798   4.099   1.916   1.961 -0.0056  0.5468 -0.0568
 6103TIP3   OH239799   3.180   1.311   1.379 -0.7408 -0.5022 -0.2785
 6103TIP3    H139800   3.271   1.314   1.350 -0.4713  2.3526  0.5223
 6103TIP3    H239801   3.129   1.313   1.299 -0.0100  3.7839 -0.8470
 6104TIP3   OH239802   3.667   1.026   4.310  0.6662 -0.2589 -0.0134
 6104TIP3    H139803   3.653   0.965   4.238  2.1163  3.2040 -3.6754
 6104TIP3    H239804   3.729   0.982   4.368 -0.9606 -3.4284 -0.4567
 6105TIP3   OH239805   2.506   1.721   0.872 -0.5159  0.0229  0.3120
 6105TIP3    H139806   2.515   1.790   0.806  0.0254  2.1779  2.5181
 6105TIP3    H239807   2.413   1.697   0.869 -0.9587  1.6476  0.2281
 6106TIP3   OH239808   2.169   3.530   5.721  0.3440  0.1864 -0.3417
 6106TIP3    H139809   2.094   3.554   5.666 -0.9099 -0.5855  0.9434
 6106TIP3    H239810   2.215   3.613   5.735 -0.3222  0.7063 -1.1018
 6107TIP3   OH239811   2.205   1.559   3.169  0.0388 -0.1083 -0.1398
 6107TIP3    H139812   2.125   1.571   3.219  0.1673 -0.8971  0.2699
 6107TIP3    H239813   2.186   1.595   3.082 -0.6507 -0.0105  0.0527
 6108TIP3   OH239814   2.337   3.848  14.089 -0.0736  0.1225  0.4109
 6108TIP3    H139815   2.360   3.929  14.043 -3.8659  2.5031  2.2311
 6108TIP3    H239816   2.403   3.840  14.158 -0.2745  2.4446  0.9593
 6109TIP3   OH239817   1.620   6.148   2.529  0.2824  0.5970  0.3343
 6109TIP3    H139818   1.696   6.089   2.531 -0.7652 -0.7706  1.3835
 6109TIP3    H239819   1.611   6.172   2.437  0.8046 -0.8006 -0.1036
 6110TIP3   OH239820   5.736   0.151  14.608  0.3546  0.0421  0.1170
 6110TIP3    H139821   5.662   0.098  14.576  0.5911 -1.4563  1.8718
 6110TIP3    H239822   5.732   0.142  14.703  0.8126  2.7256  0.4591
 6111TIP3   OH239823   6.344   5.083   2.570 -0.6843  0.7703  0.7535
 6111TIP3    H139824   6.336   4.991   2.595 -0.8069  0.6075  0.1341
 6111TIP3    H239825   6.339   5.082   2.474 -0.8419  1.4382  0.7524
 6112TIP3   OH239826   1.590   4.990   0.265 -0.3192  0.0405  0.5647
 6112TIP3    H139827   1.536   5.069   0.266 -0.3063  0.0469  0.7714
 6112TIP3    H239828   1.533   4.921   0.298 -0.6064 -0.2206 -0.4438
 6113TIP3   OH239829   1.873   0.737  13.766 -0.3723 -0.0113 -0.5058
 6113TIP3    H139830   1.810   0.775  13.704 -0.2484  0.5688 -0.2875
 6113TIP3    H239831   1.950   0.793  13.757 -0.3608  0.0852  0.1884
 6114TIP3   OH239832   6.659   1.370   4.580 -0.1144  0.1162 -0.0897
 6114TIP3    H139833   6.707   1.397   4.658  0.7395 -0.1043 -0.5273
 6114TIP3    H239834   6.699   1.286   4.555 -1.1975 -0.4313 -0.0687
 6115TIP3   OH239835   0.269   6.384   3.785  0.0664 -0.1455  0.2126
 6115TIP3    H139836   0.307   6.432   3.712 -0.4209 -1.5059 -0.9929
 6115TIP3    H239837   0.336   6.320   3.809  0.3203  0.4531  1.1418
 6116TIP3   OH239838   5.305   6.024  15.545  0.1797  0.3604  0.0485
 6116TIP3    H139839   5.400   6.011  15.543  0.3773  1.6742 -0.4845
 6116TIP3    H239840   5.286   6.047  15.636  0.7046  2.0694 -0.2350
 6117TIP3   OH239841   2.635   5.354   0.561  0.2144  0.2011 -0.4940
 6117TIP3    H139842   2.612   5.440   0.597 -1.7596  0.1040 -1.3839
 6117TIP3    H239843   2.551   5.307   0.556  1.0179 -1.1860 -1.5191
 6118TIP3   OH239844   6.445   6.038  14.880  0.4529  0.1588  0.7816
 6118TIP3    H139845   6.498   6.020  14.803 -1.3244  0.6376 -0.6312
 6118TIP3    H239846   6.356   6.014  14.854 -0.3202  1.0751  2.4113
 6119TIP3   OH239847   5.860   4.120   0.401  0.4205 -0.1029 -0.4948
 6119TIP3    H139848   5.867   4.201   0.453 -0.9784  0.7032 -1.4936
 6119TIP3    H239849   5.951   4.091   0.390  0.7786 -0.2760  2.2910
 6120TIP3   OH239850   3.418   6.735  11.777  0.4145 -0.0055  0.0338
 6120TIP3    H139851   3.378   6.700  11.856  0.5601  1.3660  0.7453
 6120TIP3    H239852   3.499   6.685  11.766 -0.2177 -1.0566  0.0156
 6121TIP3   OH239853   1.147   0.275   5.165 -0.3979  0.0270 -1.2856
 6121TIP3    H139854   1.070   0.258   5.219  0.1518  0.9611 -0.1331
 6121TIP3    H239855   1.197   0.341   5.215  2.4796 -2.4038 -0.6522
 6122TIP3   OH239856   3.977   4.870   0.107  0.5321  0.3161  0.1050
 6122TIP3    H139857   3.888   4.904   0.120 -0.0050 -1.3690  1.1761
 6122TIP3    H239858   3.977   4.840   0.016  0.1941  0.7984 -0.0641
 6123TIP3   OH239859   6.410   0.797   4.265  0.0773 -0.1865 -0.0548
 6123TIP3    H139860   6.382   0.738   4.335  1.8249  0.1994  1.0390
 6123TIP3    H239861   6.435   0.877   4.311  1.2160  0.0935 -1.1306
 6124TIP3   OH239862   0.003   1.572   1.635  0.0118  0.7356 -0.0127
 6124TIP3    H139863  -0.017   1.485   1.669 -1.5168  0.9950 -0.2106
 6124TIP3    H239864   0.013   1.626   1.713  2.3612  0.1616  0.1855
 6125TIP3   OH239865   4.849   4.435  14.295 -0.5475 -0.0020  0.1390
 6125TIP3    H139866   4.825   4.497  14.363 -1.8108 -0.0115 -0.2594
 6125TIP3    H239867   4.944   4.440  14.288 -0.4622  0.3994  1.5042
 6126TIP3   OH239868   2.811   4.500  11.005  0.2251 -0.0598  0.4075
 6126TIP3    H139869   2.769   4.573  10.959 -1.6984 -0.3930  1.4961
 6126TIP3    H239870   2.795   4.424  10.949 -1.5602 -0.3541  1.2486
 6127TIP3   OH239871   3.239   0.007   2.149 -0.0423 -0.1739 -0.2064
 6127TIP3    H139872   3.300  -0.029   2.213 -0.2399 -2.2220 -1.0741
 6127TIP3    H239873   3.293   0.064   2.094  0.5689 -0.0679  0.4888
 6128TIP3   OH239874   3.499   5.606  11.177 -0.2231  0.2117 -0.3128
 6128TIP3    H139875   3.490   5.511  11.166 -0.5309  0.4676 -2.9595
 6128TIP3    H239876   3.440   5.627  11.249  0.3632 -1.6647  0.7888
 6129TIP3   OH239877   6.732   3.172  16.176  0.8043 -0.2604  0.3359
 6129TIP3    H139878   6.753   3.106  16.110 -0.1546 -0.9651  0.7070
 6129TIP3    H239879   6.655   3.137  16.221  0.6807  0.8065  0.9866
 6130TIP3   OH239880   0.876   3.451   4.324  0.1296  0.8438  0.3546
 6130TIP3    H139881   0.936   3.463   4.251  2.6121 -0.0393  2.1244
 6130TIP3    H239882   0.891   3.361   4.354 -1.2366  0.9833  1.6072
 6131TIP3   OH239883   5.669   2.568  13.330  0.0696 -0.3606 -0.3011
 6131TIP3    H139884   5.658   2.499  13.395  1.0053 -0.0336  0.2191
 6131TIP3    H239885   5.590   2.621  13.338 -0.5320 -1.1980 -0.5146
 6132TIP3   OH239886   5.598   4.906   2.772  0.4011  0.4316 -0.1483
 6132TIP3    H139887   5.592   4.978   2.709  0.4221 -1.3928 -2.3795
 6132TIP3    H239888   5.674   4.856   2.744  0.5787 -0.2983  1.5443
 6133TIP3   OH239889   2.575   2.175  12.070  0.2841 -0.0702 -0.2398
 6133TIP3    H139890   2.507   2.130  12.121  0.8359 -0.7560 -0.1007
 6133TIP3    H239891   2.532   2.255  12.039 -0.0318  0.4375  1.4021
 6134TIP3   OH239892   5.200   2.643  15.086 -0.0324 -0.3995 -0.0993
 6134TIP3    H139893   5.130   2.637  15.020 -0.0033  0.6216 -0.2461
 6134TIP3    H239894   5.180   2.724  15.134 -0.3154 -1.3726  1.4661
 6135TIP3   OH239895   2.543   0.969  13.509  0.3391  0.1463 -0.1293
 6135TIP3    H139896   2.489   1.008  13.440  1.0019  0.1045 -0.6792
 6135TIP3    H239897   2.496   0.988  13.590  0.0589  1.0598 -0.4989
 6136TIP3   OH239898   6.605   2.279   5.653 -0.3503 -0.7137  0.3423
 6136TIP3    H139899   6.635   2.198   5.613  0.4818 -0.4429  0.4027
 6136TIP3    H239900   6.663   2.347   5.619 -0.4925 -0.2739  0.9442
 6137TIP3   OH239901   1.307   1.681  16.173  0.0164  0.5613 -0.2717
 6137TIP3    H139902   1.342   1.596  16.201 -0.3775  0.0538 -1.2666
 6137TIP3    H239903   1.337   1.742  16.240  0.3646 -0.3499  0.4309
 6138TIP3   OH239904   3.572   3.783  11.827  0.3991  0.0837 -0.4457
 6138TIP3    H139905   3.651   3.744  11.789  1.0305 -0.6054  1.4099
 6138TIP3    H239906   3.518   3.708  11.851  0.4634  0.4098  0.8217
 6139TIP3   OH239907   0.020   5.511  14.960 -0.0439 -0.2029 -0.4268
 6139TIP3    H139908   0.073   5.431  14.960  1.5999  0.7473  2.4844
 6139TIP3    H239909   0.056   5.564  14.889  0.4642 -1.0598 -0.8224
 6140TIP3   OH239910   5.716   4.144   5.688 -0.3696 -0.4062  0.0854
 6140TIP3    H139911   5.663   4.064   5.690  0.9481 -1.3638 -1.0246
 6140TIP3    H239912   5.663   4.207   5.639 -1.2328 -0.7332  0.5760
 6141TIP3   OH239913   4.928   3.179   5.202  0.2346 -0.1483 -0.0658
 6141TIP3    H139914   4.954   3.088   5.193  1.2951  0.1650 -0.2967
 6141TIP3    H239915   5.008   3.225   5.227 -0.0230  0.8929 -1.0480
 6142TIP3   OH239916   5.748   5.054   0.545  0.0183  0.0401 -0.6488
 6142TIP3    H139917   5.702   4.974   0.520  0.0024 -0.1053 -0.1716
 6142TIP3    H239918   5.818   5.063   0.481 -0.9855  0.5542 -1.7047
 6143TIP3   OH239919   5.595   5.612  12.691  0.1863  0.1968  0.3838
 6143TIP3    H139920   5.523   5.560  12.728 -1.0780 -0.3948 -2.6082
 6143TIP3    H239921   5.604   5.686  12.751  0.1056 -1.9492  3.2138
 6144TIP3   OH239922   3.766   6.078  12.297  0.4509 -0.0115  0.2711
 6144TIP3    H139923   3.830   6.010  12.316  0.6766 -0.0293 -0.5362
 6144TIP3    H239924   3.681   6.036  12.309  0.5918 -0.3475  0.0949
 6145TIP3   OH239925   5.355   4.106  14.801 -0.3462 -0.6116 -0.3098
 6145TIP3    H139926   5.421   4.174  14.814 -0.3449 -0.1605 -2.3808
 6145TIP3    H239927   5.384   4.057  14.724 -2.7204  0.0715 -1.7765
 6146TIP3   OH239928   5.274   4.829  14.375  0.0947  0.5719  0.2057
 6146TIP3    H139929   5.222   4.757  14.340 -2.7571  1.2581  2.6090
 6146TIP3    H239930   5.286   4.890  14.302 -0.3632 -0.7494 -0.9966
 6147TIP3   OH239931   3.266   2.551  13.574  0.2073 -0.1957  0.0176
 6147TIP3    H139932   3.275   2.558  13.479  1.0471  0.8438  0.1510
 6147TIP3    H239933   3.211   2.474  13.588  1.8935 -1.6991 -1.2363
 6148TIP3   OH239934   0.549   6.611   3.054  0.6784  0.0081 -0.6785
 6148TIP3    H139935   0.496   6.580   2.980  0.3904 -0.2803 -0.3531
 6148TIP3    H239936   0.494   6.597   3.131  0.5230  1.3635 -0.5200
 6149TIP3   OH239937   1.792   6.061  15.318  0.0731 -0.0018 -0.0317
 6149TIP3    H139938   1.817   6.008  15.242 -0.0060  0.0889 -0.1224
 6149TIP3    H239939   1.746   6.000  15.376  0.6085 -0.1987  0.1931
 6150TIP3   OH239940   2.514   4.873   2.019  0.0912 -0.0196  0.3348
 6150TIP3    H139941   2.508   4.879   1.923  1.3326 -1.1573  0.1481
 6150TIP3    H239942   2.424   4.873   2.049 -0.3488 -0.5060 -0.9228
 6151TIP3   OH239943   1.642   6.211  16.176 -0.2633 -0.5741 -0.4632
 6151TIP3    H139944   1.697   6.210  16.099 -0.5388  2.1812 -0.7862
 6151TIP3    H239945   1.702   6.199  16.249  0.3218 -0.8158 -0.9810
 6152TIP3   OH239946   0.353   6.331  15.234 -0.3302  0.4220  0.2041
 6152TIP3    H139947   0.354   6.323  15.329 -3.6943  0.3985  0.3621
 6152TIP3    H239948   0.392   6.416  15.216  2.0471 -0.3403  1.3898
 6153TIP3   OH239949   4.788   4.410   0.281 -0.5312 -0.9563 -0.3924
 6153TIP3    H139950   4.814   4.389   0.371  0.6915 -0.2665 -0.5605
 6153TIP3    H239951   4.713   4.469   0.291  0.7573  0.6688  0.2656
 6154TIP3   OH239952   1.816   4.111   0.089  0.4558 -0.5773 -0.2518
 6154TIP3    H139953   1.739   4.159   0.059 -1.5111 -1.9525  2.2068
 6154TIP3    H239954   1.792   4.080   0.176  4.0246 -0.6619  0.8577
 6155TIP3   OH239955   5.216   1.126   0.398 -0.3333  0.2728 -0.0472
 6155TIP3    H139956   5.239   1.046   0.446 -1.8846  0.3714  0.9246
 6155TIP3    H239957   5.122   1.119   0.383 -0.3320  1.5147 -0.7505
 6156TIP3   OH239958   5.943   2.966   1.817 -0.2407  0.3207  0.3704
 6156TIP3    H139959   5.879   3.037   1.812  0.8867  1.3068 -1.1193
 6156TIP3    H239960   5.903   2.895   1.768 -0.3166  0.8459 -0.3503
 6157TIP3   OH239961   5.236   2.002   5.219 -0.3035 -0.4582  0.6488
 6157TIP3    H139962   5.192   1.971   5.140 -0.9953 -1.8598  1.5510
 6157TIP3    H239963   5.322   1.960   5.216 -0.5363 -0.9536  0.9208
 6158TIP3   OH239964   6.133   2.305  15.005 -0.2062 -0.4014  0.0786
 6158TIP3    H139965   6.043   2.333  15.024 -0.9191 -1.2418 -1.8391
 6158TIP3    H239966   6.146   2.229  15.062 -0.2044  0.5304  1.3521
 6159TIP3   OH239967   5.645   5.449   4.220 -0.2617 -0.1276 -0.9719
 6159TIP3    H139968   5.662   5.500   4.299 -0.6993  0.2778 -1.1360
 6159TIP3    H239969   5.630   5.515   4.152  1.7343 -0.4260 -1.7773
 6160TIP3   OH239970   0.447   3.140  13.323 -0.0829  0.5014  0.1734
 6160TIP3    H139971   0.454   3.045  13.334 -0.1078  0.5993  1.1099
 6160TIP3    H239972   0.403   3.170  13.403 -0.9453  1.1958 -0.5354
 6161TIP3   OH239973   1.093   0.806   5.829  0.2140  0.6141  0.3999
 6161TIP3    H139974   1.057   0.780   5.914 -1.6773  0.2119 -0.4683
 6161TIP3    H239975   1.108   0.723   5.784 -1.4125  0.8459 -0.6498
 6162TIP3   OH239976   3.193   5.628   5.603  0.3672 -0.5841  0.1395
 6162TIP3    H139977   3.103   5.634   5.635  0.5829  0.0114  0.6529
 6162TIP3    H239978   3.186   5.581   5.519 -0.5128  0.1463 -0.2078
 6163TIP3   OH239979   0.556   2.010   2.177  0.5087 -0.1317  0.3595
 6163TIP3    H139980   0.535   2.010   2.084  0.7784 -2.1016  0.2633
 6163TIP3    H239981   0.647   2.037   2.182  0.6044 -0.3976  0.0277
 6164TIP3   OH239982   6.474   1.418   2.297  0.5746 -0.0873 -0.6432
 6164TIP3    H139983   6.491   1.490   2.237  0.3893  0.2489 -0.2963
 6164TIP3    H239984   6.552   1.364   2.293 -0.2384 -1.2268 -2.7933
 6165TIP3   OH239985   3.101   3.028   1.990  0.0173  0.2003  0.1296
 6165TIP3    H139986   3.177   3.040   1.934  0.7583 -3.6880  0.0618
 6165TIP3    H239987   3.123   3.073   2.072  0.4703  2.7469 -1.2893
 6166TIP3   OH239988   5.126   6.554   2.253  0.1120 -0.1068 -0.2932
 6166TIP3    H139989   5.145   6.565   2.346  0.1544  0.8533 -0.4055
 6166TIP3    H239990   5.111   6.643   2.221 -1.3828 -0.5511 -0.9025
 6167TIP3   OH239991   6.581   2.960   4.041 -0.0709 -0.5063 -0.1520
 6167TIP3    H139992   6.523   3.034   4.058 -0.2383 -0.0274 -2.4302
 6167TIP3    H239993   6.542   2.887   4.089 -1.7095  0.1572 -0.4175
 6168TIP3   OH239994   5.105   2.386   2.185 -0.1698 -0.4188  0.4779
 6168TIP3    H139995   5.167   2.350   2.249 -1.2909 -1.9924  0.7480
 6168TIP3    H239996   5.119   2.332   2.106  0.5091  0.8538 -0.3038
 6169TIP3   OH239997   4.927   4.897   1.687 -0.4735  0.1923 -0.2164
 6169TIP3    H139998   4.919   4.845   1.767 -0.2930  0.4583 -0.0236
 6169TIP3    H239999   5.020   4.888   1.663 -0.2573  1.0460  0.2466
 6170TIP3   OH240000   2.710   5.221   5.899 -0.1611 -0.1155  0.0148
 6170TIP3    H140001   2.650   5.238   5.973  0.2760  0.1680  0.3097
 6170TIP3    H240002   2.701   5.127   5.883 -0.7683 -0.0595 -0.0195
 6171TIP3   OH240003   5.224   4.723  11.711  0.0048 -0.0677  0.0979
 6171TIP3    H140004   5.255   4.663  11.778 -0.1411 -1.0535 -0.6809
 6171TIP3    H240005   5.129   4.710  11.709  0.0366 -0.2465 -0.4727
 6172TIP3   OH240006   2.756   0.889  11.620 -0.4145 -0.0553  0.3058
 6172TIP3    H140007   2.734   0.806  11.577 -2.0523  1.0309 -1.1181
 6172TIP3    H240008   2.847   0.906  11.596 -0.3311 -1.0346 -0.1052
 6173TIP3   OH240009   0.289   0.124  11.283  0.1205  0.0792  0.5885
 6173TIP3    H140010   0.256   0.036  11.265 -1.1694  0.3283  1.5628
 6173TIP3    H240011   0.288   0.167  11.197 -0.5247 -0.4513  0.3146
 6174TIP3   OH240012   0.822   6.544  11.860  0.2131 -0.1850  0.2797
 6174TIP3    H140013   0.748   6.498  11.901  0.5589 -0.1552  0.9439
 6174TIP3    H240014   0.899   6.497  11.890  0.5092  0.2293  0.1713
 6175TIP3   OH240015   3.482   4.220   1.615  0.1004  0.2697 -0.1249
 6175TIP3    H140016   3.454   4.135   1.582  1.4625 -0.6448  0.9585
 6175TIP3    H240017   3.488   4.275   1.537 -0.8831 -0.5874 -0.8377
 6176TIP3   OH240018   0.969   5.726   3.233  0.3514 -0.4325  0.3519
 6176TIP3    H140019   0.906   5.732   3.162  1.5951  0.4191 -0.7221
 6176TIP3    H240020   1.029   5.656   3.206  2.2334  1.4760 -0.6550
 6177TIP3   OH240021   4.368   5.233   5.676 -0.4055  0.1722  0.2079
 6177TIP3    H140022   4.380   5.178   5.599  0.4140  0.6748 -0.0343
 6177TIP3    H240023   4.274   5.230   5.693 -0.9036  1.5074 -1.9221
 6178TIP3   OH240024   3.194   6.173  12.963 -0.5487 -0.0385 -0.2901
 6178TIP3    H140025   3.106   6.139  12.978 -1.2495  0.4175 -2.9148
 6178TIP3    H240026   3.193   6.261  13.000 -0.7926 -0.4485  0.7174
 6179TIP3   OH240027   5.221   6.509   3.992  0.0799  0.2656 -0.4320
 6179TIP3    H140028   5.132   6.530   4.020 -0.0464 -1.9145  1.0595
 6179TIP3    H240029   5.270   6.591   4.004 -0.5274  0.2149  4.0874
 6180TIP3   OH240030   3.657   2.895  13.248  0.0822 -0.3205 -0.0952
 6180TIP3    H140031   3.689   2.907  13.159  3.5247  0.7459  1.0903
 6180TIP3    H240032   3.657   2.800  13.262 -0.0336 -0.4688 -1.0903
 6181TIP3   OH240033   4.411   4.555   0.838 -0.0806  0.5800 -0.1061
 6181TIP3    H140034   4.358   4.478   0.854 -1.0291  1.1853 -0.2750
 6181TIP3    H240035   4.352   4.629   0.853  0.8157  1.2773  0.0859
 6182TIP3   OH240036   1.468   4.488   3.363 -0.3465 -0.9491 -0.4166
 6182TIP3    H140037   1.415   4.565   3.345  2.4576  1.6570  1.5548
 6182TIP3    H240038   1.419   4.416   3.323 -3.4715  1.6711 -1.7948
 6183TIP3   OH240039   0.391   0.483   3.886 -0.1231 -0.4280  0.7129
 6183TIP3    H140040   0.367   0.528   3.967 -1.2446 -0.7350  0.5707
 6183TIP3    H240041   0.418   0.552   3.826 -3.0255  0.2460  0.0752
 6184TIP3   OH240042   1.877   4.435   1.262  0.6231 -0.2383 -0.4285
 6184TIP3    H140043   1.832   4.464   1.341 -0.0786 -0.4077 -0.7603
 6184TIP3    H240044   1.940   4.370   1.293 -0.8300 -1.5821 -0.2015
 6185TIP3   OH240045   5.196   2.510   2.612 -0.2786  0.1808  0.2138
 6185TIP3    H140046   5.287   2.511   2.644 -0.1492  0.0248 -0.1500
 6185TIP3    H240047   5.196   2.444   2.543 -0.4722  0.7966 -0.3787
 6186TIP3   OH240048   1.668   5.517   3.661 -0.2776 -0.1854 -0.2901
 6186TIP3    H140049   1.728   5.462   3.609  0.4705  0.1311  0.2248
 6186TIP3    H240050   1.709   5.604   3.660 -0.9398  0.1313 -0.2594
 6187TIP3   OH240051   1.708   5.718  12.181 -0.2529  0.0210 -0.0542
 6187TIP3    H140052   1.770   5.772  12.231 -0.2473  0.5609 -0.6365
 6187TIP3    H240053   1.735   5.729  12.090 -0.3507 -0.8481 -0.1939
 6188TIP3   OH240054   0.437   6.366   6.420 -0.7184 -0.6273  0.0475
 6188TIP3    H140055   0.387   6.311   6.482 -0.2445 -0.2457  0.7870
 6188TIP3    H240056   0.380   6.439   6.401  0.0913  0.6397  2.1298
 6189TIP3   OH240057   1.528   1.385   5.003  0.6599 -0.4281  0.0482
 6189TIP3    H140058   1.546   1.294   4.981  0.3138 -0.4694 -0.0715
 6189TIP3    H240059   1.610   1.418   5.039  0.0150 -1.5327  2.6824
 6190TIP3   OH240060   2.157   4.728   5.646  0.0705 -0.2270  0.3022
 6190TIP3    H140061   2.141   4.634   5.655 -0.6862  0.0595  3.0817
 6190TIP3    H240062   2.145   4.762   5.735  0.3713  2.4991 -0.6194
 6191TIP3   OH240063   1.876   3.733  15.847  0.0327 -0.3700  0.2925
 6191TIP3    H140064   1.784   3.727  15.821  0.3169  1.4680 -1.4141
 6191TIP3    H240065   1.874   3.771  15.935 -0.8409 -1.0149  0.5658
 6192TIP3   OH240066   0.358   4.359   3.306  0.1067 -0.8444 -0.0086
 6192TIP3    H140067   0.428   4.294   3.318 -1.2335 -2.4320 -0.5044
 6192TIP3    H240068   0.278   4.308   3.299 -1.5405  1.0091  3.1560
 6193TIP3   OH240069   1.592   4.243  17.291  0.5065  0.3006  0.3363
 6193TIP3    H140070   1.534   4.316  17.314 -1.1583 -0.5608 -0.9400
 6193TIP3    H240071   1.533   4.174  17.260  2.2484 -0.3407 -1.7728
 6194TIP3   OH240072   4.649   1.916   1.226 -0.0850  0.0628 -0.0862
 6194TIP3    H140073   4.646   1.962   1.310  0.6059  1.8516 -0.9895
 6194TIP3    H240074   4.579   1.955   1.174  0.8916  0.5718 -1.0757
 6195TIP3   OH240075   3.822   4.243  16.090 -0.2525 -0.1248 -0.0625
 6195TIP3    H140076   3.909   4.211  16.063 -0.6147  0.7909 -2.6309
 6195TIP3    H240077   3.786   4.172  16.143  0.3318 -2.5851 -2.6844
 6196TIP3   OH240078   3.471   0.746   3.645 -0.5497 -0.8108  0.3315
 6196TIP3    H140079   3.516   0.740   3.560 -0.0060  1.2938  0.4362
 6196TIP3    H240080   3.381   0.720   3.626 -0.1727 -1.4469 -0.6524
 6197TIP3   OH240081   1.016   2.814   2.258 -0.4587  0.1915 -0.2109
 6197TIP3    H140082   1.021   2.884   2.324 -0.1365  0.1196 -0.1577
 6197TIP3    H240083   1.082   2.838   2.193  0.6591 -0.7926  0.5206
 6198TIP3   OH240084   2.653   4.845   0.590  0.2835 -0.1657 -0.2795
 6198TIP3    H140085   2.746   4.822   0.596  0.1078 -0.6460  1.0138
 6198TIP3    H240086   2.631   4.877   0.677 -0.8575 -0.4282 -0.4551
 6199TIP3   OH240087   4.815   1.167  12.632  0.5945  0.1155 -0.1780
 6199TIP3    H140088   4.722   1.192  12.638  0.8075  1.0859 -0.7347
 6199TIP3    H240089   4.813   1.074  12.612 -0.2547  0.0229  0.2458
 6200TIP3   OH240090   2.575   3.236   0.065 -0.4508  0.1579 -0.5731
 6200TIP3    H140091   2.548   3.225   0.157  0.0749  0.8403 -0.3289
 6200TIP3    H240092   2.493   3.256   0.019 -0.5055  1.4626  0.0393
 6201TIP3   OH240093   1.938   3.155   3.694 -0.5369  0.1802 -0.1276
 6201TIP3    H140094   2.010   3.183   3.750 -0.2360  0.1803 -0.5048
 6201TIP3    H240095   1.904   3.235   3.655 -1.9891  0.3999  1.4863
 6202TIP3   OH240096   2.711   6.212  16.298  0.9859 -0.1971 -0.1649
 6202TIP3    H140097   2.664   6.136  16.263 -1.2675 -0.1420  2.4861
 6202TIP3    H240098   2.797   6.177  16.322  1.0625 -1.1707 -1.6673
 6203TIP3   OH240099   1.969   2.850   2.574 -0.6019 -0.0111 -0.1562
 6203TIP3    H140100   2.014   2.767   2.586  1.3811  1.2115  1.5663
 6203TIP3    H240101   1.876   2.827   2.569 -0.1100 -2.2967  0.3960
 6204TIP3   OH240102   2.177   3.491  14.361 -0.7854 -0.2975  0.3358
 6204TIP3    H140103   2.104   3.448  14.404 -0.8204  0.2331  0.8171
 6204TIP3    H240104   2.191   3.441  14.281 -2.9225  0.7343 -0.7649
 6205TIP3   OH240105   4.267   4.030  12.027  0.7085 -0.2230 -0.1535
 6205TIP3    H140106   4.342   4.077  11.990  0.0055  0.9481 -0.1318
 6205TIP3    H240107   4.304   3.979  12.098  1.2820  1.5018  0.8422
 6206TIP3   OH240108   6.282   6.648   5.145  0.0440 -0.1043 -0.2968
 6206TIP3    H140109   6.204   6.695   5.175 -1.4353 -0.1706 -3.6061
 6206TIP3    H240110   6.335   6.637   5.224 -2.5405  1.3407  1.8122
 6207TIP3   OH240111   5.322   5.573  10.777  0.3155  0.2763  0.0386
 6207TIP3    H140112   5.278   5.504  10.826 -0.1630 -0.1821 -0.9878
 6207TIP3    H240113   5.301   5.654  10.824 -0.2372 -0.1344  0.5085
 6208TIP3   OH240114   0.559   4.341  13.827 -0.4274 -0.2592 -0.2859
 6208TIP3    H140115   0.645   4.302  13.845 -0.1113 -0.0323 -1.2476
 6208TIP3    H240116   0.496   4.278  13.860  0.1024  0.0056  1.3359
 6209TIP3   OH240117   6.350   2.546   1.906 -0.1117 -0.4590  0.0576
 6209TIP3    H140118   6.415   2.540   1.976 -0.3511 -1.7418  0.1959
 6209TIP3    H240119   6.397   2.585   1.833  0.1945  0.7257  0.8440
 6210TIP3   OH240120   2.535   5.640  15.374 -0.3022  0.5657 -0.2322
 6210TIP3    H140121   2.573   5.622  15.288  0.1771 -1.5584  0.3510
 6210TIP3    H240122   2.580   5.719  15.404  2.1182 -0.6055 -0.4938
 6211TIP3   OH240123   6.661   2.602   5.834 -0.3957 -0.4718  0.0657
 6211TIP3    H140124   6.726   2.656   5.879  0.5189 -1.9846  0.6431
 6211TIP3    H240125   6.711   2.528   5.799 -0.8907  0.8624 -4.0907
 6212TIP3   OH240126   6.559   2.230   1.620 -0.6744  0.0102  0.2726
 6212TIP3    H140127   6.564   2.179   1.540 -1.7633 -0.5436  0.5440
 6212TIP3    H240128   6.490   2.295   1.604 -1.2916 -0.4620  0.9465
 6213TIP3   OH240129   3.238   5.314  11.639 -0.0717 -0.3172  0.5976
 6213TIP3    H140130   3.206   5.404  11.640  1.8755  0.4446  0.2682
 6213TIP3    H240131   3.319   5.319  11.588  0.7031 -2.0323  1.5842
 6214TIP3   OH240132   5.411   5.905  14.073  0.2628 -0.1681 -0.4190
 6214TIP3    H140133   5.506   5.892  14.079  0.3183  0.2044 -0.4874
 6214TIP3    H240134   5.375   5.816  14.066  0.5316 -0.3789  0.6600
 6215TIP3   OH240135   5.904   2.753   2.268  0.1965  0.3410 -1.2307
 6215TIP3    H140136   5.832   2.816   2.259  0.6947  0.8008 -2.0896
 6215TIP3    H240137   5.927   2.756   2.360 -1.5565 -0.5653 -0.7221
 6216TIP3   OH240138   1.553   3.053  13.892 -0.3888 -0.2216 -0.4981
 6216TIP3    H140139   1.641   3.083  13.914  0.2770  0.5902 -3.6656
 6216TIP3    H240140   1.506   3.052  13.975  2.2065  0.6366  1.1009
 6217TIP3   OH240141   4.701   4.857  12.452 -0.3054  0.2886  0.2258
 6217TIP3    H140142   4.689   4.939  12.403  0.3848  1.4348  1.8775
 6217TIP3    H240143   4.787   4.825  12.423 -0.3647  0.3941 -0.0734
 6218TIP3   OH240144   5.591   4.200   3.588  0.2635 -0.1056  0.4751
 6218TIP3    H140145   5.679   4.188   3.624 -0.0039 -2.9436  0.4232
 6218TIP3    H240146   5.606   4.216   3.495  0.7913 -3.1079 -0.0733
 6219TIP3   OH240147   0.303   3.179   2.480  0.1971 -0.1384 -0.3358
 6219TIP3    H140148   0.321   3.178   2.385  3.0490  0.2066  0.1088
 6219TIP3    H240149   0.282   3.270   2.499  0.9671  0.0811 -0.4714
 6220TIP3   OH240150   3.799   3.336  12.528 -0.0732  0.0008 -0.1335
 6220TIP3    H140151   3.858   3.344  12.603 -0.2505 -1.2076  0.1636
 6220TIP3    H240152   3.850   3.367  12.453  0.4086  0.3862  0.3417
 6221TIP3   OH240153   2.101   1.949  17.156  0.7188 -0.6497 -0.2271
 6221TIP3    H140154   2.173   1.988  17.205  0.9206 -0.1182 -0.9400
 6221TIP3    H240155   2.040   1.918  17.223  1.7192 -1.3292  0.3955
 6222TIP3   OH240156   5.630   2.241  10.733  0.0539  0.0475  0.4122
 6222TIP3    H140157   5.601   2.331  10.720  0.2202  0.0214 -0.1644
 6222TIP3    H240158   5.709   2.250  10.788  0.1688  0.2689  0.2158
 6223TIP3   OH240159   3.863   0.866  15.188 -0.5560  0.1348  0.0226
 6223TIP3    H140160   3.775   0.890  15.217 -0.5679 -1.8904  1.9113
 6223TIP3    H240161   3.915   0.865  15.268  1.2024  1.1488 -1.0446
 6224TIP3   OH240162   4.335   1.877  14.507  0.0841  0.1507  0.7747
 6224TIP3    H140163   4.264   1.851  14.565  0.0475 -1.2473  0.1354
 6224TIP3    H240164   4.353   1.968  14.530 -2.2254  0.7067  0.6166
 6225TIP3   OH240165   0.003   2.204  13.614 -0.5715  0.0418 -0.1172
 6225TIP3    H140166   0.018   2.109  13.620 -0.2843 -0.0606 -1.9643
 6225TIP3    H240167  -0.044   2.216  13.532 -1.1526  1.4655  0.3903
 6226TIP3   OH240168   1.901   3.259  16.201  0.6110  0.7936 -0.3165
 6226TIP3    H140169   1.870   3.217  16.281  1.1188  0.9349 -0.0422
 6226TIP3    H240170   1.997   3.253  16.205  0.7449  2.5697  0.0791
 6227TIP3   OH240171   0.598   2.414   2.946  0.1042  0.2088 -0.1235
 6227TIP3    H140172   0.528   2.360   2.908  1.4612  0.6514 -3.6605
 6227TIP3    H240173   0.572   2.504   2.927  1.2892  0.4042 -0.9409
 6228TIP3   OH240174   6.314   2.407  14.830 -0.0179  0.3728  0.0591
 6228TIP3    H140175   6.258   2.427  14.755  0.2210  2.2102  0.3217
 6228TIP3    H240176   6.252   2.385  14.900 -0.5122  2.6302  0.4182
 6229TIP3   OH240177   2.134   1.016  14.344 -0.0283  0.0704  0.1446
 6229TIP3    H140178   2.151   1.110  14.342  1.5073 -0.1895 -1.1857
 6229TIP3    H240179   2.082   1.000  14.264 -0.4618 -0.1982  0.4765
 6230TIP3   OH240180   1.963   4.912   1.913  0.0163  0.5491  0.5860
 6230TIP3    H140181   1.957   4.944   1.822  0.6227  0.7029  0.5898
 6230TIP3    H240182   1.873   4.902   1.941 -0.1793  0.2211 -0.1364
 6231TIP3   OH240183   2.853   2.285   0.454 -0.5965  0.3339  0.3094
 6231TIP3    H140184   2.801   2.217   0.497 -0.9057  0.0968 -0.4345
 6231TIP3    H240185   2.884   2.245   0.373 -0.0674  0.8001  0.2721
 6232TIP3   OH240186   3.451   4.575  15.985 -0.1466 -0.2250  0.2447
 6232TIP3    H140187   3.434   4.631  15.909  0.6451 -0.9609 -0.5066
 6232TIP3    H240188   3.542   4.547  15.973 -0.4697 -1.5106  0.6985
 6233TIP3   OH240189   4.450   2.700   3.536  0.4556 -0.3988 -0.5065
 6233TIP3    H140190   4.435   2.743   3.452 -0.2050  0.4187  0.0130
 6233TIP3    H240191   4.424   2.609   3.521 -1.2699  0.0963 -0.7468
 6234TIP3   OH240192   1.687   4.565   6.040  0.2769 -0.2262  0.2888
 6234TIP3    H140193   1.604   4.613   6.030  0.2359 -0.0531  1.3578
 6234TIP3    H240194   1.746   4.606   5.977  0.1189  0.9691  0.8929
 6235TIP3   OH240195   3.842   5.514   3.343  0.2424  0.2042 -0.3306
 6235TIP3    H140196   3.823   5.537   3.434 -1.3240 -0.8832 -0.3345
 6235TIP3    H240197   3.777   5.564   3.292 -0.6682 -1.1947 -0.6126
 6236TIP3   OH240198   6.719   5.804   1.758  0.3140  0.6268 -0.2929
 6236TIP3    H140199   6.692   5.836   1.844  1.1585 -0.6968  0.4856
 6236TIP3    H240200   6.648   5.746   1.730 -0.6150  2.0937 -1.1449
 6237TIP3   OH240201   5.831   6.130  14.615  0.6833 -0.1646 -0.6913
 6237TIP3    H140202   5.838   6.219  14.650  2.5594 -0.2833 -0.6569
 6237TIP3    H240203   5.781   6.140  14.534 -0.5040  0.6678  0.1078
 6238TIP3   OH240204   3.440   0.598  13.032  0.0340 -0.4149 -0.4461
 6238TIP3    H140205   3.406   0.671  12.981 -0.6721 -1.8122 -2.0636
 6238TIP3    H240206   3.368   0.573  13.090  0.5393  0.6125  0.6750
 6239TIP3   OH240207   0.445   2.542  16.141  0.1485 -0.1796 -0.0176
 6239TIP3    H140208   0.536   2.513  16.148  1.0692  1.0836 -3.9778
 6239TIP3    H240209   0.444   2.627  16.184  0.6512 -0.5181  0.6771
 6240TIP3   OH240210   5.461   1.416   0.494  0.7297 -0.2865  0.1933
 6240TIP3    H140211   5.526   1.416   0.425  1.4419 -0.3716  0.8553
 6240TIP3    H240212   5.499   1.469   0.564  0.1141 -0.3692  0.6018
 6241TIP3   OH240213   4.268   1.992  13.140  0.3303  0.0857 -0.2984
 6241TIP3    H140214   4.320   1.927  13.093  0.9349  0.2710  0.1015
 6241TIP3    H240215   4.268   2.069  13.083  2.0717  0.7258  0.4948
 6242TIP3   OH240216   3.215   2.684   5.042  0.3458  0.3843  0.1577
 6242TIP3    H140217   3.175   2.625   4.978 -0.7482  0.7834  0.4463
 6242TIP3    H240218   3.143   2.711   5.098  0.7330  2.2781 -0.1832
 6243TIP3   OH240219   6.731   5.716  12.432 -0.0690 -0.6762 -0.2637
 6243TIP3    H140220   6.794   5.751  12.369 -0.0575  1.4344  0.8398
 6243TIP3    H240221   6.738   5.621  12.422  1.7981 -0.4561 -1.5987
 6244TIP3   OH240222   2.459   4.163   1.603  0.8378  0.4543  0.9483
 6244TIP3    H140223   2.429   4.247   1.566 -1.9345 -0.9994 -0.4024
 6244TIP3    H240224   2.439   4.170   1.696 -0.9423  0.7241  0.5781
 6245TIP3   OH240225   5.886   4.973   1.070  0.0050 -0.7048  0.6042
 6245TIP3    H140226   5.803   4.963   1.117  0.4268 -0.5760  1.3890
 6245TIP3    H240227   5.860   4.988   0.979 -0.7925 -4.7705 -0.0083
 6246TIP3   OH240228   5.114   4.411  14.087  0.1910 -0.3424  0.4320
 6246TIP3    H140229   5.174   4.350  14.131  0.1195 -0.5993  0.1750
 6246TIP3    H240230   5.146   4.498  14.112 -0.0594 -0.4856  1.2866
 6247TIP3   OH240231   5.271   6.529   0.069  0.2212 -0.2830 -0.1329
 6247TIP3    H140232   5.258   6.522  -0.026 -2.2366  2.9796 -0.2443
 6247TIP3    H240233   5.195   6.486   0.107 -0.3509  0.9304  0.1610
 6248TIP3   OH240234   0.108   4.916  10.549 -0.2659 -1.2015  0.4637
 6248TIP3    H140235   0.095   4.989  10.487  3.3989 -0.9609 -0.2721
 6248TIP3    H240236   0.140   4.844  10.495 -0.6168 -2.2730  1.6339
 6249TIP3   OH240237   6.634   0.995   2.122  0.2379 -0.2684  0.5876
 6249TIP3    H140238   6.699   0.930   2.148  1.2476  0.9520  1.2472
 6249TIP3    H240239   6.678   1.079   2.135 -1.0679  0.5575 -0.1144
 6250TIP3   OH240240   1.943   2.930  11.172  0.8579 -0.6815 -0.4821
 6250TIP3    H140241   1.981   2.954  11.087 -0.5958  0.9129 -0.7186
 6250TIP3    H240242   1.860   2.887  11.150 -0.4831  1.4665  0.1030
 6251TIP3   OH240243   0.447   3.780  15.092  0.1383 -0.1589 -0.0225
 6251TIP3    H140244   0.503   3.771  15.170  1.7329  0.9029 -0.9947
 6251TIP3    H240245   0.504   3.756  15.019 -1.1402 -0.4892 -0.9412
 6252TIP3   OH240246   2.022   5.164   5.470 -0.3376  0.2758  0.0156
 6252TIP3    H140247   1.971   5.086   5.448 -2.7212  1.0643  2.2172
 6252TIP3    H240248   1.977   5.236   5.425  1.0876  0.5743 -0.9886
 6253TIP3   OH240249   3.835   1.537  16.131  0.2190  0.2082 -0.0792
 6253TIP3    H140250   3.758   1.579  16.092  0.5363  0.7408 -0.1414
 6253TIP3    H240251   3.818   1.443  16.123 -0.5712  0.3229  0.2003
 6254TIP3   OH240252   0.344   1.819  16.625  0.3962 -0.1088 -0.0820
 6254TIP3    H140253   0.440   1.819  16.623  0.4219  1.1624  0.5774
 6254TIP3    H240254   0.319   1.784  16.539  1.4452 -0.4715 -0.2574
 6255TIP3   OH240255   2.949   2.114  16.902  0.4268  0.1241 -0.4444
 6255TIP3    H140256   2.913   2.027  16.887 -1.3894  0.7871 -0.2427
 6255TIP3    H240257   2.887   2.156  16.962  1.2933  1.5227 -0.4639
 6256TIP3   OH240258   4.604   0.832   1.059  0.4557 -0.2518  0.1108
 6256TIP3    H140259   4.563   0.895   1.000 -0.1362 -1.0738 -0.3655
 6256TIP3    H240260   4.617   0.881   1.140 -0.8865  0.2263  0.0665
 6257TIP3   OH240261   3.993   4.758  16.696 -0.4890 -0.1182  0.2618
 6257TIP3    H140262   4.031   4.670  16.693  0.5495  0.2914  0.9426
 6257TIP3    H240263   3.917   4.753  16.637 -0.0023 -1.2555 -0.3048
 6258TIP3   OH240264   1.607   4.060  13.616  0.2312 -0.5579  0.4464
 6258TIP3    H140265   1.515   4.043  13.636  0.3402 -1.4058  0.2366
 6258TIP3    H240266   1.622   4.017  13.533  0.6477  0.1697  0.1332
 6259TIP3   OH240267   6.430   2.244   3.140  0.1331  0.5087  1.0352
 6259TIP3    H140268   6.372   2.183   3.096  1.1532 -0.4756  0.9971
 6259TIP3    H240269   6.375   2.318   3.164 -1.0871 -0.3464  0.9140
 6260TIP3   OH240270   0.931   2.405   5.403  0.4347  0.1614 -0.4457
 6260TIP3    H140271   0.869   2.357   5.348 -0.5107 -0.0980  0.7894
 6260TIP3    H240272   0.887   2.488   5.422  0.9985  0.4885 -0.5355
 6261TIP3   OH240273   4.101   4.803  11.751  0.5697 -0.2240  0.5420
 6261TIP3    H140274   4.176   4.816  11.693  1.4914 -2.5565  1.1166
 6261TIP3    H240275   4.028   4.845  11.705  1.6542 -0.3102 -1.3607
 6262TIP3   OH240276   2.724   1.228  16.241 -0.1543 -0.2803  0.0849
 6262TIP3    H140277   2.729   1.324  16.245 -0.5494 -0.2087 -0.8334
 6262TIP3    H240278   2.778   1.198  16.313  0.9632  0.6217 -0.3461
 6263TIP3   OH240279   2.321   6.048   4.476  0.1691  0.0674 -0.6084
 6263TIP3    H140280   2.264   5.971   4.467  0.8261 -0.6154  0.7293
 6263TIP3    H240281   2.309   6.076   4.566  1.3256  0.4085 -0.5400
 6264TIP3   OH240282   0.554   6.670   4.281 -0.3025 -0.1610  0.9272
 6264TIP3    H140283   0.601   6.711   4.353 -0.6459  0.3212  0.8833
 6264TIP3    H240284   0.462   6.691   4.297 -0.3094  0.6161 -0.0738
 6265TIP3   OH240285   2.972   4.476   3.951 -0.6531  0.2255 -0.0338
 6265TIP3    H140286   2.955   4.569   3.967 -0.4377  0.0833  1.1314
 6265TIP3    H240287   2.900   4.449   3.894 -1.0494  0.9768  0.0837
 6266TIP3   OH240288   2.379   4.640   1.851  0.7417 -0.0402  0.1394
 6266TIP3    H140289   2.473   4.638   1.830  1.1000  2.9309  0.9552
 6266TIP3    H240290   2.376   4.644   1.947 -0.1294  1.1075  0.0856
 6267TIP3   OH240291   0.987   6.287  15.857  0.0615 -0.4906  1.0682
 6267TIP3    H140292   0.978   6.302  15.951 -0.1824 -1.0841  1.1430
 6267TIP3    H240293   0.908   6.238  15.833 -0.9653  1.4955  0.1451
 6268TIP3   OH240294   3.828   6.770  14.595  0.0381 -0.6870  0.4003
 6268TIP3    H140295   3.764   6.711  14.554  1.0907 -2.0004  0.5638
 6268TIP3    H240296   3.908   6.757  14.545 -0.1026  1.9090 -0.6251
 6269TIP3   OH240297   4.257   1.646  11.493 -0.2364  0.0513  0.2491
 6269TIP3    H140298   4.278   1.704  11.420 -1.4761  1.1738  0.7444
 6269TIP3    H240299   4.280   1.696  11.571  0.2603 -0.7974  0.6588
 6270TIP3   OH240300   6.461   4.100   5.655  0.3156 -0.2802 -0.4874
 6270TIP3    H140301   6.512   4.023   5.633  0.4171 -0.2312 -0.4211
 6270TIP3    H240302   6.526   4.166   5.681  0.2157 -0.2416 -0.3341
 6271TIP3   OH240303   5.940   3.453  12.601 -0.4652 -0.1256 -0.2688
 6271TIP3    H140304   5.995   3.379  12.628 -1.5363 -0.8467 -0.0285
 6271TIP3    H240305   5.857   3.440  12.647 -0.7027  1.1894 -0.2814
 6272TIP3   OH240306   4.558   6.710   5.425 -0.2708  0.0258 -0.5762
 6272TIP3    H140307   4.648   6.684   5.409 -0.0772  0.4402 -0.1800
 6272TIP3    H240308   4.510   6.628   5.435  0.0279 -0.1966 -0.9592
 6273TIP3   OH240309   1.173   3.349  11.594  0.1004  0.0009  0.3153
 6273TIP3    H140310   1.146   3.305  11.674  1.2098  0.8321  1.1837
 6273TIP3    H240311   1.242   3.292  11.558  0.7184  0.4272  0.8134
 6274TIP3   OH240312   1.717   2.072   2.264  0.3584  0.9000 -0.3208
 6274TIP3    H140313   1.794   2.066   2.320  0.4675  1.3394 -0.4178
 6274TIP3    H240314   1.643   2.059   2.324  0.4100  2.7611  0.2047
 6275TIP3   OH240315   5.401   0.607   5.000 -0.4282  0.5615  0.0019
 6275TIP3    H140316   5.456   0.563   4.935 -1.2295  1.9333 -1.6754
 6275TIP3    H240317   5.331   0.648   4.949 -2.0522  0.3136  1.9091
 6276TIP3   OH240318   5.576   2.971   2.412  0.9725  0.4970  0.2789
 6276TIP3    H140319   5.651   2.918   2.438  0.0587 -0.2004  1.6147
 6276TIP3    H240320   5.524   2.913   2.356  0.2123  0.1164  1.3537
 6277TIP3   OH240321   5.371   5.884  13.640 -0.6080  0.6984 -0.6479
 6277TIP3    H140322   5.387   5.817  13.574 -0.7252  0.6579 -0.6355
 6277TIP3    H240323   5.289   5.858  13.681 -0.4305  0.6133 -0.3460
 6278TIP3   OH240324   1.735   5.184   3.121  0.4009  0.3477  0.7383
 6278TIP3    H140325   1.813   5.140   3.154  0.4202  1.0314  1.6681
 6278TIP3    H240326   1.760   5.216   3.034  1.2942  0.9097  1.1902
 6279TIP3   OH240327   1.963   1.158  11.876 -0.4426  0.1818 -0.5231
 6279TIP3    H140328   1.924   1.146  11.963 -1.7588  0.6897 -1.0189
 6279TIP3    H240329   1.933   1.083  11.825  0.2166 -0.0443 -0.5899
 6280TIP3   OH240330   4.993   0.736  16.480  0.5314 -0.1002  0.1448
 6280TIP3    H140331   4.939   0.802  16.438  0.0773 -0.8299 -0.4411
 6280TIP3    H240332   5.055   0.709  16.413  1.0611  0.0945  0.5431
 6281TIP3   OH240333   4.487   4.219  12.585  0.0934  0.5220  0.1211
 6281TIP3    H140334   4.423   4.285  12.560 -0.0409  0.9854  1.6297
 6281TIP3    H240335   4.435   4.142  12.606  0.1956  0.1949 -0.7637
 6282TIP3   OH240336   4.543   2.115   4.919  0.7860 -0.5470 -0.1110
 6282TIP3    H140337   4.589   2.067   4.987  3.9601 -0.1070 -1.7242
 6282TIP3    H240338   4.498   2.186   4.965  1.7144 -1.0493  1.6523
 6283TIP3   OH240339   3.155   4.852   2.085 -0.3767  0.0764 -0.0786
 6283TIP3    H140340   3.221   4.884   2.024 -0.6309 -0.3413 -0.5814
 6283TIP3    H240341   3.175   4.896   2.168 -0.5938  1.3692 -0.6975
 6284TIP3   OH240342   3.641   3.335   2.033  0.1517  0.7919 -0.0816
 6284TIP3    H140343   3.643   3.422   1.993 -0.8487  0.9040  0.1053
 6284TIP3    H240344   3.550   3.321   2.058  0.1183 -0.6674 -0.8890
 6285TIP3   OH240345   4.532   5.525  15.959 -0.0490  0.0955 -0.2067
 6285TIP3    H140346   4.617   5.567  15.972 -0.1625  0.7969 -1.4902
 6285TIP3    H240347   4.479   5.593  15.917 -0.2325 -1.2971 -2.3833
 6286TIP3   OH240348   2.468   3.843  12.541 -1.2325 -0.3670 -0.2950
 6286TIP3    H140349   2.512   3.772  12.587 -2.0283 -0.9897 -0.4804
 6286TIP3    H240350   2.400   3.873  12.601 -1.0980  0.0371 -0.3386
 6287TIP3   OH240351   4.278   5.973   4.406  0.1863 -0.0776 -0.1049
 6287TIP3    H140352   4.194   5.965   4.451 -0.7029  1.2066 -1.4607
 6287TIP3    H240353   4.301   5.884   4.382  0.1938 -0.6787  1.9561
 6288TIP3   OH240354   4.407   2.536   1.643 -0.2044 -0.3145  0.4737
 6288TIP3    H140355   4.385   2.446   1.619  0.2652 -0.1510 -0.6228
 6288TIP3    H240356   4.418   2.533   1.738  2.2118 -1.9738  0.2543
 6289TIP3   OH240357   0.192   5.478   3.140 -0.6207 -0.3707  0.5939
 6289TIP3    H140358   0.128   5.408   3.124  0.2393 -1.1431  0.4759
 6289TIP3    H240359   0.142   5.559   3.126 -0.9200 -0.9310 -2.2747
 6290TIP3   OH240360   6.784   5.200  11.425 -0.0515  0.6064 -0.5160
 6290TIP3    H140361   6.744   5.284  11.447 -1.1390 -0.0144 -0.0357
 6290TIP3    H240362   6.710   5.142  11.406  0.6739 -0.2568 -0.8007
 6291TIP3   OH240363   1.929   6.323  15.377  0.0189 -0.2191 -0.1848
 6291TIP3    H140364   1.852   6.379  15.379  0.3662  0.2519  0.4425
 6291TIP3    H240365   1.894   6.234  15.378 -0.5200 -0.0084 -0.1137
 6292TIP3   OH240366   6.143   4.191  15.317  0.6255 -0.3259 -0.5330
 6292TIP3    H140367   6.094   4.154  15.391 -0.6653 -0.1260 -1.2587
 6292TIP3    H240368   6.077   4.209  15.251  1.4389  1.7211 -0.8543
 6293TIP3   OH240369   6.727   1.427  14.587  0.3910  0.9543  0.2915
 6293TIP3    H140370   6.787   1.464  14.652  0.5320  0.6999  0.3084
 6293TIP3    H240371   6.765   1.453  14.503  0.9393  0.1771  0.2818
 6294TIP3   OH240372   1.458   5.769   0.448  0.3041 -0.7966 -0.3216
 6294TIP3    H140373   1.420   5.782   0.361  0.6325  0.0896 -0.3463
 6294TIP3    H240374   1.477   5.675   0.452  0.9402 -0.7329 -1.4866
 6295TIP3   OH240375   4.317   2.279   1.759  0.8016  0.0093  0.2033
 6295TIP3    H140376   4.325   2.184   1.744  1.9234 -0.3362  2.5359
 6295TIP3    H240377   4.367   2.295   1.839 -0.6918  2.3294  0.7757
 6296TIP3   OH240378   5.636   6.594   1.916 -0.4214  0.5244  0.4506
 6296TIP3    H140379   5.690   6.664   1.954 -1.2098  0.2695  2.0981
 6296TIP3    H240380   5.636   6.613   1.822  0.1359  2.2143  0.7516
 6297TIP3   OH240381   6.446   5.192   0.062 -0.4799 -0.2170 -0.4064
 6297TIP3    H140382   6.533   5.195   0.102 -1.5854 -2.1598  2.4666
 6297TIP3    H240383   6.394   5.254   0.112 -1.5278 -1.5225  0.1798
 6298TIP3   OH240384   0.936   2.908   1.533  0.3868  0.2816 -0.0122
 6298TIP3    H140385   0.870   2.972   1.561 -0.1956 -0.0178 -0.6765
 6298TIP3    H240386   0.915   2.890   1.442  1.4228  0.2091 -0.2518
 6299TIP3   OH240387   0.079   5.640   1.407  0.6815  0.0422 -0.1751
 6299TIP3    H140388   0.131   5.660   1.329  0.8851 -1.6546 -0.5010
 6299TIP3    H240389   0.088   5.718   1.462  0.1292  1.5029 -2.0317
 6300TIP3   OH240390   4.767   6.082   2.624 -0.0207  0.0570 -0.9237
 6300TIP3    H140391   4.775   6.144   2.551 -2.6622 -1.0823 -2.3417
 6300TIP3    H240392   4.696   6.023   2.597  0.7717 -2.1290  1.3980
 6301TIP3   OH240393   0.111   2.543   1.679  0.0713 -0.2457 -0.4449
 6301TIP3    H140394   0.037   2.518   1.734  0.6919 -1.6058 -0.1888
 6301TIP3    H240395   0.120   2.471   1.616  2.0375 -0.8227  0.4333
 6302TIP3   OH240396   1.973   3.583  12.389 -0.3986  0.0844  0.5899
 6302TIP3    H140397   1.977   3.491  12.361  0.5138 -0.2029  1.5908
 6302TIP3    H240398   1.881   3.597  12.412 -0.3834 -0.8692  1.2979
 6303TIP3   OH240399   6.776   1.103   3.098  0.4808 -0.3171  0.0359
 6303TIP3    H140400   6.858   1.147   3.077 -0.3286  1.4214  0.2913
 6303TIP3    H240401   6.729   1.166   3.153 -1.0976 -1.1911 -0.2627
 6304TIP3   OH240402   6.055   2.061   0.078  0.6003 -0.0472  0.2843
 6304TIP3    H140403   6.017   1.981   0.113  1.0805 -0.1775  0.5228
 6304TIP3    H240404   5.989   2.129   0.094  1.6618  0.3966  3.5750
 6305TIP3   OH240405   4.077   2.535   5.866 -0.6445  0.7353  0.5361
 6305TIP3    H140406   4.125   2.612   5.896  0.2003 -0.3080  2.0016
 6305TIP3    H240407   4.056   2.487   5.947 -0.4052 -0.9792 -0.3678
 6306TIP3   OH240408   0.207   5.006  15.666  0.2911 -0.2637 -0.3566
 6306TIP3    H140409   0.174   5.095  15.657 -2.2490 -1.0334  0.5370
 6306TIP3    H240410   0.241   4.984  15.579  2.5523  2.0586 -0.2166
 6307TIP3   OH240411   4.462   5.100  16.003  0.8174 -0.7199 -0.2740
 6307TIP3    H140412   4.502   5.159  15.939 -0.0361  0.3920  0.1890
 6307TIP3    H240413   4.536   5.050  16.039  1.5779  0.1859 -0.5420
 6308TIP3   OH240414   3.723   3.724   1.382 -0.0850 -0.3017 -0.2678
 6308TIP3    H140415   3.715   3.704   1.476  0.3136  1.8471  0.2870
 6308TIP3    H240416   3.811   3.693   1.359 -0.2522 -1.0105  0.0122
 6309TIP3   OH240417   6.702   1.607  15.315 -0.4888  0.3171  0.1812
 6309TIP3    H140418   6.760   1.558  15.257  0.1574 -0.7680  1.6879
 6309TIP3    H240419   6.725   1.699  15.299  0.0131  0.0229 -0.9037
 6310TIP3   OH240420   1.779   4.603   2.490  0.2049  0.7233  1.1098
 6310TIP3    H140421   1.827   4.676   2.528  0.3755  1.0773  0.2222
 6310TIP3    H240422   1.778   4.620   2.396  0.3136 -0.4482  0.8803
 6311TIP3   OH240423   5.977   4.814   2.136  0.1167  0.2085 -0.1338
 6311TIP3    H140424   5.950   4.732   2.177  2.6593 -0.5124  0.3232
 6311TIP3    H240425   5.943   4.809   2.047  1.9372 -2.4138 -0.8106
 6312TIP3   OH240426   3.142   3.362  11.905 -0.8189  0.1374  0.3605
 6312TIP3    H140427   3.217   3.346  11.848  1.2108 -2.2935  3.3515
 6312TIP3    H240428   3.071   3.310  11.867 -0.1857  0.2821 -1.0630
 6313TIP3   OH240429   6.625   4.919   2.629  0.2697  0.5237  0.2886
 6313TIP3    H140430   6.582   4.969   2.559  0.0292  1.4450  1.0881
 6313TIP3    H240431   6.555   4.897   2.689  0.6972  0.9331  0.9492
 6314TIP3   OH240432   0.971   2.745  17.265  0.4841 -0.1277  0.1789
 6314TIP3    H140433   0.967   2.832  17.226 -2.4515 -0.0099  0.5141
 6314TIP3    H240434   0.950   2.759  17.357 -0.1354 -1.1745  0.2137
 6315TIP3   OH240435   2.152   0.154  15.588 -0.1931 -0.6223  0.0994
 6315TIP3    H140436   2.148   0.194  15.676 -0.7810 -2.2796  0.8614
 6315TIP3    H240437   2.070   0.181  15.547 -0.9192 -1.5823  0.8706
 6316TIP3   OH240438   3.324   0.934   1.141  0.3841  0.2154  0.2611
 6316TIP3    H140439   3.262   1.007   1.150 -0.7004 -0.4276 -1.3802
 6316TIP3    H240440   3.410   0.975   1.149 -0.1801  1.7534 -0.9340
 6317TIP3   OH240441   5.346   2.437  11.587  0.2325 -0.2179  0.6224
 6317TIP3    H140442   5.414   2.410  11.525  0.0739 -3.8468  1.7927
 6317TIP3    H240443   5.394   2.467  11.664  0.4998 -0.5214  0.5784
 6318TIP3   OH240444   5.278   5.850  17.188 -0.1682 -0.0481 -0.2038
 6318TIP3    H140445   5.366   5.817  17.203  0.7305  2.3541  0.2565
 6318TIP3    H240446   5.225   5.811  17.257  0.5208 -1.5055 -0.4787
 6319TIP3   OH240447   4.036   0.399  15.833  0.2443  0.3529  0.2227
 6319TIP3    H140448   4.111   0.347  15.864 -0.1280 -1.6632 -1.9152
 6319TIP3    H240449   4.073   0.456  15.765 -0.1428 -0.9358 -1.1249
 6320TIP3   OH240450   5.526   4.272   4.211  0.7937 -0.4483  0.6810
 6320TIP3    H140451   5.444   4.229   4.183  0.6537  0.5821 -0.5843
 6320TIP3    H240452   5.516   4.282   4.306 -0.0741 -1.3157  0.7013
 6321TIP3   OH240453   0.056   3.500  10.914  0.2826 -0.5758 -0.3312
 6321TIP3    H140454   0.007   3.542  10.843 -0.3308 -0.1531  0.3325
 6321TIP3    H240455   0.111   3.570  10.950  0.9416 -0.9025 -0.6763
 6322TIP3   OH240456   0.917   3.885   0.499  0.5850 -0.2356  0.8567
 6322TIP3    H140457   0.884   3.936   0.425 -1.8358 -0.7058  1.5304
 6322TIP3    H240458   0.860   3.908   0.571  3.5045  1.0098  2.9853
 6323TIP3   OH240459   5.293   6.615   1.251  0.4761 -0.4943 -0.4235
 6323TIP3    H140460   5.279   6.611   1.346 -0.9654 -3.1157 -0.6442
 6323TIP3    H240461   5.383   6.647   1.241  0.6094 -0.0308  1.8146
 6324TIP3   OH240462   1.574   4.361   6.403  0.6975  0.0843  0.3187
 6324TIP3    H140463   1.534   4.338   6.486  1.7450  0.9956  1.0976
 6324TIP3    H240464   1.635   4.432   6.424  1.0467  0.2699 -1.2022
 6325TIP3   OH240465   0.701   6.637  16.839  0.0371  0.0421  0.2929
 6325TIP3    H140466   0.612   6.634  16.874  0.0755 -0.5225  0.3414
 6325TIP3    H240467   0.690   6.639  16.744 -0.0648  1.4891  0.3068
 6326TIP3   OH240468   6.280   2.668   2.348  0.7129  0.0894  0.8063
 6326TIP3    H140469   6.206   2.719   2.382 -0.7610 -0.6902 -1.0640
 6326TIP3    H240470   6.294   2.600   2.414 -0.5220  0.0020  1.0075
 6327TIP3   OH240471   5.856   6.036  15.655  0.0348  0.6339 -0.1050
 6327TIP3    H140472   5.833   6.032  15.562  0.8211  4.3202 -0.6286
 6327TIP3    H240473   5.941   6.079  15.657  1.2414 -1.6074  2.3075
 6328TIP3   OH240474   0.246   1.381   3.287  0.1001 -0.5221 -0.1365
 6328TIP3    H140475   0.175   1.357   3.227 -1.6636  1.6425  0.9646
 6328TIP3    H240476   0.317   1.409   3.229 -0.6209 -0.9001 -1.2484
 6329TIP3   OH240477   2.091   3.429   1.837 -0.3340 -0.1065  0.2877
 6329TIP3    H140478   2.100   3.378   1.757  1.5692  3.5814 -2.1599
 6329TIP3    H240479   2.174   3.416   1.883 -0.0494  0.3192 -0.0898
 6330TIP3   OH240480   3.943   2.605   4.961  0.0965 -0.4961  0.3095
 6330TIP3    H140481   3.876   2.546   4.995 -1.5141  1.2461  0.2590
 6330TIP3    H240482   3.952   2.673   5.027 -1.8406  2.0087 -1.7738
 6331TIP3   OH240483   2.043   3.835   0.627  0.7668  0.0961 -0.2954
 6331TIP3    H140484   2.027   3.875   0.541  0.8331  0.1142 -0.3002
 6331TIP3    H240485   2.052   3.742   0.609  0.3826  0.0514 -0.2519
 6332TIP3   OH240486   0.556   4.253   6.720 -0.0769 -0.2902  0.3811
 6332TIP3    H140487   0.495   4.181   6.708  0.9936 -0.8480 -2.9989
 6332TIP3    H240488   0.634   4.213   6.759  0.1351 -0.7879 -0.5307
 6333TIP3   OH240489   3.516   2.755   1.301  0.0096 -0.0292 -0.6650
 6333TIP3    H140490   3.460   2.689   1.341 -0.3058  0.6825  0.1065
 6333TIP3    H240491   3.500   2.834   1.353  1.4286  0.2883 -0.6832
 6334TIP3   OH240492   4.575   2.474  16.360 -0.2873  0.4718 -0.1257
 6334TIP3    H140493   4.578   2.568  16.377  1.0694  0.3408  0.5008
 6334TIP3    H240494   4.584   2.466  16.265 -1.9995  0.9969 -0.3813
 6335TIP3   OH240495   1.795   3.750  16.682 -0.8154 -0.1361 -0.5564
 6335TIP3    H140496   1.764   3.703  16.760  0.2394 -2.1433 -1.2567
 6335TIP3    H240497   1.799   3.682  16.614  2.1921  0.6072 -1.2593
 6336TIP3   OH240498   3.926   4.965  13.984  0.4279 -0.7807  0.3966
 6336TIP3    H140499   4.013   4.926  13.975  0.9499  0.6902 -1.8109
 6336TIP3    H240500   3.867   4.899  13.949  0.9055 -0.9584 -0.0856
 6337TIP3   OH240501   2.900   0.460   4.820 -0.3179  0.0401 -0.2678
 6337TIP3    H140502   2.983   0.475   4.865 -0.1802 -3.1107  0.7632
 6337TIP3    H240503   2.925   0.436   4.731 -0.0961 -0.8851  0.0359
 6338TIP3   OH240504   3.623   0.403  13.033  0.3876 -0.5671 -0.0262
 6338TIP3    H140505   3.649   0.418  13.124  3.2984  0.4410 -0.8981
 6338TIP3    H240506   3.549   0.463  13.019 -0.8335 -1.5341  1.9000
 6339TIP3   OH240507   0.425   4.629   3.170  0.3361  0.0451 -0.5334
 6339TIP3    H140508   0.482   4.615   3.245 -1.2963 -0.4430  0.6833
 6339TIP3    H240509   0.337   4.611   3.204 -0.6894  2.0380 -1.9747
 6340TIP3   OH240510   2.909   2.163  12.872  0.2998  0.3283  0.0218
 6340TIP3    H140511   2.828   2.167  12.822  1.0531  0.0032 -1.2809
 6340TIP3    H240512   2.922   2.252  12.904 -0.3526  0.4758 -0.1094
 6341TIP3   OH240513   3.903   6.365  12.902 -0.4741 -0.7995  0.1390
 6341TIP3    H140514   3.979   6.365  12.960 -1.9901  1.8409  2.3637
 6341TIP3    H240515   3.829   6.342  12.958 -1.6173 -1.3954 -1.5123
 6342TIP3   OH240516   4.921   0.604   0.719 -0.5520 -0.3927  0.2166
 6342TIP3    H140517   4.881   0.542   0.779 -0.2102  0.2373  1.1270
 6342TIP3    H240518   4.878   0.688   0.739  2.2224  0.6935  2.4137
 6343TIP3   OH240519   4.423   1.057   4.927 -0.0196  0.1297 -0.1371
 6343TIP3    H140520   4.466   1.093   4.849  1.8198 -1.8813 -0.1495
 6343TIP3    H240521   4.495   1.021   4.979 -1.5634 -2.8373  0.1644
 6344TIP3   OH240522   5.246   0.680   6.407  0.0447  0.4066  0.0653
 6344TIP3    H140523   5.232   0.593   6.370 -0.1260  1.0317 -1.4111
 6344TIP3    H240524   5.158   0.718   6.413  0.0672  0.2979  1.1829
 6345TIP3   OH240525   0.341   5.039   1.730  0.5165  0.0118 -0.6852
 6345TIP3    H140526   0.399   5.104   1.689  0.0500  0.7204 -0.2495
 6345TIP3    H240527   0.314   4.982   1.658  0.5800  0.5695 -1.1573
 6346TIP3   OH240528   5.624   2.291   2.838 -0.2829 -0.1172 -0.1498
 6346TIP3    H140529   5.684   2.305   2.765 -2.8096 -1.6405 -2.7347
 6346TIP3    H240530   5.632   2.199   2.860 -2.2849 -0.6240 -1.2673
 6347TIP3   OH240531   5.928   5.478  17.175  0.1317 -0.2005 -0.6845
 6347TIP3    H140532   5.984   5.402  17.156 -0.2976 -0.8885  0.6477
 6347TIP3    H240533   5.975   5.527  17.242 -1.1643 -1.2461  1.0935
 6348TIP3   OH240534   2.362   1.506  11.870  0.5718  0.3271 -0.4548
 6348TIP3    H140535   2.277   1.463  11.859  0.9259 -0.4424 -0.2646
 6348TIP3    H240536   2.346   1.573  11.937  0.4928 -1.0004  0.9311
 6349TIP3   OH240537   2.432   1.432  12.498  0.3439 -0.1625 -0.0534
 6349TIP3    H140538   2.488   1.400  12.568 -0.0849 -0.6494  0.0792
 6349TIP3    H240539   2.489   1.437  12.422  1.0421  1.2756  0.5389
 6350TIP3   OH240540   3.477   0.349  15.472  0.2975  0.1949  1.0401
 6350TIP3    H140541   3.523   0.383  15.394 -1.0330  0.1547  0.2116
 6350TIP3    H240542   3.448   0.262  15.446  0.8149 -0.2808  2.0017
 6351TIP3   OH240543   4.090   5.153  13.776 -0.5530  0.3537  0.0686
 6351TIP3    H140544   4.147   5.179  13.704  1.0589 -0.6222  0.9380
 6351TIP3    H240545   4.051   5.070  13.747 -0.7852  0.5346 -0.1359
 6352TIP3   OH240546   5.610   6.091   1.478 -0.7183  0.0526  0.1460
 6352TIP3    H140547   5.593   6.159   1.543  2.6239  0.9621  0.2567
 6352TIP3    H240548   5.703   6.071   1.488 -1.4115 -4.2974 -0.2018
 6353TIP3   OH240549   4.000   3.174  14.941 -0.5257 -0.1906  0.0189
 6353TIP3    H140550   4.052   3.121  14.880  0.4870  1.8546 -1.0249
 6353TIP3    H240551   3.913   3.134  14.939  0.0514 -1.4817 -1.1196
 6354TIP3   OH240552   6.702   1.881   3.163  0.1163  0.5240  0.1136
 6354TIP3    H140553   6.688   1.932   3.242  0.2321  1.2568 -0.3320
 6354TIP3    H240554   6.791   1.846   3.172  0.6786  1.7631 -0.3149
 6355TIP3   OH240555   0.382   1.123  10.857 -0.1262 -0.5551  0.1987
 6355TIP3    H140556   0.372   1.077  10.941  0.1690 -1.7638 -0.4003
 6355TIP3    H240557   0.302   1.104  10.809  0.6245 -1.7355 -0.6360
 6356TIP3   OH240558   6.728   4.121  14.619 -0.8552  0.3957  0.1068
 6356TIP3    H140559   6.719   4.119  14.523 -0.9661 -1.1676  0.1158
 6356TIP3    H240560   6.803   4.064  14.636 -1.5376 -0.2565  1.0047
 6357TIP3   OH240561   3.859   1.516   4.281  0.1099  0.4692 -0.0494
 6357TIP3    H140562   3.928   1.451   4.274  0.4590  0.9970 -3.1825
 6357TIP3    H240563   3.834   1.516   4.373  1.6944 -2.3776  0.4761
 6358TIP3   OH240564   2.183   5.135   4.236  0.3541 -0.3658  0.5132
 6358TIP3    H140565   2.255   5.136   4.299  0.3254  0.7958  0.5463
 6358TIP3    H240566   2.165   5.042   4.222  1.8731 -0.6875  0.4831
 6359TIP3   OH240567   2.578   6.050   0.346 -0.1208  0.1671 -0.2785
 6359TIP3    H140568   2.565   6.039   0.440 -1.5381  1.9310 -0.2093
 6359TIP3    H240569   2.607   5.964   0.316  0.2085 -0.4847  1.7261
 6360TIP3   OH240570   3.269   1.911   2.339  0.2322  0.4754 -0.3544
 6360TIP3    H140571   3.201   1.866   2.290  0.1162  0.7846 -0.4827
 6360TIP3    H240572   3.336   1.932   2.274 -0.2034  1.4337 -0.5133
 6361TIP3   OH240573   0.658   3.732   2.962  0.1122  0.0204 -0.4952
 6361TIP3    H140574   0.566   3.742   2.988 -0.0892 -1.3356 -0.5684
 6361TIP3    H240575   0.697   3.680   3.033  1.1720  1.6757  0.1876
 6362TIP3   OH240576   3.333   4.651   1.087 -0.0972  0.0558 -0.1948
 6362TIP3    H140577   3.266   4.681   1.026 -0.5614 -0.7652 -0.1052
 6362TIP3    H240578   3.405   4.712   1.076 -0.6466  0.6273 -0.6934
 6363TIP3   OH240579   3.142   2.542   4.792  0.2020  0.2496  0.8373
 6363TIP3    H140580   3.064   2.531   4.846 -1.2806 -0.2534 -1.2826
 6363TIP3    H240581   3.189   2.459   4.801 -1.3277 -0.8325 -0.5138
 6364TIP3   OH240582   6.354   1.915  13.233  0.0095  0.0898  0.0315
 6364TIP3    H140583   6.301   1.973  13.178  0.9138  1.7114  0.7801
 6364TIP3    H240584   6.443   1.925  13.199 -0.0724 -2.6340 -1.2555
 6365TIP3   OH240585   3.663   2.021  13.634 -0.7148  0.3374 -0.1639
 6365TIP3    H140586   3.647   2.030  13.540 -0.5848  0.5555 -0.1664
 6365TIP3    H240587   3.665   1.927  13.649  1.5302  0.2184 -0.7753
 6366TIP3   OH240588   0.541   5.219   1.604 -0.5801 -0.5638  0.0982
 6366TIP3    H140589   0.582   5.222   1.517 -0.5967 -0.7717  0.0827
 6366TIP3    H240590   0.612   5.241   1.664 -1.0251  1.6109 -0.0998
 6367TIP3   OH240591   0.894   1.122  16.277 -0.2351  0.2559 -0.0222
 6367TIP3    H140592   0.973   1.176  16.282  0.7417 -1.2205  3.1036
 6367TIP3    H240593   0.925   1.033  16.292 -2.4732 -0.4018  1.1019
 6368TIP3   OH240594   3.249   1.082   1.762 -0.1564 -0.7479 -0.0591
 6368TIP3    H140595   3.165   1.051   1.797  0.3677 -0.6906  1.3167
 6368TIP3    H240596   3.227   1.162   1.715 -1.2865 -2.2544 -2.2347
 6369TIP3   OH240597   4.003   5.168   2.652 -0.1940  0.0334 -0.0821
 6369TIP3    H140598   3.995   5.124   2.567 -1.6473 -0.0931  0.0809
 6369TIP3    H240599   3.927   5.136   2.701 -0.4248  1.5622  0.5810
 6370TIP3   OH240600   3.638   3.945   6.533  0.5208 -0.6464 -0.4952
 6370TIP3    H140601   3.717   3.993   6.507  1.5952 -3.0177 -1.9988
 6370TIP3    H240602   3.566   4.001   6.504  1.6748  0.3202 -1.6774
 6371TIP3   OH240603   6.599   6.407   0.646  0.1542  0.5802 -0.0515
 6371TIP3    H140604   6.533   6.418   0.578  1.2950  0.8235 -1.1604
 6371TIP3    H240605   6.659   6.480   0.632  0.5922  0.4319  1.0131
 6372TIP3   OH240606   5.090   3.786   3.719 -0.0242 -0.0622 -0.5483
 6372TIP3    H140607   5.173   3.738   3.722 -0.5708 -0.9715  0.3125
 6372TIP3    H240608   5.057   3.783   3.808 -1.6070 -0.8107 -1.1259
 6373TIP3   OH240609   2.120   0.107   2.983  0.3107 -0.3121 -0.0836
 6373TIP3    H140610   2.168   0.130   2.903 -0.2667 -2.0282 -0.9869
 6373TIP3    H240611   2.029   0.125   2.963  0.3537  1.2520  0.9901
 6374TIP3   OH240612   6.029   3.005  13.708 -0.3297  0.3649 -0.0731
 6374TIP3    H140613   6.005   2.945  13.637  0.6860 -0.6294  0.3915
 6374TIP3    H240614   6.073   2.950  13.772 -0.3486  1.4275  0.8795
 6375TIP3   OH240615   1.028   0.157  14.842  0.0741  0.4297  0.8466
 6375TIP3    H140616   1.005   0.080  14.893 -2.8164  0.1169 -0.7615
 6375TIP3    H240617   0.973   0.227  14.877 -1.3441  0.4030 -1.1611
 6376TIP3   OH240618   3.675   3.011   0.821  0.3162 -0.1946  0.2306
 6376TIP3    H140619   3.659   3.100   0.850 -0.4499 -0.2308 -0.0431
 6376TIP3    H240620   3.661   3.014   0.726 -1.8553 -1.0176  0.4548
 6377TIP3   OH240621   2.578   4.070  14.346  0.1374 -0.1554  0.0621
 6377TIP3    H140622   2.627   4.096  14.424  0.1082  1.3609 -0.3968
 6377TIP3    H240623   2.609   4.129  14.277  0.0375 -1.3572 -1.0506
 6378TIP3   OH240624   0.925   3.471   3.507 -0.7301  0.2802  0.0996
 6378TIP3    H140625   0.947   3.466   3.600 -0.6465  2.7836  0.2674
 6378TIP3    H240626   0.889   3.558   3.495  0.6749  0.6080 -2.5051
 6379TIP3   OH240627   0.488   1.879  11.425  0.2616 -0.7904 -0.1886
 6379TIP3    H140628   0.445   1.958  11.392  0.4421 -0.9360 -0.7770
 6379TIP3    H240629   0.470   1.880  11.519  0.4904  0.0975 -0.1407
 6380TIP3   OH240630   2.064   6.505   4.555  0.2257  0.1881 -0.1944
 6380TIP3    H140631   2.075   6.420   4.596  1.5945  0.3420 -0.2032
 6380TIP3    H240632   2.038   6.563   4.626  0.0134 -0.0723 -0.0562
 6381TIP3   OH240633   5.988   3.947  15.797 -0.7106 -0.2577  0.0248
 6381TIP3    H140634   6.021   3.996  15.872  1.5356  1.7043 -2.0950
 6381TIP3    H240635   6.031   3.862  15.803 -1.0093 -0.3409  1.2188
 6382TIP3   OH240636   5.706   5.327  17.271 -0.0715 -0.8305 -0.1299
 6382TIP3    H140637   5.649   5.291  17.202 -0.6392 -0.0942 -0.0521
 6382TIP3    H240638   5.776   5.371  17.222 -0.3143 -0.5585 -0.2335
 6383TIP3   OH240639   3.912   2.582   5.643  0.3919  0.1018  0.1194
 6383TIP3    H140640   3.957   2.574   5.727 -1.3850 -1.5861  0.9966
 6383TIP3    H240641   3.855   2.658   5.653  1.8048  1.2952 -0.4433
 6384TIP3   OH240642   5.277   6.539   0.957  0.0164  0.0803 -0.1577
 6384TIP3    H140643   5.349   6.597   0.933 -1.6445  2.4704  0.1708
 6384TIP3    H240644   5.288   6.524   1.051  0.9484 -0.9059 -0.4144
 6385TIP3   OH240645   5.787   2.730   1.678  0.7571 -0.0164 -0.0878
 6385TIP3    H140646   5.742   2.709   1.760 -0.4026  1.9176 -0.1822
 6385TIP3    H240647   5.771   2.654   1.622 -2.2687  0.4718 -0.0255
 6386TIP3   OH240648   2.470   5.776  14.948  0.4644  0.5067 -0.6525
 6386TIP3    H140649   2.382   5.760  14.915  0.0658  1.4138 -0.0863
 6386TIP3    H240650   2.506   5.843  14.888  0.6158  0.4344 -0.6434
 6387TIP3   OH240651   1.107   0.461   4.260  0.4561 -0.0850 -0.1165
 6387TIP3    H140652   1.153   0.453   4.343  1.2448  0.0241 -0.5293
 6387TIP3    H240653   1.043   0.530   4.274 -0.2178 -0.8673  0.7437
 6388TIP3   OH240654   6.103   2.492  13.882  0.2743 -0.7502  0.2252
 6388TIP3    H140655   6.019   2.532  13.861  0.6229  0.7014  1.4645
 6388TIP3    H240656   6.081   2.420  13.941 -0.1864 -1.2363 -0.5113
 6389TIP3   OH240657   5.170   2.981   5.093  0.1224 -0.3956 -0.2473
 6389TIP3    H140658   5.249   2.944   5.132  0.9212  1.3776 -0.0511
 6389TIP3    H240659   5.103   2.970   5.161  0.1266 -2.0384 -0.4713
 6390TIP3   OH240660   4.413   3.876  14.851  0.0897 -0.0432  0.0831
 6390TIP3    H140661   4.493   3.824  14.857 -0.2178 -0.5597 -0.2155
 6390TIP3    H240662   4.348   3.826  14.899  0.1538  0.8184  1.1100
 6391TIP3   OH240663   2.520   5.742  16.857  0.0874  0.5022 -0.1338
 6391TIP3    H140664   2.585   5.737  16.927  0.2509 -0.4900 -0.3383
 6391TIP3    H240665   2.549   5.678  16.793 -1.3980 -0.3967  0.0453
 6392TIP3   OH240666   5.257   3.802  12.644 -0.4692  0.1784 -0.7500
 6392TIP3    H140667   5.319   3.866  12.680  1.6847 -1.3411 -1.5265
 6392TIP3    H240668   5.171   3.836  12.668  0.6627  0.9277  3.0062
 6393TIP3   OH240669   0.911   2.956  15.931  0.4193  0.5214  0.0236
 6393TIP3    H140670   0.929   2.881  15.988  0.8911  0.1382 -0.6166
 6393TIP3    H240671   0.981   3.018  15.950 -0.8716  1.5535  1.7631
 6394TIP3   OH240672   2.310   5.865  11.443 -0.5746 -0.2219 -0.1370
 6394TIP3    H140673   2.372   5.909  11.501  0.0200 -0.5277 -0.5324
 6394TIP3    H240674   2.348   5.876  11.355 -2.0954  1.3610 -0.6534
 6395TIP3   OH240675   0.955   6.345  14.448  0.0553 -0.1568  0.8687
 6395TIP3    H140676   1.033   6.295  14.421  0.5911  0.8505  0.5180
 6395TIP3    H240677   0.968   6.432  14.411  0.1223  0.8834  3.1679
 6396TIP3   OH240678   2.941   4.421  16.636 -0.1561  0.3499 -0.2904
 6396TIP3    H140679   2.973   4.449  16.721  1.9279 -0.8513 -0.6271
 6396TIP3    H240680   3.015   4.378  16.594 -0.9081  1.4174 -2.9807
 6397TIP3   OH240681   0.415   6.369   1.821  0.1456  0.5509  0.7194
 6397TIP3    H140682   0.407   6.274   1.830 -0.2915  0.6290  1.1792
 6397TIP3    H240683   0.359   6.390   1.746  0.7266  0.3740  0.2317
 6398TIP3   OH240684   6.188   3.984   4.316  0.1925 -0.1614 -0.0657
 6398TIP3    H140685   6.173   3.980   4.221 -1.6505  2.8779 -0.0424
 6398TIP3    H240686   6.230   4.069   4.330 -2.8602  1.1718  2.0435
 6399TIP3   OH240687   4.381   2.633  13.969  0.1893 -0.0958 -0.4222
 6399TIP3    H140688   4.384   2.722  13.934 -0.4311  0.1804  0.2048
 6399TIP3    H240689   4.472   2.613  13.992 -0.0870  1.7339  2.7173
 6400TIP3   OH240690   5.354   1.644  14.836 -0.1289  0.2077 -0.0401
 6400TIP3    H140691   5.317   1.731  14.853 -1.2621  0.3142 -2.6290
 6400TIP3    H240692   5.382   1.647  14.744  1.2527 -1.6913  0.2474
 6401TIP3   OH240693   1.651   6.226  15.683  0.3201  0.3462 -0.1732
 6401TIP3    H140694   1.743   6.197  15.682  1.0475  2.4234 -0.2060
 6401TIP3    H240695   1.616   6.192  15.765  1.2245 -0.2217  0.0002
 6402TIP3   OH240696   0.156   6.467  13.613 -0.4505 -0.1091 -0.5760
 6402TIP3    H140697   0.121   6.542  13.660 -0.2137  0.4059 -1.1979
 6402TIP3    H240698   0.136   6.485  13.521 -0.3701 -0.7989 -0.7371
 6403TIP3   OH240699   1.374   6.221  15.070 -0.1472  0.1719 -0.4891
 6403TIP3    H140700   1.316   6.270  15.128  0.0309 -0.9956  0.7233
 6403TIP3    H240701   1.457   6.215  15.118  0.5945  0.7449 -1.6576
 6404TIP3   OH240702   1.316   3.778  13.178  0.5803 -0.1090  0.3909
 6404TIP3    H140703   1.314   3.828  13.096  2.0223  0.9732  0.9752
 6404TIP3    H240704   1.392   3.721  13.169  0.4645 -0.3320  0.8002
 6405TIP3   OH240705   5.837   5.990   4.812  0.2666  0.5430 -0.1586
 6405TIP3    H140706   5.928   5.991   4.784  0.0185 -1.9056 -1.2461
 6405TIP3    H240707   5.839   5.951   4.899  0.2046  0.0110 -0.3964
 6406TIP3   OH240708   4.682   4.959  17.088 -0.0854 -0.1742 -0.6208
 6406TIP3    H140709   4.618   4.989  17.153  1.6638  0.1870  1.0165
 6406TIP3    H240710   4.667   4.865  17.081  0.9829 -0.6043  1.8949
 6407TIP3   OH240711   3.704   4.625   2.393  0.7675  0.0557  0.0670
 6407TIP3    H140712   3.790   4.657   2.367  0.3823  0.5652 -0.6150
 6407TIP3    H240713   3.665   4.698   2.442  0.5665 -0.0164  0.0182
 6408TIP3   OH240714   2.210   6.150  10.922  0.0621  0.4100 -0.5520
 6408TIP3    H140715   2.275   6.205  10.966  1.3052  0.4471 -2.3008
 6408TIP3    H240716   2.259   6.108  10.851 -1.1071 -2.0859  0.0074
 6409TIP3   OH240717   5.840   6.011  15.385 -0.0733 -0.1893 -1.0647
 6409TIP3    H140718   5.875   6.097  15.365 -0.7449  0.3460  0.0099
 6409TIP3    H240719   5.896   5.950  15.336  0.2198  0.8610 -2.0597
 6410TIP3   OH240720   2.591   6.658  14.953 -0.4346 -0.0503 -0.2641
 6410TIP3    H140721   2.561   6.736  14.906 -0.6614 -0.8563 -1.5145
 6410TIP3    H240722   2.667   6.688  15.003 -0.1952  0.8640 -1.1368
 6411TIP3   OH240723   1.782   2.809   1.517  0.1599  0.6135 -0.5278
 6411TIP3    H140724   1.808   2.808   1.425 -0.7651 -0.3362 -0.7987
 6411TIP3    H240725   1.773   2.717   1.540  0.8861  0.8255  0.6739
 6412TIP3   OH240726   5.026   1.332  15.424  0.3404 -0.0066 -0.1059
 6412TIP3    H140727   5.052   1.421  15.448 -1.1029  0.8047 -1.4134
 6412TIP3    H240728   4.973   1.342  15.345  0.3178 -2.0606 -0.4155
 6413TIP3   OH240729   2.783   5.998   2.348  0.1663  0.4093 -1.1072
 6413TIP3    H140730   2.825   5.935   2.406 -0.5588  1.2205  0.3482
 6413TIP3    H240731   2.734   5.944   2.286 -0.2694 -0.4769 -0.0331
 6414TIP3   OH240732   4.181   5.079   1.419 -0.0441 -0.2701  0.3973
 6414TIP3    H140733   4.258   5.106   1.470  0.5803  0.7814 -1.0115
 6414TIP3    H240734   4.110   5.074   1.483  0.9042  0.0629  1.5117
 6415TIP3   OH240735   4.209   0.967   5.097 -0.1486 -0.0979 -0.3296
 6415TIP3    H140736   4.249   0.936   5.179 -0.7043  1.6080  0.6495
 6415TIP3    H240737   4.279   1.018   5.054 -0.3078  0.2853 -0.1434
 6416TIP3   OH240738   0.454   2.283  15.559  0.0894  0.4838 -0.0244
 6416TIP3    H140739   0.399   2.331  15.498  1.5072  1.6640 -0.4288
 6416TIP3    H240740   0.394   2.254  15.628 -1.0950  1.3092 -0.6790
 6417TIP3   OH240741   6.074   6.177  15.152  0.2938 -0.2018 -0.3681
 6417TIP3    H140742   6.102   6.095  15.113 -0.7402  0.1910 -2.0498
 6417TIP3    H240743   5.980   6.183  15.132 -0.0086  0.6306  1.1293
 6418TIP3   OH240744   5.923   6.221  10.493 -0.7671  0.2905 -0.1898
 6418TIP3    H140745   5.930   6.293  10.556 -1.7407 -0.0209  0.2922
 6418TIP3    H240746   5.937   6.142  10.546 -2.3248 -0.0170 -0.1994
 6419TIP3   OH240747   4.427   2.436  13.752 -1.0580 -0.0541 -0.2707
 6419TIP3    H140748   4.433   2.353  13.800 -3.7411 -0.2165 -0.0525
 6419TIP3    H240749   4.424   2.503  13.821 -0.4046  0.1152 -0.3989
 6420TIP3   OH240750   3.512   1.515   4.490  0.0251 -0.3136  0.2785
 6420TIP3    H140751   3.553   1.455   4.427 -0.6351  0.3910 -0.8801
 6420TIP3    H240752   3.583   1.574   4.517  0.0697  0.1280 -0.7533
 6421TIP3   OH240753   4.676   1.511  11.854  0.1823  0.3560  0.2703
 6421TIP3    H140754   4.675   1.599  11.892 -0.5558 -0.7125  2.9185
 6421TIP3    H240755   4.613   1.516  11.782  0.0162  1.9387  0.4813
 6422TIP3   OH240756   6.070   2.472  14.321 -0.0694 -0.2877  0.7619
 6422TIP3    H140757   6.010   2.496  14.251 -0.0794 -1.5635  0.3045
 6422TIP3    H240758   6.155   2.463  14.278  0.5852  1.8672  1.4685
 6423TIP3   OH240759   5.782   5.513  13.380  0.5068  0.2844  0.2353
 6423TIP3    H140760   5.757   5.598  13.343 -2.8653 -1.0573 -0.9772
 6423TIP3    H240761   5.818   5.464  13.306 -0.8414 -0.4477  0.0241
 6424TIP3   OH240762   1.682   3.873  16.918  0.1546 -0.3346  0.4980
 6424TIP3    H140763   1.708   3.936  16.852  1.4142 -0.3369  0.9593
 6424TIP3    H240764   1.706   3.914  17.001 -2.4609  0.1795  1.0947
 6425TIP3   OH240765   5.295   3.491  15.732  0.0151  0.0262 -0.4481
 6425TIP3    H140766   5.212   3.508  15.688 -0.4612 -1.2127 -0.0885
 6425TIP3    H240767   5.299   3.557  15.801 -2.0401 -1.5015  1.2858
 6426TIP3   OH240768   2.466   0.370  14.683  0.1528 -0.9608 -0.2824
 6426TIP3    H140769   2.382   0.390  14.724  0.8841 -0.9210  1.2563
 6426TIP3    H240770   2.458   0.279  14.655 -0.3799 -0.9652 -0.1227
 6427TIP3   OH240771   0.977   4.967   1.553  0.5906 -0.0546  0.3304
 6427TIP3    H140772   1.066   4.935   1.535  0.3024 -0.6408 -0.0950
 6427TIP3    H240773   0.947   4.916   1.627  0.4033 -0.2581  0.1171
 6428TIP3   OH240774   0.718   4.146   1.762  0.4312  0.0236 -0.4414
 6428TIP3    H140775   0.648   4.189   1.712  0.6719  0.0756 -0.7348
 6428TIP3    H240776   0.761   4.217   1.809  3.4645  0.8614 -4.0116
 6429TIP3   OH240777   3.485   2.202  12.326 -0.2077  0.1217 -0.0513
 6429TIP3    H140778   3.416   2.249  12.279 -0.4292 -0.0344  0.1181
 6429TIP3    H240779   3.566   2.239  12.292 -0.3704  0.1373 -0.4297
 6430TIP3   OH240780   4.882   2.869  15.986  0.1172  0.2396 -0.0404
 6430TIP3    H140781   4.969   2.830  15.993  1.7790  3.9361  3.3045
 6430TIP3    H240782   4.891   2.935  15.917 -0.9345 -0.9794 -1.4363
 6431TIP3   OH240783   2.929   1.399  16.707  0.3943 -0.3237  0.0163
 6431TIP3    H140784   2.976   1.376  16.787  0.7547  0.8550  0.1571
 6431TIP3    H240785   2.847   1.349  16.712  0.7603 -0.8706  0.7226
 6432TIP3   OH240786   3.199   2.590   2.022  0.0109  0.2899 -0.4735
 6432TIP3    H140787   3.294   2.600   2.011  0.1800 -1.2349 -0.7422
 6432TIP3    H240788   3.186   2.589   2.117  0.4269 -0.5673 -0.4135
 6433TIP3   OH240789   2.771   1.269   2.270  0.4851  0.2943 -0.3014
 6433TIP3    H140790   2.851   1.294   2.224  0.4187  2.8485  0.7728
 6433TIP3    H240791   2.714   1.232   2.203  2.8102 -2.4211 -0.9401
 6434TIP3   OH240792   1.095   5.020   3.951 -0.6278  0.2280  0.2206
 6434TIP3    H140793   1.131   5.104   3.922 -1.1517  0.3565 -0.0534
 6434TIP3    H240794   1.139   5.004   4.035  0.7749 -0.0726 -0.5414
 6435TIP3   OH240795   6.027   6.495  15.694  0.2420 -0.0742  0.4837
 6435TIP3    H140796   6.114   6.474  15.660  0.4152  0.9191  0.2806
 6435TIP3    H240797   6.019   6.443  15.773  0.6947 -0.7965  0.0610
 6436TIP3   OH240798   5.558   3.331  12.513  0.3580  0.2398  0.0574
 6436TIP3    H140799   5.627   3.377  12.560 -1.5261  2.1109  1.1743
 6436TIP3    H240800   5.575   3.350  12.421  2.7115 -1.4532  0.0678
 6437TIP3   OH240801   3.859   4.536   0.862  0.4719 -0.0284 -0.2435
 6437TIP3    H140802   3.948   4.501   0.861  1.9236  3.2462 -1.6204
 6437TIP3    H240803   3.804   4.463   0.835  2.8272 -1.9787 -0.0802
 6438TIP3   OH240804   2.859   0.477   5.551 -0.5767 -0.1944  0.0653
 6438TIP3    H140805   2.880   0.526   5.631 -0.1375 -0.4296  0.0997
 6438TIP3    H240806   2.765   0.490   5.539 -0.6309 -0.0745  0.5660
 6439TIP3   OH240807   1.507   2.331   6.647  0.2943  0.4977  0.5667
 6439TIP3    H140808   1.415   2.317   6.670 -0.3821  1.0752 -1.5274
 6439TIP3    H240809   1.512   2.424   6.625  0.1229 -0.3324 -3.9422
 6440TIP3   OH240810   0.388   4.885   4.741 -0.0628 -0.2581  0.0214
 6440TIP3    H140811   0.367   4.967   4.786  0.3309 -1.0281  1.7086
 6440TIP3    H240812   0.393   4.908   4.649  0.5580  1.7193  0.5137
 6441TIP3   OH240813   6.770   3.763   4.375  0.1174  0.1868  0.9145
 6441TIP3    H140814   6.806   3.680   4.406 -1.3983 -0.6525  0.5530
 6441TIP3    H240815   6.846   3.820   4.364  1.1330 -0.9384  1.7893
 6442TIP3   OH240816   2.456   6.258  10.649  0.0346 -0.1628 -0.1005
 6442TIP3    H140817   2.381   6.317  10.653 -0.0581 -0.2097 -0.9191
 6442TIP3    H240818   2.418   6.171  10.661 -0.0274 -0.1787 -0.4160
 6443TIP3   OH240819   4.722   5.635   4.629 -0.0353  0.4121 -0.2181
 6443TIP3    H140820   4.816   5.620   4.638  0.0346  0.7158 -0.4233
 6443TIP3    H240821   4.686   5.615   4.715  0.0068 -1.2245 -0.5482
 6444TIP3   OH240822   3.535   2.263  11.344  0.3290 -0.1345 -0.4827
 6444TIP3    H140823   3.605   2.269  11.279  1.1160  0.7941  0.4330
 6444TIP3    H240824   3.571   2.211  11.415  0.2852  0.7666  0.2180
 6445TIP3   OH240825   5.342   5.283  14.748  0.1357 -0.1053 -0.0443
 6445TIP3    H140826   5.284   5.237  14.808 -0.3435  3.1495  2.2725
 6445TIP3    H240827   5.299   5.277  14.663 -1.1945 -1.5789  0.6905
 6446TIP3   OH240828   1.486   3.294  16.311  0.6544 -0.2370  0.4121
 6446TIP3    H140829   1.439   3.375  16.293 -0.1895 -0.7962  0.0082
 6446TIP3    H240830   1.505   3.297  16.405 -1.6818 -0.7200  0.9646
 6447TIP3   OH240831   6.263   1.749   6.818 -0.6278 -0.2373  0.1693
 6447TIP3    H140832   6.321   1.802   6.873  0.1035 -1.8067  0.9835
 6447TIP3    H240833   6.295   1.764   6.729 -0.4053  0.6389  0.3861
 6448TIP3   OH240834   3.359   4.844  12.685 -0.2255  0.3926 -0.5353
 6448TIP3    H140835   3.431   4.781  12.677 -0.6755 -0.1359 -0.4444
 6448TIP3    H240836   3.391   4.922  12.640  1.1325  0.8179  1.0636
 6449TIP3   OH240837   1.906   1.080   1.225  0.1614 -0.9331  0.4524
 6449TIP3    H140838   1.902   1.131   1.145  0.5434 -0.4004  0.7741
 6449TIP3    H240839   1.842   1.010   1.211 -1.4807  0.4767  0.6016
 6450TIP3   OH240840   3.730   5.299   3.978 -0.1063 -0.3518 -0.1888
 6450TIP3    H140841   3.778   5.280   4.059  2.4641  3.9891 -0.4260
 6450TIP3    H240842   3.670   5.369   4.001 -0.0919  0.2329 -1.8301
 6451TIP3   OH240843   0.743   4.674   0.557  0.2066 -0.1144 -0.4894
 6451TIP3    H140844   0.731   4.765   0.531 -0.1089 -0.2574 -0.8430
 6451TIP3    H240845   0.744   4.625   0.475  0.4944 -0.4197 -0.3101
 6452TIP3   OH240846   4.555   3.858  12.559  0.6113  0.1857 -0.2807
 6452TIP3    H140847   4.572   3.815  12.475  0.9286  0.7321 -0.5018
 6452TIP3    H240848   4.460   3.874  12.558  0.3323 -1.3190  0.2085
 6453TIP3   OH240849   2.286   2.943  17.160  0.3799  0.2332 -0.2722
 6453TIP3    H140850   2.234   2.868  17.129  1.7926 -0.3887 -1.2252
 6453TIP3    H240851   2.376   2.921  17.137  1.0797  1.3471  1.2444
 6454TIP3   OH240852   4.477   4.023   1.726  0.0675  0.0362 -0.5701
 6454TIP3    H140853   4.494   3.963   1.653  1.5188 -1.1807  0.6906
 6454TIP3    H240854   4.549   4.086   1.722 -0.8776  1.1214 -1.2560
 6455TIP3   OH240855   4.540   4.335  11.103 -0.0553 -0.2370  0.1427
 6455TIP3    H140856   4.463   4.391  11.097 -0.5929 -0.7758  1.6781
 6455TIP3    H240857   4.598   4.367  11.034 -0.2513  2.3350  1.0783
 6456TIP3   OH240858   0.428   4.939  11.081 -0.1145  0.6415  0.3365
 6456TIP3    H140859   0.374   4.935  11.002  0.7036  3.6776 -0.5304
 6456TIP3    H240860   0.511   4.976  11.051  0.6688  0.6981  2.4207
 6457TIP3   OH240861   5.762   2.298  12.383 -0.5861 -0.1836 -0.0334
 6457TIP3    H140862   5.667   2.288  12.387 -0.3983 -1.7945  2.4316
 6457TIP3    H240863   5.796   2.212  12.409  1.5724  0.3262 -0.9495
 6458TIP3   OH240864   1.619   1.827  12.324 -0.0362  0.0584 -0.2939
 6458TIP3    H140865   1.576   1.793  12.402  0.9756  0.4308  0.4491
 6458TIP3    H240866   1.700   1.867  12.356  0.5652 -0.0706 -1.5658
 6459TIP3   OH240867   0.105   1.728   3.231 -0.7735  0.1124  0.4316
 6459TIP3    H140868   0.182   1.754   3.180 -1.1774 -0.1803 -0.3496
 6459TIP3    H240869   0.141   1.696   3.314  0.1099 -1.5959 -0.5476
 6460TIP3   OH240870   2.814   5.304  13.470 -0.0235 -0.1880  0.1833
 6460TIP3    H140871   2.772   5.322  13.386  0.9423 -0.4372 -0.3768
 6460TIP3    H240872   2.743   5.304  13.534 -0.4758  2.6729 -0.1989
 6461TIP3   OH240873   5.589   6.476  15.256  0.5250  0.1671 -0.5206
 6461TIP3    H140874   5.615   6.553  15.307 -2.1149  3.2961 -3.3560
 6461TIP3    H240875   5.667   6.452  15.207  1.6577  0.4008  1.0839
 6462TIP3   OH240876   0.996   1.313  14.139 -0.4463  0.0499  0.1123
 6462TIP3    H140877   0.996   1.226  14.098 -0.8615  0.2808 -0.3819
 6462TIP3    H240878   0.949   1.369  14.077  1.2547  1.0158 -0.3739
 6463TIP3   OH240879   0.272   1.399  16.471 -0.4328 -0.2098 -0.1011
 6463TIP3    H140880   0.280   1.370  16.562  3.3461  2.1948  0.5636
 6463TIP3    H240881   0.309   1.327  16.420  0.8441 -0.1340  0.6711
 6464TIP3   OH240882   1.209   1.025  12.218 -0.3205 -0.8075  0.6575
 6464TIP3    H140883   1.122   1.057  12.241 -0.1860 -0.0678  0.1902
 6464TIP3    H240884   1.236   0.971  12.292 -0.6888 -0.0817  1.3302
 6465TIP3   OH240885   6.391   6.062   3.697 -0.4077  0.1482 -0.1881
 6465TIP3    H140886   6.370   6.131   3.635 -2.6254 -0.7681 -0.5408
 6465TIP3    H240887   6.449   6.003   3.649  0.3324  1.0014 -0.3545
 6466TIP3   OH240888   3.824   1.165  16.836  0.5904 -0.1577  0.2970
 6466TIP3    H140889   3.888   1.160  16.907  0.8146  1.0857  0.2015
 6466TIP3    H240890   3.876   1.158  16.756  0.4513 -0.5280  0.2366
 6467TIP3   OH240891   0.020   0.505   5.841  0.3516  0.0845  0.0604
 6467TIP3    H140892  -0.059   0.538   5.885  0.4522  1.0806 -0.4749
 6467TIP3    H240893   0.076   0.475   5.912  0.3428  1.2946  0.6150
 6468TIP3   OH240894   2.722   2.476   0.602 -0.0395  0.2660 -0.0328
 6468TIP3    H140895   2.745   2.411   0.669  1.3737 -0.2595 -0.9816
 6468TIP3    H240896   2.761   2.442   0.522  0.6138  2.2321 -0.5902
 6469TIP3   OH240897   4.103   0.731  10.657 -0.5335  0.0874  0.7658
 6469TIP3    H140898   4.033   0.795  10.648  0.8167  1.3581 -1.8305
 6469TIP3    H240899   4.150   0.759  10.736 -1.9452  0.1886  1.6022
 6470TIP3   OH240900   3.916   3.848  12.820  0.7264  0.3145 -0.2689
 6470TIP3    H140901   3.880   3.918  12.766 -0.9524  0.9395  1.5597
 6470TIP3    H240902   3.842   3.817  12.873  1.8487 -1.5951  0.3061
 6471TIP3   OH240903   0.364   3.169  15.698 -0.2771  0.0613  0.6100
 6471TIP3    H140904   0.303   3.235  15.665 -0.6221 -0.5084  0.0969
 6471TIP3    H240905   0.310   3.112  15.752 -0.3740 -0.9070 -0.4788
 6472TIP3   OH240906   1.700   6.505   6.271  0.2739 -0.2655  0.0282
 6472TIP3    H140907   1.744   6.581   6.234 -1.0628  1.0316  0.9711
 6472TIP3    H240908   1.754   6.481   6.347  0.7167 -0.2747 -0.2882
 6473TIP3   OH240909   3.395   3.805  12.075  0.0510 -0.1392 -0.2202
 6473TIP3    H140910   3.375   3.743  12.006 -1.0388 -1.0814  0.8821
 6473TIP3    H240911   3.397   3.890  12.032 -0.9862 -0.6604 -1.3495
 6474TIP3   OH240912   6.321   4.563  14.743  0.6017 -0.1344  0.1772
 6474TIP3    H140913   6.250   4.603  14.793 -0.4701 -1.6118 -0.1016
 6474TIP3    H240914   6.400   4.582  14.793 -0.1660  0.3180  1.2540
 6475TIP3   OH240915   4.347   2.814  16.690  0.0985 -0.2307  0.4407
 6475TIP3    H140916   4.259   2.812  16.654  0.0491 -3.8063  0.4650
 6475TIP3    H240917   4.341   2.872  16.766 -2.2395 -0.3944  0.4457
 6476TIP3   OH240918   4.860   2.849   6.334  0.3413  0.5281  0.3704
 6476TIP3    H140919   4.829   2.764   6.367 -0.3107 -0.2585 -2.0620
 6476TIP3    H240920   4.780   2.900   6.322  0.5073  0.6103 -0.4116
 6477TIP3   OH240921   5.170   2.598  14.263  0.0648 -0.2087  0.2723
 6477TIP3    H140922   5.089   2.579  14.215 -1.8321  1.6959  2.5005
 6477TIP3    H240923   5.160   2.550  14.346  0.4759  1.2783  1.2058
 6478TIP3   OH240924   1.599   2.385  16.556  0.6959  0.0534  0.2650
 6478TIP3    H140925   1.562   2.359  16.640  2.5625 -0.1023  1.0711
 6478TIP3    H240926   1.550   2.464  16.532  0.1046  0.0601  1.4471
 6479TIP3   OH240927   3.202   5.438   2.975 -0.0476  0.2812  0.6411
 6479TIP3    H140928   3.241   5.438   3.062  0.1847  3.2383  0.6289
 6479TIP3    H240929   3.276   5.455   2.916 -0.4055 -0.4494 -0.0418
 6480TIP3   OH240930   5.962   6.004  10.655  0.9328  0.4099 -0.0495
 6480TIP3    H140931   5.920   5.981  10.738 -1.4024  1.1739 -0.9103
 6480TIP3    H240932   6.042   5.953  10.653  2.7175  2.6106  4.0137
 6481TIP3   OH240933   2.480   1.420   2.355  0.2624 -0.7066 -0.4506
 6481TIP3    H140934   2.422   1.354   2.317  1.3121 -1.1898 -1.2778
 6481TIP3    H240935   2.542   1.441   2.284 -0.5601  1.8331 -0.5077
 6482TIP3   OH240936   5.504   1.850   3.091  0.2386  0.3604  0.1461
 6482TIP3    H140937   5.435   1.913   3.112  0.0682  0.3145 -0.2731
 6482TIP3    H240938   5.473   1.768   3.128 -2.2175 -0.8275 -3.9230
 6483TIP3   OH240939   4.939   4.775  12.309  0.5700  0.2188  0.0624
 6483TIP3    H140940   4.908   4.814  12.227 -1.8743  0.3280  0.9533
 6483TIP3    H240941   4.980   4.693  12.282 -1.1538 -0.2856 -1.2372
 6484TIP3   OH240942   4.276   6.081  14.998  0.2066 -0.3224  0.3022
 6484TIP3    H140943   4.287   6.145  15.068 -1.2291  0.6793 -0.3336
 6484TIP3    H240944   4.365   6.050  14.979  0.5186 -1.8782  3.6266
 6485TIP3   OH240945   4.360   1.946   3.581 -0.2668  0.0286 -0.3851
 6485TIP3    H140946   4.271   1.981   3.578 -0.2607 -0.0020 -0.9629
 6485TIP3    H240947   4.382   1.928   3.490  0.0852 -0.5935 -0.1824
 6486TIP3   OH240948   0.671   4.251   3.489  0.0232 -0.0925  0.1777
 6486TIP3    H140949   0.694   4.194   3.415 -0.1212  0.7030 -0.4903
 6486TIP3    H240950   0.755   4.271   3.530  0.1004 -0.5713  0.2593
 6487TIP3   OH240951   0.270   3.802  11.772 -0.2357 -0.0988 -0.2248
 6487TIP3    H140952   0.299   3.720  11.812 -3.1536 -0.4638  1.4205
 6487TIP3    H240953   0.217   3.844  11.839 -1.2064  1.7625 -2.0441
 6488TIP3   OH240954   3.655   6.449   5.010 -0.1170  0.0001  0.6553
 6488TIP3    H140955   3.677   6.355   5.006  0.6254  0.1239  1.4553
 6488TIP3    H240956   3.690   6.477   5.094 -1.0843  0.8195  0.7870
 6489TIP3   OH240957   0.444   1.983   1.361 -0.1591 -0.2016 -0.3094
 6489TIP3    H140958   0.514   1.933   1.402  1.0157  1.1941 -0.5351
 6489TIP3    H240959   0.453   1.963   1.267  0.9072  1.1019 -0.5070
 6490TIP3   OH240960   3.135   3.743  12.510  0.4526  0.0796 -0.1889
 6490TIP3    H140961   3.093   3.675  12.457  2.1539 -0.5395 -0.7956
 6490TIP3    H240962   3.171   3.804  12.446 -0.0745  0.9536  0.3381
 6491TIP3   OH240963   1.979   0.062   4.511 -0.3568  0.1301  0.5047
 6491TIP3    H140964   1.907   0.121   4.486 -0.2477  0.5809  1.2052
 6491TIP3    H240965   1.962   0.043   4.604 -0.6623 -1.3520  0.1602
 6492TIP3   OH240966   4.444   0.124  16.380 -0.3790  0.2431  0.6777
 6492TIP3    H140967   4.503   0.067  16.430 -0.1868 -0.0796  0.0847
 6492TIP3    H240968   4.495   0.204  16.366 -0.4324  0.3356  0.9885
 6493TIP3   OH240969   4.804   0.864   3.485 -0.4418  0.2147  0.2969
 6493TIP3    H140970   4.766   0.776   3.487  0.3550 -0.1293  1.3537
 6493TIP3    H240971   4.812   0.889   3.577  2.5029 -0.0427  0.2193
 6494TIP3   OH240972   1.353   6.669   1.165  0.1720  1.1651  0.7602
 6494TIP3    H140973   1.316   6.747   1.207  2.8544  1.0046  3.8568
 6494TIP3    H240974   1.431   6.701   1.120 -0.3520  0.6580 -0.5339
 6495TIP3   OH240975   6.565   3.492   0.942 -0.1622 -0.0424  0.1788
 6495TIP3    H140976   6.499   3.538   0.995  1.0565  2.2023 -0.1731
 6495TIP3    H240977   6.646   3.502   0.991  0.7721  1.0888 -1.5003
 6496TIP3   OH240978   5.876   5.822  14.971 -0.5747 -0.3319  0.1203
 6496TIP3    H140979   5.780   5.823  14.964 -0.4530  1.0406 -2.3633
 6496TIP3    H240980   5.901   5.914  14.967  0.8228 -0.5036  2.8478
 6497TIP3   OH240981   2.698   0.217  15.120  0.1035  0.3302 -0.5119
 6497TIP3    H140982   2.679   0.126  15.097  0.0043  0.1520  0.2592
 6497TIP3    H240983   2.673   0.267  15.042  0.2121 -0.3015 -0.9636
 6498TIP3   OH240984   0.531   1.890   1.123 -0.3869  0.3426 -0.7610
 6498TIP3    H140985   0.547   1.800   1.151 -2.5602  0.4021  0.9594
 6498TIP3    H240986   0.617   1.924   1.101  1.0819 -0.9801  2.3186
 6499TIP3   OH240987   1.733   1.224  12.024  0.4494 -0.5908 -0.0506
 6499TIP3    H140988   1.648   1.209  12.066 -0.5064  4.6873  0.5988
 6499TIP3    H240989   1.789   1.258  12.093  0.8243  2.3515 -1.6345
 6500TIP3   OH240990   4.808   6.485   3.656 -0.5611  0.6770 -0.3089
 6500TIP3    H140991   4.717   6.458   3.666 -0.6414  0.4359 -1.5724
 6500TIP3    H240992   4.834   6.452   3.570  0.2795  1.9733 -0.5824
 6501TIP3   OH240993   6.788   1.099   3.780  0.1178 -0.0357 -0.2127
 6501TIP3    H140994   6.714   1.050   3.743 -0.2306  0.3150  0.0176
 6501TIP3    H240995   6.854   1.031   3.800  0.0346 -0.3032 -0.8149
 6502TIP3   OH240996   5.462   5.573  11.588  0.5954 -0.1055  0.6280
 6502TIP3    H140997   5.450   5.498  11.646 -0.7517  0.6615  1.3947
 6502TIP3    H240998   5.495   5.643  11.645  1.4463  0.0174  0.0051
 6503TIP3   OH240999   4.489   4.273  14.066 -0.6052  0.1360 -0.4382
 6503TIP3    H141000   4.447   4.263  13.980 -1.5052  0.8097 -0.1024
 6503TIP3    H241001   4.555   4.341  14.053 -1.8742  1.4605 -0.2466
 6504TIP3   OH241002   2.800   0.134  12.228 -0.7026  0.0324 -0.3334
 6504TIP3    H141003   2.843   0.211  12.265 -1.5492 -0.0647  0.9142
 6504TIP3    H241004   2.721   0.170  12.185 -0.7045 -0.0592 -0.4069
 6505TIP3   OH241005   5.616   0.465  16.016 -0.3220 -0.2048  0.4448
 6505TIP3    H141006   5.588   0.550  15.983 -0.2344 -0.6405 -0.8153
 6505TIP3    H241007   5.622   0.476  16.111  0.3615  1.3941  0.2387
 6506TIP3   OH241008   4.580   2.762   4.661  0.4911  0.4528 -0.0982
 6506TIP3    H141009   4.550   2.802   4.743  0.6034  0.1971  0.0659
 6506TIP3    H241010   4.675   2.773   4.662  0.9262 -2.5508  1.4238
 6507TIP3   OH241011   3.395   3.244   6.076  0.6481 -0.1867  0.8135
 6507TIP3    H141012   3.321   3.222   6.020 -0.0642 -0.6647  1.8993
 6507TIP3    H241013   3.455   3.170   6.067  0.3463 -0.4538  0.9991
 6508TIP3   OH241014   2.321   5.146   3.471  0.1300 -0.0058  0.1214
 6508TIP3    H141015   2.416   5.145   3.484  0.4007 -1.8478 -1.4972
 6508TIP3    H241016   2.285   5.136   3.559  1.4798 -0.7272  0.6351
 6509TIP3   OH241017   4.818   2.562  10.814  0.4235  0.2889 -0.1499
 6509TIP3    H141018   4.819   2.625  10.885 -1.6962 -0.7814  0.9335
 6509TIP3    H241019   4.728   2.562  10.782  0.2015 -2.4321  0.1922
 6510TIP3   OH241020   3.491   4.338   2.258 -0.0831 -0.3734  0.2756
 6510TIP3    H141021   3.446   4.345   2.342 -0.1966  0.7328  0.1355
 6510TIP3    H241022   3.524   4.426   2.240  2.8842 -1.3083  0.7386
 6511TIP3   OH241023   3.131   0.003   0.923  0.2726 -0.2675 -0.1469
 6511TIP3    H141024   3.099   0.060   0.853 -0.7068 -1.3808 -0.6345
 6511TIP3    H241025   3.095   0.041   1.003  0.7073  0.5285 -0.3105
 6512TIP3   OH241026   6.168   4.858  15.452  0.4435  0.5871  0.1590
 6512TIP3    H141027   6.219   4.823  15.379  0.1315  0.3699  0.0433
 6512TIP3    H241028   6.216   4.830  15.530  0.2664  0.0146  0.0643
 6513TIP3   OH241029   0.676   1.120  12.417  0.0711  0.1453 -0.0452
 6513TIP3    H141030   0.611   1.050  12.415 -0.7998  0.9280 -0.0288
 6513TIP3    H241031   0.649   1.180  12.347  0.3043  0.8862  0.4892
 6514TIP3   OH241032   5.767   0.457   1.080 -0.2189  0.1569 -0.2157
 6514TIP3    H141033   5.730   0.481   0.996 -0.7493  0.7862  0.1868
 6514TIP3    H241034   5.704   0.490   1.145 -0.5067 -1.4834  0.3969
 6515TIP3   OH241035   5.952   2.735   3.364  0.9437  0.0182 -0.1503
 6515TIP3    H141036   5.914   2.713   3.279  1.8427 -0.1742 -0.5239
 6515TIP3    H241037   5.922   2.666   3.423  1.1228 -0.4067 -0.5530
 6516TIP3   OH241038   5.974   5.861  13.469 -0.2874 -0.2869  0.2805
 6516TIP3    H141039   5.899   5.849  13.411 -1.2634  1.2575  1.1622
 6516TIP3    H241040   6.027   5.929  13.427 -1.0773  0.9513  1.2218
 6517TIP3   OH241041   0.924   3.191  13.903  0.6540 -0.4314 -0.1460
 6517TIP3    H141042   0.980   3.175  13.979 -0.4489  0.1231  0.8142
 6517TIP3    H241043   0.916   3.286  13.898  0.5053 -0.4711 -0.8114
 6518TIP3   OH241044   1.498   0.931   5.209 -0.3520 -0.5320 -0.0279
 6518TIP3    H141045   1.590   0.934   5.238 -0.0611  2.9189 -0.8779
 6518TIP3    H241046   1.448   0.926   5.291  0.5445 -1.1801  0.5059
 6519TIP3   OH241047   4.094   3.256  12.248  0.0892 -0.1701  0.4228
 6519TIP3    H141048   4.068   3.238  12.158 -1.2356  1.0701  0.5195
 6519TIP3    H241049   4.135   3.343  12.244  1.8556 -0.9620  0.7140
 6520TIP3   OH241050   2.345   5.916   2.227  0.0305  0.0937  0.0767
 6520TIP3    H141051   2.438   5.899   2.241  0.3104  0.3597 -1.3025
 6520TIP3    H241052   2.305   5.909   2.314  1.5888  1.5973  0.9755
 6521TIP3   OH241053   6.489   1.493   3.954  0.0618 -0.1346 -0.5216
 6521TIP3    H141054   6.521   1.510   3.866 -1.8849  0.6945 -1.1072
 6521TIP3    H241055   6.402   1.455   3.941 -1.1018  1.8268  1.0273
 6522TIP3   OH241056   5.531   1.300   4.947  0.3130 -0.0831 -0.3569
 6522TIP3    H141057   5.439   1.302   4.974 -0.1690 -0.1937 -1.8653
 6522TIP3    H241058   5.577   1.260   5.021 -1.1373 -1.7084 -0.2508
 6523TIP3   OH241059   1.531   6.355  16.533  0.4221  0.4345  0.1818
 6523TIP3    H141060   1.567   6.426  16.587  0.2593  1.6168 -1.2149
 6523TIP3    H241061   1.440   6.348  16.560  1.3197 -2.0553  3.1907
 6524TIP3   OH241062   5.901   0.374  16.034 -0.0329  0.7264 -0.4129
 6524TIP3    H141063   5.816   0.401  15.999 -0.8096  1.1176  1.6225
 6524TIP3    H241064   5.881   0.299  16.090  1.2896 -0.4690 -1.4555
 6525TIP3   OH241065   5.330   3.086   4.108 -0.4264  0.0193 -0.3675
 6525TIP3    H141066   5.341   3.080   4.014  0.7427 -1.4729 -0.1700
 6525TIP3    H241067   5.394   3.024   4.144 -2.0229 -0.7393  1.3266
 6526TIP3   OH241068   4.755   3.079   5.458 -0.2030 -0.6377  0.3296
 6526TIP3    H141069   4.707   3.008   5.415 -0.5057 -0.2016 -0.0572
 6526TIP3    H241070   4.823   3.103   5.395 -0.2009 -0.4780  0.3920
 6527TIP3   OH241071   0.712   4.057   5.796 -0.3756  0.2465 -0.4436
 6527TIP3    H141072   0.625   4.018   5.807 -0.7359  0.6769 -1.5455
 6527TIP3    H241073   0.698   4.127   5.731  0.7882  0.3535 -0.5975
 6528TIP3   OH241074   2.557   5.239  14.595 -0.4948  0.8889  0.6574
 6528TIP3    H141075   2.482   5.231  14.537 -0.5426  0.2072  0.8098
 6528TIP3    H241076   2.557   5.158  14.647  0.8369  0.4782  0.0627
 6529TIP3   OH241077   6.574   6.102   0.689  0.3667 -0.2023 -0.1139
 6529TIP3    H141078   6.548   6.192   0.670  0.8546 -0.2916 -1.3140
 6529TIP3    H241079   6.493   6.053   0.689  0.3565 -0.2906 -2.7032
 6530TIP3   OH241080   6.784   2.379  12.985 -0.7379 -0.0239 -0.3263
 6530TIP3    H141081   6.710   2.383  12.925 -1.4886 -1.2838  0.4662
 6530TIP3    H241082   6.818   2.290  12.976  0.7013  0.5287 -0.6685
 6531TIP3   OH241083   4.207   0.441  12.048  0.0136 -0.3095 -0.1236
 6531TIP3    H141084   4.150   0.447  11.971  2.9869  1.4351 -2.4363
 6531TIP3    H241085   4.293   0.467  12.015  1.2879  1.5393  4.0429
 6532TIP3   OH241086   4.430   6.477  15.095 -0.1918 -0.0082 -0.1464
 6532TIP3    H141087   4.393   6.542  15.153  0.1087 -3.1354  4.0257
 6532TIP3    H241088   4.523   6.500  15.088 -0.9523  3.0274 -3.6623
 6533TIP3   OH241089   4.879   6.657   0.634  0.7747 -0.3963 -0.1638
 6533TIP3    H141090   4.786   6.641   0.616  0.8027  0.0792 -0.7711
 6533TIP3    H241091   4.898   6.741   0.590  1.6401 -0.8004 -0.5898
 6534TIP3   OH241092   4.568   1.360   5.194  0.2707 -0.8974 -0.4237
 6534TIP3    H141093   4.630   1.399   5.133 -2.2208  1.5660 -1.5901
 6534TIP3    H241094   4.582   1.407   5.276 -0.1675 -0.2411 -0.7267
 6535TIP3   OH241095   4.570   2.291  14.836  0.1134  0.0021 -0.1403
 6535TIP3    H141096   4.652   2.333  14.864  1.1609 -0.7871 -1.8662
 6535TIP3    H241097   4.594   2.241  14.758 -1.7581 -1.2963  0.0477
 6536TIP3   OH241098   3.698   0.589   3.981 -0.3476  0.2370 -0.5509
 6536TIP3    H141099   3.709   0.527   3.909  0.0019 -1.8342  1.1597
 6536TIP3    H241100   3.604   0.596   3.992 -0.4551  1.6534 -2.0242
 6537TIP3   OH241101   2.595   1.005   3.243  0.6331  0.4167  0.0571
 6537TIP3    H141102   2.568   1.042   3.160  2.8523  2.6270  0.1896
 6537TIP3    H241103   2.541   1.049   3.308 -0.0513 -0.1886 -0.0913
 6538TIP3   OH241104   6.559   5.389  12.641 -0.5579 -0.7917  0.0543
 6538TIP3    H141105   6.578   5.295  12.636  0.2766 -0.6341  0.1096
 6538TIP3    H241106   6.623   5.430  12.583 -1.2899 -0.2968 -0.4142
 6539TIP3   OH241107   6.161   0.539  16.342  0.4631 -0.3591  0.2323
 6539TIP3    H141108   6.119   0.609  16.392  0.7836  0.1797 -0.2392
 6539TIP3    H241109   6.163   0.571  16.252  0.5094 -1.0270 -0.0105
 6540TIP3   OH241110   4.012   4.804  12.002  0.0378 -0.0046  0.2738
 6540TIP3    H141111   4.056   4.787  11.918 -0.8119 -0.5532 -0.0762
 6540TIP3    H241112   4.000   4.717  12.041 -1.3642  0.0522  0.0226
 6541TIP3   OH241113   6.330   1.552  12.008  0.1298  0.2042  0.5326
 6541TIP3    H141114   6.310   1.497  12.084 -0.4091  0.5954  0.6846
 6541TIP3    H241115   6.295   1.504  11.934 -1.9786  1.1195  0.8467
 6542TIP3   OH241116   6.052   2.868  14.410  0.3911  0.6718  0.3018
 6542TIP3    H141117   6.124   2.821  14.369 -0.9856 -1.8657  0.5541
 6542TIP3    H241118   6.040   2.946  14.356  1.9676  0.0784 -0.9686
 6543TIP3   OH241119   6.019   0.784   2.802 -0.2339 -0.8184  0.0962
 6543TIP3    H141120   6.004   0.869   2.845 -1.4213 -0.2739 -1.3178
 6543TIP3    H241121   6.073   0.735   2.864 -0.1283  0.7038  1.2646
 6544TIP3   OH241122   4.071   6.072  11.344  1.0665  0.3313 -0.2454
 6544TIP3    H141123   4.031   6.140  11.290  2.1838 -0.5009 -2.2378
 6544TIP3    H241124   4.165   6.091  11.339  1.2323 -0.0531  1.0702
 6545TIP3   OH241125   2.863   6.603  11.939 -0.0596  0.3130  0.6574
 6545TIP3    H141126   2.783   6.654  11.948  0.9986  1.8523  1.8524
 6545TIP3    H241127   2.846   6.522  11.987 -0.3258  1.3599  2.3802
 6546TIP3   OH241128   1.752   1.302  15.785  0.5005 -0.3356 -0.3917
 6546TIP3    H141129   1.839   1.320  15.750  0.3192  1.0715 -0.1739
 6546TIP3    H241130   1.768   1.263  15.871  0.9335  0.8718  0.0965
 6547TIP3   OH241131   0.471   1.165  15.404  0.0664 -0.4778  0.1017
 6547TIP3    H141132   0.559   1.154  15.441 -0.0320  1.2486  0.9670
 6547TIP3    H241133   0.470   1.109  15.327  2.5835  0.8157 -0.9819
 6548TIP3   OH241134   0.778   1.618   2.141  0.8168  0.5106  0.0428
 6548TIP3    H141135   0.864   1.579   2.126 -0.5022 -1.7803 -2.3493
 6548TIP3    H241136   0.716   1.551   2.111 -1.9202  1.2989  3.4054
 6549TIP3   OH241137   5.610   6.438  13.920 -0.8144  0.2451 -0.0404
 6549TIP3    H141138   5.703   6.459  13.910 -0.5323 -0.2560  1.3746
 6549TIP3    H241139   5.607   6.343  13.922 -1.2442  0.2658  0.7791
 6550TIP3   OH241140   6.640   3.514  14.763  0.1724 -0.2367  0.3504
 6550TIP3    H141141   6.575   3.566  14.716  1.2594 -0.5243 -1.5945
 6550TIP3    H241142   6.622   3.530  14.856 -1.5807  0.9906 -0.1565
 6551TIP3   OH241143   1.999   1.904   0.451 -0.2511 -0.2960 -0.2287
 6551TIP3    H141144   1.999   1.863   0.364  1.8452 -0.9949  0.0528
 6551TIP3    H241145   1.961   1.991   0.436  0.5357 -0.1923 -1.9687
 6552TIP3   OH241146   1.929   4.199  11.594 -0.0651  0.0159  0.2989
 6552TIP3    H141147   1.846   4.232  11.629 -0.9211 -0.8300 -0.8605
 6552TIP3    H241148   1.992   4.269  11.614 -1.1859  0.9883  0.5887
 6553TIP3   OH241149   4.832   2.130  13.112  0.8487  0.0229 -0.2098
 6553TIP3    H141150   4.869   2.209  13.073  0.0988  0.5792  0.1750
 6553TIP3    H241151   4.823   2.069  13.038  2.4212 -0.1080 -0.3248
 6554TIP3   OH241152   3.492   3.140   6.328  0.1790  0.2238 -0.4862
 6554TIP3    H141153   3.498   3.211   6.391 -1.7518 -0.1238  0.1678
 6554TIP3    H241154   3.506   3.061   6.380 -0.2189  0.0002 -0.7163
 6555TIP3   OH241155   2.574   3.953   0.627 -0.0570 -0.1037 -0.3266
 6555TIP3    H141156   2.529   3.897   0.564 -1.2735 -0.3374  0.6858
 6555TIP3    H241157   2.655   3.908   0.647 -1.1776 -1.7734  0.7552
 6556TIP3   OH241158   3.851   5.353  11.559  0.1620  0.6573 -0.3683
 6556TIP3    H141159   3.866   5.408  11.482  1.2043  0.7613 -0.1159
 6556TIP3    H241160   3.905   5.393  11.627 -0.0112  0.0164  0.1519
 6557TIP3   OH241161   3.912   5.614  12.950  0.2405 -0.4839  0.2419
 6557TIP3    H141162   3.912   5.578  13.038  0.6169 -1.9658 -0.3288
 6557TIP3    H241163   3.922   5.708  12.962 -0.7949 -0.5300  1.8115
 6558TIP3   OH241164   5.893   4.069  14.872  0.3679 -0.3069  0.1049
 6558TIP3    H141165   5.885   4.164  14.863  1.0651 -0.3156 -0.8099
 6558TIP3    H241166   5.816   4.033  14.829  0.5224 -0.1709 -0.2875
 6559TIP3   OH241167   1.733   5.548  11.502  0.1729  0.4636  0.5823
 6559TIP3    H141168   1.774   5.606  11.567  0.0509  0.0263  1.0544
 6559TIP3    H241169   1.728   5.601  11.422 -2.6525  2.2008  1.7586
 6560TIP3   OH241170   0.989   0.239   4.626  0.7212 -0.3310  0.3606
 6560TIP3    H141171   1.055   0.308   4.632 -1.0185  1.3932  0.8929
 6560TIP3    H241172   0.964   0.237   4.534 -1.8718  2.5427  0.8416
 6561TIP3   OH241173   5.216   4.621  17.278  0.2595 -0.1131  0.7247
 6561TIP3    H141174   5.174   4.699  17.242 -1.3278 -1.0506  0.4501
 6561TIP3    H241175   5.186   4.618  17.369  1.6855  0.4996  1.2376
 6562TIP3   OH241176   3.253   6.276   3.470 -0.2410 -0.1515 -0.3274
 6562TIP3    H141177   3.344   6.261   3.447 -0.7748 -2.7485 -1.1297
 6562TIP3    H241178   3.246   6.248   3.561 -0.1533  0.5552 -0.0965
 6563TIP3   OH241179   4.923   1.345  13.574 -0.8798  0.2984  1.0055
 6563TIP3    H141180   4.999   1.290  13.594 -0.2386  1.0266  0.6179
 6563TIP3    H241181   4.848   1.288  13.589 -0.2460 -2.1721 -3.2702
 6564TIP3   OH241182   4.842   3.000   4.950 -0.3627 -0.3275  0.0225
 6564TIP3    H141183   4.813   3.074   5.004 -1.4377 -0.5363 -0.2365
 6564TIP3    H241184   4.909   3.037   4.892  1.0128 -0.1685  1.6485
 6565TIP3   OH241185   1.130   4.120  14.262 -1.0540 -0.2570 -0.0778
 6565TIP3    H141186   1.089   4.177  14.328 -3.3754  1.0801 -2.4735
 6565TIP3    H241187   1.056   4.076  14.221  0.2114 -0.4427 -2.2869
 6566TIP3   OH241188   0.046   1.670  13.044  0.3781  0.3688 -0.3652
 6566TIP3    H141189   0.085   1.618  13.115  0.2474  0.7304 -0.0274
 6566TIP3    H241190  -0.026   1.717  13.085  0.0956  0.3301 -0.8130
 6567TIP3   OH241191   6.384   6.601  16.329  0.1948 -0.1174 -0.3663
 6567TIP3    H141192   6.327   6.529  16.307 -0.0696  0.5701 -2.0339
 6567TIP3    H241193   6.466   6.583  16.282  0.2750  0.4595 -0.4569
 6568TIP3   OH241194   6.107   5.056   4.142  0.0612  0.3293 -0.6737
 6568TIP3    H141195   6.053   5.135   4.151 -1.2344 -0.6069  0.1405
 6568TIP3    H241196   6.132   5.055   4.049  0.3856  1.8650 -0.6191
 6569TIP3   OH241197   1.624   0.765   3.204  0.5299 -0.1555 -0.1388
 6569TIP3    H141198   1.540   0.720   3.210  0.4495 -0.1145 -0.8019
 6569TIP3    H241199   1.645   0.790   3.294  0.5776 -1.5108  0.2557
 6570TIP3   OH241200   3.358   3.069  16.802  0.5130 -0.1415  0.3367
 6570TIP3    H141201   3.293   3.006  16.834  0.1361  0.8758  1.6671
 6570TIP3    H241202   3.396   3.106  16.882 -0.8521  2.8997 -0.2740
 6571TIP3   OH241203   2.008   2.409  16.757 -0.0242 -0.2202  0.6483
 6571TIP3    H141204   1.963   2.423  16.673  0.3656 -2.4991 -0.0186
 6571TIP3    H241205   2.012   2.496  16.797  1.1706  1.2680 -2.3749
 6572TIP3   OH241206   1.956   2.345  12.300 -0.0818  0.3467 -0.2627
 6572TIP3    H141207   1.898   2.278  12.263 -1.1708  0.8640  0.4786
 6572TIP3    H241208   1.921   2.428  12.269  0.0497  0.6860  0.4796
 6573TIP3   OH241209   0.103   3.776   1.457 -0.2961  0.4200  0.0127
 6573TIP3    H141210   0.081   3.865   1.427 -0.6824  0.8076  1.3824
 6573TIP3    H241211   0.112   3.726   1.376 -0.3909  1.6308 -0.7822
 6574TIP3   OH241212   2.305   4.627  16.979  0.1716  0.4186  0.0899
 6574TIP3    H141213   2.287   4.692  16.911 -3.7324 -0.5840 -0.1140
 6574TIP3    H241214   2.301   4.543  16.934  3.1736 -0.1679  0.7033
 6575TIP3   OH241215   5.063   6.543   1.459  0.3752  0.1175 -0.3917
 6575TIP3    H141216   5.035   6.546   1.368 -1.6737  0.5780  0.2106
 6575TIP3    H241217   4.986   6.515   1.508  0.9853  1.3021  1.3721
 6576TIP3   OH241218   5.814   2.622   1.149 -0.2754  0.4409 -0.3808
 6576TIP3    H141219   5.753   2.681   1.193 -1.5474 -0.3504 -1.0166
 6576TIP3    H241220   5.781   2.615   1.060 -0.8864 -2.1221 -0.0314
 6577TIP3   OH241221   0.142   4.752  16.275 -0.3251  0.6332  0.2920
 6577TIP3    H141222   0.095   4.830  16.247 -1.9052 -0.3601  0.0460
 6577TIP3    H241223   0.083   4.711  16.339  0.4536 -0.3775  0.3786
 6578TIP3   OH241224   2.086   5.341   0.666  0.1964  0.2464  0.0662
 6578TIP3    H141225   1.998   5.373   0.643  1.0036  1.8803 -0.8640
 6578TIP3    H241226   2.114   5.397   0.738 -0.3162 -1.6651  1.8674
 6579TIP3   OH241227   1.007   1.101  14.475  0.3062 -0.1678  0.4611
 6579TIP3    H141228   0.979   1.193  14.476 -0.8981 -0.5138  1.6684
 6579TIP3    H241229   1.085   1.100  14.532 -0.6870 -0.1445  1.8871
 6580TIP3   OH241230   5.609   4.441   5.856 -0.3029  0.2938 -0.0809
 6580TIP3    H141231   5.663   4.380   5.805 -0.9540  0.0383 -0.4688
 6580TIP3    H241232   5.672   4.491   5.908  0.3841  0.5971 -1.1726
 6581TIP3   OH241233   1.311   1.638  11.798 -0.1428  0.0602 -0.0936
 6581TIP3    H141234   1.268   1.651  11.882 -1.9920 -1.1253 -0.7989
 6581TIP3    H241235   1.240   1.624  11.736  1.2212 -0.8372 -1.5465
 6582TIP3   OH241236   0.443   1.266  13.865 -0.4250  0.0515  0.5270
 6582TIP3    H141237   0.520   1.219  13.899 -0.3266  0.1071  0.3819
 6582TIP3    H241238   0.370   1.206  13.882  0.0123 -1.3249 -1.9171
 6583TIP3   OH241239   3.329   2.240   3.483  0.0582  0.1667  0.3075
 6583TIP3    H141240   3.268   2.310   3.462  0.3890  0.2054 -0.5842
 6583TIP3    H241241   3.345   2.197   3.399  1.2145  0.1332  0.5299
 6584TIP3   OH241242   5.887   3.536   5.225 -0.6507  0.1682  0.1769
 6584TIP3    H141243   5.807   3.504   5.266 -1.6389  0.2578 -1.6239
 6584TIP3    H241244   5.956   3.516   5.289 -1.9717 -0.6949  1.3798
 6585TIP3   OH241245   1.726   4.411   6.694  0.1513  0.1912  0.5902
 6585TIP3    H141246   1.632   4.400   6.676  0.1291  0.5668  0.4771
 6585TIP3    H241247   1.758   4.464   6.621  0.2812  0.7831  1.0675
 6586TIP3   OH241248   0.492   5.313   0.266 -0.0786 -0.3479 -0.2943
 6586TIP3    H141249   0.563   5.375   0.253 -0.2847  0.3244  1.4434
 6586TIP3    H241250   0.414   5.368   0.278 -0.4128 -0.9689  0.4454
 6587TIP3   OH241251   4.475   4.443   5.920  0.1319 -0.4869  0.3778
 6587TIP3    H141252   4.439   4.478   6.002 -0.6968 -2.5475  0.9481
 6587TIP3    H241253   4.490   4.351   5.937  1.8684 -0.5554 -1.1922
 6588TIP3   OH241254   3.751   0.541  11.503 -0.5193 -0.4960 -0.2196
 6588TIP3    H141255   3.746   0.631  11.535  2.6398 -1.0181  2.2430
 6588TIP3    H241256   3.710   0.489  11.573  0.5981 -1.1820 -0.0487
 6589TIP3   OH241257   4.951   6.339  15.594  0.5629  0.2689 -0.2592
 6589TIP3    H141258   4.874   6.354  15.540 -0.0914 -1.9768 -0.0564
 6589TIP3    H241259   5.007   6.283  15.541 -0.2169 -2.2167  1.3761
 6590TIP3   OH241260   1.403   3.277  11.992 -0.4664 -0.4207 -0.4048
 6590TIP3    H141261   1.351   3.348  11.953 -0.4017 -0.5031 -0.6412
 6590TIP3    H241262   1.351   3.198  11.977  0.3505 -0.7049 -1.8441
 6591TIP3   OH241263   1.160   3.858   6.773 -0.0121 -0.3469  0.6459
 6591TIP3    H141264   1.126   3.833   6.859  1.7845 -1.8537  0.9867
 6591TIP3    H241265   1.253   3.836   6.777  0.1466 -0.2914 -1.6415
 6592TIP3   OH241266   5.961   1.168  15.849  0.4959 -0.3589 -0.8002
 6592TIP3    H141267   5.895   1.205  15.790  2.2549 -0.8853 -3.2384
 6592TIP3    H241268   6.042   1.212  15.825  0.8976  1.7575  3.4513
 6593TIP3   OH241269   1.186   6.622   1.428  0.0077 -0.4929 -0.5500
 6593TIP3    H141270   1.116   6.681   1.403  1.4207  1.2194 -0.6985
 6593TIP3    H241271   1.152   6.535   1.411 -1.9517  0.2982 -0.8833
 6594TIP3   OH241272   0.595   3.539   1.505  0.6389  0.5198 -0.2679
 6594TIP3    H141273   0.583   3.630   1.532 -2.0435 -0.5387  2.8211
 6594TIP3    H241274   0.665   3.507   1.561  0.2972  0.2576  0.0186
 6595TIP3   OH241275   5.279   1.961   2.908 -0.1697 -0.0785 -0.2779
 6595TIP3    H141276   5.259   1.966   3.001 -1.5625  0.4424 -0.5786
 6595TIP3    H241277   5.288   2.052   2.880 -1.1073 -0.1701 -0.9094
 6596TIP3   OH241278   5.220   0.911  16.227  0.3132  0.4867  0.1874
 6596TIP3    H141279   5.158   0.843  16.256 -0.7060  1.6474  0.8296
 6596TIP3    H241280   5.306   0.870  16.235 -0.1141 -0.1216  2.4276
 6597TIP3   OH241281   6.127   5.007  14.979 -0.2270 -0.6083  0.0121
 6597TIP3    H141282   6.171   5.047  15.054  0.2891  0.4498 -0.8317
 6597TIP3    H241283   6.047   5.058  14.968  0.1069 -0.2087 -0.6569
 6598TIP3   OH241284   1.431   0.902   5.495 -0.6013 -0.0482  0.0138
 6598TIP3    H141285   1.369   0.918   5.567 -0.6916 -0.3595  0.0058
 6598TIP3    H241286   1.453   0.809   5.503 -0.7444 -0.1215 -0.4683
 6599TIP3   OH241287   3.905   0.096  12.329 -0.0473 -0.1452 -0.5510
 6599TIP3    H141288   3.860   0.014  12.347 -2.3199  1.0626 -0.3869
 6599TIP3    H241289   3.869   0.126  12.246  1.0157  0.5187 -0.7979
 6600TIP3   OH241290   6.693   4.983  15.076 -0.2866 -0.2041  0.0695
 6600TIP3    H141291   6.759   5.019  15.134  0.0746  0.7690 -0.9186
 6600TIP3    H241292   6.741   4.961  14.995 -0.6431 -2.1515  0.3242
 6601TIP3   OH241293   4.275   1.285  12.411 -0.0876 -0.1886  0.6028
 6601TIP3    H141294   4.265   1.232  12.491 -1.7633 -0.1775  0.4415
 6601TIP3    H241295   4.220   1.362  12.426  0.6845  0.4984 -0.0110
 6602TIP3   OH241296   6.303   3.068   2.828 -0.0614  0.5059 -0.6238
 6602TIP3    H141297   6.221   3.089   2.783 -0.5094 -0.5593 -0.3401
 6602TIP3    H241298   6.344   3.001   2.774 -0.0261  0.0770 -0.0808
 6603TIP3   OH241299   5.720   1.066  13.098 -0.0008 -0.1541  0.6063
 6603TIP3    H141300   5.691   1.127  13.030  0.7929  1.3972  1.5999
 6603TIP3    H241301   5.811   1.089  13.113 -0.0716 -0.6831  1.9648
 6604TIP3   OH241302   4.688   5.423   3.504  0.1503 -0.1915  0.1485
 6604TIP3    H141303   4.616   5.430   3.441  0.2414 -0.4248  0.0165
 6604TIP3    H241304   4.647   5.387   3.583  0.4900 -2.4145 -0.6092
 6605TIP3   OH241305   1.982   0.555  13.489  0.0900  0.2103  0.2314
 6605TIP3    H141306   2.021   0.532  13.404  1.6729  0.5012  0.8545
 6605TIP3    H241307   1.932   0.635  13.471  0.6568  0.4365 -0.3663
 6606TIP3   OH241308   4.553   1.422  13.874 -0.2370  0.4723 -0.1337
 6606TIP3    H141309   4.612   1.477  13.927  1.8934 -0.9185 -0.9387
 6606TIP3    H241310   4.584   1.433  13.784  0.3989 -2.1259 -0.3108
 6607TIP3   OH241311   6.333   1.452  10.932  0.5144  0.4661  0.4469
 6607TIP3    H141312   6.336   1.484  10.842 -1.2018 -0.1847  0.1270
 6607TIP3    H241313   6.313   1.359  10.924  2.7665 -0.1581  1.4539
 6608TIP3   OH241314   6.047   1.940   2.030  0.0644 -0.6242 -0.0541
 6608TIP3    H141315   6.027   1.893   1.949  1.9363 -0.8476 -0.4311
 6608TIP3    H241316   6.048   2.032   2.004 -0.1555 -0.6329 -0.0970
 6609TIP3   OH241317   1.322   1.456   2.241 -0.1020  0.0299 -0.0866
 6609TIP3    H141318   1.247   1.493   2.286 -0.5853 -0.9917 -0.0242
 6609TIP3    H241319   1.302   1.468   2.148  0.1819  0.7454 -0.0647
 6610TIP3   OH241320   4.336   0.794   3.190  0.5578 -0.2591 -0.2264
 6610TIP3    H141321   4.338   0.802   3.285  0.9162  1.3934 -0.3495
 6610TIP3    H241322   4.298   0.877   3.160 -1.1543 -1.4244 -1.4611
 6611TIP3   OH241323   2.001   6.411   0.692  0.0760  0.0783  0.1516
 6611TIP3    H141324   1.943   6.366   0.754 -0.9288  0.3013 -0.6042
 6611TIP3    H241325   1.942   6.448   0.627  1.0396  0.8006 -0.3325
 6612TIP3   OH241326   5.700   5.606  16.017  0.0418 -0.2797  0.1242
 6612TIP3    H141327   5.732   5.613  16.107 -0.2109  1.1720  0.1160
 6612TIP3    H241328   5.775   5.631  15.963 -0.3902  0.8431  0.0199
 6613TIP3   OH241329   4.467   4.383  12.870  0.5118 -0.0124 -0.2247
 6613TIP3    H141330   4.464   4.339  12.785  0.4513 -0.9491  0.2547
 6613TIP3    H241331   4.557   4.371  12.900  0.8603  1.3070 -0.6492
 6614TIP3   OH241332   4.291   1.159   0.622  0.1649  0.5148  0.3778
 6614TIP3    H141333   4.278   1.244   0.664  0.4869  1.7007 -1.7708
 6614TIP3    H241334   4.377   1.131   0.653  1.1742  2.1802 -0.7190
 6615TIP3   OH241335   0.908   2.302  10.971  0.4317  0.0998 -0.3611
 6615TIP3    H141336   0.874   2.382  10.931 -1.7970  0.1721  1.4833
 6615TIP3    H241337   0.991   2.329  11.011  0.9413  0.8388 -1.8409
 6616TIP3   OH241338   0.496   6.383   1.126 -0.4619 -0.2278 -0.2765
 6616TIP3    H141339   0.408   6.419   1.137 -1.1675 -1.7341 -0.7852
 6616TIP3    H241340   0.507   6.323   1.200 -0.3144 -0.8874 -0.8212
 6617TIP3   OH241341   2.547   2.556   4.315 -0.4225 -0.1522  0.0621
 6617TIP3    H141342   2.499   2.577   4.396  0.3799 -0.0623  0.5307
 6617TIP3    H241343   2.576   2.641   4.282 -2.1614 -0.0259 -1.2487
 6618TIP3   OH241344   1.872   1.154  12.883 -0.1844  0.8124  0.5483
 6618TIP3    H141345   1.817   1.092  12.837  0.5765  0.1599  0.4972
 6618TIP3    H241346   1.811   1.205  12.937 -1.0683  1.5304 -1.0772
 6619TIP3   OH241347   5.404   6.673   0.279  0.0516  0.2547 -0.3117
 6619TIP3    H141348   5.315   6.699   0.303  0.1775  1.0409 -0.6375
 6619TIP3    H241349   5.394   6.631   0.193  0.0263  0.6800 -0.5245
 6620TIP3   OH241350   4.109   6.374   5.256  0.7709 -0.0615  0.1754
 6620TIP3    H141351   4.079   6.380   5.346 -0.1409  0.1275 -0.1312
 6620TIP3    H241352   4.197   6.411   5.257  0.3127  1.0384  0.7689
 6621TIP3   OH241353   6.265   6.340  13.013 -0.0317 -0.5305 -0.0958
 6621TIP3    H141354   6.259   6.394  13.092  1.5789 -2.2794  1.3169
 6621TIP3    H241355   6.174   6.321  12.990 -0.6190  1.9609 -0.1310
 6622TIP3   OH241356   1.285   2.043   1.496  0.9280 -0.5459  0.3812
 6622TIP3    H141357   1.258   1.951   1.499 -0.2096 -0.2187  2.6865
 6622TIP3    H241358   1.377   2.042   1.520  0.7260 -1.0604  1.1980
 6623TIP3   OH241359   1.455   5.140  12.808 -0.0983 -0.6389 -0.0535
 6623TIP3    H141360   1.448   5.222  12.760 -0.9040 -1.1617 -0.8425
 6623TIP3    H241361   1.427   5.163  12.897  0.5533  0.1334 -0.0329
 6624TIP3   OH241362   3.529   5.922  11.461  0.3282 -0.0869  0.5545
 6624TIP3    H141363   3.540   6.010  11.498  1.0583 -0.8282  2.2020
 6624TIP3    H241364   3.613   5.903  11.419  0.0206  0.1532 -0.1870
 6625TIP3   OH241365   1.155   4.810   3.758  0.1125 -0.1862 -0.2483
 6625TIP3    H141366   1.201   4.852   3.685  2.7763 -0.5745  1.0537
 6625TIP3    H241367   1.122   4.882   3.811  0.0171  0.1404 -0.7520
 6626TIP3   OH241368   0.016   1.634   5.469  0.3813 -0.5948  1.0911
 6626TIP3    H141369   0.110   1.620   5.465  0.0838 -2.6773 -1.3611
 6626TIP3    H241370  -0.016   1.567   5.530  0.3377 -1.4252  0.1957
 6627TIP3   OH241371   1.361   4.746   3.238 -0.7682  0.2798 -0.2046
 6627TIP3    H141372   1.445   4.722   3.199 -0.3837  0.4432  0.4996
 6627TIP3    H241373   1.353   4.840   3.221 -0.1671  0.5414  0.8777
 6628TIP3   OH241374   6.250   0.411   5.797 -0.3160  0.6270  0.1312
 6628TIP3    H141375   6.161   0.405   5.763 -0.5401 -3.0111  0.9818
 6628TIP3    H241376   6.248   0.364   5.880  1.4729  4.4119  2.6234
 6629TIP3   OH241377   4.894   6.018   4.014  1.1447  0.2265 -0.4822
 6629TIP3    H141378   4.977   5.970   4.021  1.4383  0.8969  1.0932
 6629TIP3    H241379   4.874   6.045   4.104 -0.9894 -0.2362 -0.7689
 6630TIP3   OH241380   3.698   5.478  15.503 -0.2928  0.0902 -0.1030
 6630TIP3    H141381   3.643   5.469  15.581  3.3241  1.8014  2.9909
 6630TIP3    H241382   3.677   5.566  15.469  0.0410  0.4782  0.6707
 6631TIP3   OH241383   4.340   4.357  13.152  0.0347 -0.5263  0.1527
 6631TIP3    H141384   4.348   4.308  13.070 -2.0137 -2.2185  0.8683
 6631TIP3    H241385   4.302   4.441  13.127  1.7291 -0.0338 -0.8781
 6632TIP3   OH241386   0.536   6.674  15.382 -0.1267  0.2596 -0.0240
 6632TIP3    H141387   0.496   6.720  15.455  0.9100  0.0004  0.7306
 6632TIP3    H241388   0.586   6.740  15.336 -0.2963  0.3000 -0.1516
 6633TIP3   OH241389   0.666   0.355  12.429  0.2228 -0.0137 -0.5316
 6633TIP3    H141390   0.625   0.440  12.444 -0.4840 -0.4097 -0.1599
 6633TIP3    H241391   0.615   0.316  12.357  0.0225 -0.4571 -0.1544
 6634TIP3   OH241392   1.097   1.207   3.777 -0.1876 -0.0813  0.5021
 6634TIP3    H141393   1.055   1.212   3.863 -0.2289 -1.4831  0.5873
 6634TIP3    H241394   1.142   1.291   3.767 -0.8146  0.3991  1.5575
 6635TIP3   OH241395   3.708   0.595  16.276  0.1543  0.9982 -0.4290
 6635TIP3    H141396   3.773   0.613  16.208  1.2011  2.4994  0.9065
 6635TIP3    H241397   3.634   0.651  16.253  0.7354  1.9512 -0.0476
 6636TIP3   OH241398   1.456   1.908   1.065 -0.0774 -0.1136  0.5733
 6636TIP3    H141399   1.442   1.981   1.005  1.0821  0.3817  0.8927
 6636TIP3    H241400   1.379   1.853   1.053 -1.5966  1.7631  1.2397
 6637TIP3   OH241401   4.228   0.518   4.181  0.2498 -0.2876 -0.2304
 6637TIP3    H141402   4.140   0.528   4.146  0.4310  1.7984 -0.2132
 6637TIP3    H241403   4.219   0.543   4.274  1.3222  3.2224 -0.9009
 6638TIP3   OH241404   6.196   1.927  13.449  0.1474  0.2870 -0.5232
 6638TIP3    H141405   6.190   1.831  13.453  0.4745  0.2941  0.4101
 6638TIP3    H241406   6.264   1.943  13.383 -1.2533 -0.0589 -2.1049
 6639TIP3   OH241407   6.186   3.350   4.243  0.2589  0.2989 -0.0578
 6639TIP3    H141408   6.158   3.356   4.152  2.2609 -0.9217 -0.8153
 6639TIP3    H241409   6.176   3.440   4.277 -0.7543  0.7158 -1.3782
 6640TIP3   OH241410   0.898   0.799  13.874 -0.5615  0.1196  0.2961
 6640TIP3    H141411   0.980   0.763  13.906 -0.4367  0.1199 -0.0141
 6640TIP3    H241412   0.888   0.882  13.920  0.6008  1.0671 -1.0762
 6641TIP3   OH241413   6.049   4.209  12.676 -0.2362 -0.8957 -0.7815
 6641TIP3    H141414   6.003   4.290  12.699  1.4163 -0.1395 -0.0172
 6641TIP3    H241415   6.018   4.145  12.740 -0.2077 -0.3937 -0.2593
 6642TIP3   OH241416   3.119   3.271   5.324 -0.2064 -0.2401 -0.2576
 6642TIP3    H141417   3.036   3.297   5.283  0.1088  0.9895 -0.1262
 6642TIP3    H241418   3.184   3.331   5.289  0.7227 -1.3832 -0.5894
 6643TIP3   OH241419   2.088   2.635  12.769  0.3227  0.6996  0.3561
 6643TIP3    H141420   1.996   2.610  12.757  0.1036  0.7368  1.7614
 6643TIP3    H241421   2.137   2.554  12.757  0.2932  0.9419 -1.8926
 6644TIP3   OH241422   0.035   6.701  13.707 -0.0511  0.3453  0.2338
 6644TIP3    H141423  -0.026   6.774  13.713  0.8046  1.1692 -0.6244
 6644TIP3    H241424   0.117   6.736  13.741  0.6684  0.1812 -1.2427
 6645TIP3   OH241425   5.730   3.441   4.403 -0.0520  0.1785 -0.2432
 6645TIP3    H141426   5.712   3.450   4.497 -0.5914  2.2299 -0.4793
 6645TIP3    H241427   5.711   3.350   4.383  2.8514 -1.1288  2.1762
 6646TIP3   OH241428   1.605   5.878  10.826  0.2233  0.2326  0.8275
 6646TIP3    H141429   1.538   5.850  10.763  2.6348 -0.2210 -1.7922
 6646TIP3    H241430   1.607   5.808  10.891  0.6896 -1.7600 -1.1982
 6647TIP3   OH241431   5.641   4.064   6.165  0.5770  0.5066 -0.4381
 6647TIP3    H141432   5.568   4.018   6.206 -0.2977  2.0802 -0.1525
 6647TIP3    H241433   5.714   4.003   6.170 -0.7402 -1.1597 -0.8466
 6648TIP3   OH241434   0.435   6.663   4.573 -0.6293  0.0838  0.3227
 6648TIP3    H141435   0.445   6.583   4.522  0.0529  0.5384 -0.2815
 6648TIP3    H241436   0.360   6.708   4.533 -1.3620 -0.4914  1.0104
 6649TIP3   OH241437   1.479   3.388   2.735 -0.1871  0.0640  0.5763
 6649TIP3    H141438   1.519   3.323   2.676 -2.1853 -0.1113 -0.6729
 6649TIP3    H241439   1.516   3.471   2.707  1.3216 -0.3388  1.2523
 6650TIP3   OH241440   0.280   0.783   5.084  0.1911 -0.4986  0.4553
 6650TIP3    H141441   0.313   0.729   5.012 -1.0096 -0.9275  0.1995
 6650TIP3    H241442   0.298   0.731   5.163  1.5559 -0.0037  0.4922
 6651TIP3   OH241443   4.436   4.685   3.008  0.7442  0.1150  0.7810
 6651TIP3    H141444   4.456   4.695   3.101 -1.0051  0.5742  1.1403
 6651TIP3    H241445   4.445   4.591   2.991  1.1685  0.0435  1.3812
 6652TIP3   OH241446   3.742   5.096   6.849  0.4919  0.0865 -0.5060
 6652TIP3    H141447   3.751   5.159   6.777  0.5731  1.3428  0.5518
 6652TIP3    H241448   3.833   5.077   6.875  0.4653 -0.4376 -0.7936
 6653TIP3   OH241449   4.802   2.276  13.978 -0.6660  0.4157  0.4991
 6653TIP3    H141450   4.890   2.244  14.000 -0.0651  1.5938 -0.1378
 6653TIP3    H241451   4.774   2.222  13.904  0.0821  0.9267 -0.1629
 6654TIP3   OH241452   3.958   2.578   2.196 -0.4181 -0.3621 -0.5241
 6654TIP3    H141453   3.881   2.525   2.175 -0.2520 -0.2912 -1.3356
 6654TIP3    H241454   3.952   2.653   2.137  0.7587 -0.8184 -1.2478
 6655TIP3   OH241455   3.799   6.527   5.242  0.2238  0.5370  0.1811
 6655TIP3    H141456   3.880   6.485   5.212  0.9002  1.4555  0.6680
 6655TIP3    H241457   3.807   6.531   5.337 -1.1865 -0.9054  0.3982
 6656TIP3   OH241458   0.117   6.397  17.299 -0.1348  0.6682 -0.0656
 6656TIP3    H141459   0.209   6.395  17.273  0.1751  1.0302  0.9376
 6656TIP3    H241460   0.086   6.308  17.285  0.9811 -0.0267  1.5942
 6657TIP3   OH241461   0.213   6.405   1.157  0.3425  0.1075  0.4635
 6657TIP3    H141462   0.183   6.490   1.189 -0.4294 -0.3620  1.0152
 6657TIP3    H241463   0.150   6.342   1.193  1.8062 -0.8804  1.4236
 6658TIP3   OH241464   4.320   4.042  15.591 -0.4781  0.8955 -0.6149
 6658TIP3    H141465   4.258   4.041  15.519 -0.9416  0.5179 -0.2175
 6658TIP3    H241466   4.294   3.969  15.647 -0.4449  1.4788  0.1876
 6659TIP3   OH241467   3.980   4.476   5.190  0.9584 -0.3865 -0.5333
 6659TIP3    H141468   4.015   4.469   5.278  0.4405  0.1426 -0.2757
 6659TIP3    H241469   3.935   4.561   5.189 -0.8297 -1.2810 -0.6485
 6660TIP3   OH241470   1.547   6.457   3.087  0.1625 -0.4681 -0.3703
 6660TIP3    H141471   1.474   6.473   3.028  0.8184  0.4997 -0.9602
 6660TIP3    H241472   1.548   6.362   3.100 -0.6297 -0.5797 -1.0843
 6661TIP3   OH241473   2.361   1.851   4.809  0.2728  0.0986 -0.0317
 6661TIP3    H141474   2.272   1.882   4.828  0.3664 -0.7640  2.0556
 6661TIP3    H241475   2.404   1.926   4.768 -1.4353  0.4899 -1.2624
 6662TIP3   OH241476   4.331   6.451  14.026  0.5845 -0.0481  0.0579
 6662TIP3    H141477   4.382   6.530  14.008  0.5928  0.2244  1.2376
 6662TIP3    H241478   4.372   6.413  14.104 -0.2892 -0.4543  0.3315
 6663TIP3   OH241479   3.324   6.706  12.078  0.1577  0.7568  0.2512
 6663TIP3    H141480   3.231   6.705  12.104  0.3411 -0.7018  0.9944
 6663TIP3    H241481   3.371   6.695  12.161  0.9478  0.4735 -0.2272
 6664TIP3   OH241482   5.110   1.673  15.864 -0.0799  0.6142  0.4573
 6664TIP3    H141483   5.188   1.666  15.808 -1.2023 -0.8235 -1.0271
 6664TIP3    H241484   5.051   1.730  15.815 -0.2653  1.0559  1.1971
 6665TIP3   OH241485   3.039   0.765   4.617 -0.0628 -0.0378 -0.1549
 6665TIP3    H141486   3.114   0.731   4.569 -1.0827 -2.7014 -0.0204
 6665TIP3    H241487   2.969   0.771   4.552  0.3040  3.0226 -0.4253
 6666TIP3   OH241488   6.166   2.506  15.665  0.3812 -0.0772 -0.0586
 6666TIP3    H141489   6.110   2.569  15.710  0.3738 -0.4703  0.4930
 6666TIP3    H241490   6.112   2.428  15.656  0.7244 -0.3439  0.1698
 6667TIP3   OH241491   1.051   0.145  15.640 -0.0240 -0.1001 -0.5039
 6667TIP3    H141492   0.974   0.174  15.591  0.3674 -1.1739 -1.8008
 6667TIP3    H241493   1.021   0.139  15.730 -1.5810 -0.8982 -1.0452
 6668TIP3   OH241494   4.835   5.732   1.591  0.2324 -0.3517 -0.1793
 6668TIP3    H141495   4.829   5.659   1.530  2.0588 -0.6733 -0.0263
 6668TIP3    H241496   4.850   5.809   1.536 -1.1558 -0.1593 -0.3061
 6669TIP3   OH241497   4.660   0.513   0.799 -0.3231  0.5756  0.2657
 6669TIP3    H141498   4.653   0.527   0.893  1.3148  0.6625  0.4105
 6669TIP3    H241499   4.588   0.565   0.762  0.3423  2.4021  1.3547
 6670TIP3   OH241500   4.585   3.479  15.550 -0.5204  0.0150  0.1346
 6670TIP3    H141501   4.636   3.449  15.474 -2.4454 -0.7338 -0.9124
 6670TIP3    H241502   4.620   3.565  15.569  0.2094  0.1070 -1.4330
 6671TIP3   OH241503   3.016   2.502   6.326  0.5531 -0.1282  0.1281
 6671TIP3    H141504   3.071   2.434   6.289  2.0528  1.1476 -0.1216
 6671TIP3    H241505   3.011   2.481   6.419 -1.5383 -2.2096 -0.3602
 6672TIP3   OH241506   0.057   6.074   1.073 -0.4025  0.6477 -0.3469
 6672TIP3    H141507  -0.031   6.109   1.089 -1.8014 -2.6209  0.0905
 6672TIP3    H241508   0.055   6.048   0.981 -0.0140  0.2826 -0.2541
 6673TIP3   OH241509   4.838   6.139  13.243  0.4713 -0.1982  0.2492
 6673TIP3    H141510   4.815   6.148  13.151  1.5972  1.2724  0.0879
 6673TIP3    H241511   4.753   6.138  13.288 -0.0641 -0.0901 -0.7164
 6674TIP3   OH241512   6.227   2.699   6.505 -0.4394 -0.1627  0.3862
 6674TIP3    H141513   6.150   2.743   6.467 -0.6364 -1.7879 -1.2129
 6674TIP3    H241514   6.243   2.746   6.587 -2.0093  1.4000 -0.1396
 6675TIP3   OH241515   4.998   0.572   1.029  0.2607 -0.3977 -0.0381
 6675TIP3    H141516   5.058   0.498   1.036  1.7230  0.8879  2.3961
 6675TIP3    H241517   5.021   0.614   0.946  0.1031 -1.9998 -0.9433
 6676TIP3   OH241518   3.283   0.683   4.447  0.5433 -0.4909  0.1888
 6676TIP3    H141519   3.323   0.725   4.371 -0.6059  0.1316 -0.1029
 6676TIP3    H241520   3.316   0.594   4.446  0.9033 -0.3546 -0.7785
 6677TIP3   OH241521   2.182   4.328  14.171  0.1849  0.1307  0.6455
 6677TIP3    H141522   2.119   4.311  14.101 -0.7049  0.6582  1.3006
 6677TIP3    H241523   2.255   4.269  14.152 -0.0822  0.1819 -0.6572
 6678TIP3   OH241524   0.454   2.860   1.609  0.2792 -0.3151 -0.2026
 6678TIP3    H141525   0.545   2.839   1.632 -0.1588 -0.9064  1.0867
 6678TIP3    H241526   0.404   2.836   1.686 -0.8194  1.3898 -0.3413
 6679TIP3   OH241527   2.026   6.496   1.664  0.0730  0.5099 -0.8080
 6679TIP3    H141528   1.942   6.516   1.623  0.8612 -0.4163 -3.0542
 6679TIP3    H241529   2.090   6.544   1.612  1.1705 -0.9543 -0.8774
 6680TIP3   OH241530   4.581   3.452  17.094  0.0939  0.0619 -0.2490
 6680TIP3    H141531   4.516   3.517  17.067 -0.4347 -0.1745  0.4295
 6680TIP3    H241532   4.613   3.483  17.178 -0.5230 -0.8023  0.3202
 6681TIP3   OH241533   2.015   4.775  13.386 -0.1271 -0.9146 -0.6308
 6681TIP3    H141534   1.975   4.748  13.469  1.2119 -0.9471  0.0301
 6681TIP3    H241535   1.949   4.830  13.344 -0.1377  0.6922  1.3341
 6682TIP3   OH241536   5.274   0.847   5.322  0.4029 -0.5257 -0.0828
 6682TIP3    H141537   5.318   0.915   5.373  0.3281 -0.7377  0.2620
 6682TIP3    H241538   5.327   0.839   5.243  0.2678  0.1190 -0.2432
 6683TIP3   OH241539   1.119   1.266   2.544  0.4535  0.5998 -0.2536
 6683TIP3    H141540   1.121   1.200   2.614 -0.7265  1.8222  0.9955
 6683TIP3    H241541   1.037   1.313   2.559  0.6957  1.5809 -1.8509
 6684TIP3   OH241542   1.652   1.740  16.092  0.2564  0.2552  0.4392
 6684TIP3    H141543   1.600   1.713  16.167  0.9867 -0.8596  0.5709
 6684TIP3    H241544   1.641   1.670  16.028 -0.6541  1.3559 -0.6778
 6685TIP3   OH241545   0.158   4.638   0.482 -0.1936  0.2587 -0.2267
 6685TIP3    H141546   0.097   4.711   0.473  1.9369  1.9323 -2.8786
 6685TIP3    H241547   0.162   4.599   0.395 -0.8706 -2.8084  0.9952
 6686TIP3   OH241548   3.869   4.679   3.555  0.1486 -0.5099  0.0988
 6686TIP3    H141549   3.933   4.708   3.489  1.2117  1.6846  1.9478
 6686TIP3    H241550   3.797   4.741   3.547 -0.7553 -1.5955 -0.4366
 6687TIP3   OH241551   6.551   6.209   4.835 -1.0134  0.9385  0.3418
 6687TIP3    H141552   6.579   6.246   4.919  0.0661 -1.8125  1.3022
 6687TIP3    H241553   6.562   6.114   4.846  0.9287  0.5426 -3.5104
 6688TIP3   OH241554   3.107   3.568  15.606 -0.1641 -0.4171 -0.6126
 6688TIP3    H141555   3.064   3.637  15.555  0.1906  1.6910  1.7367
 6688TIP3    H241556   3.059   3.567  15.689  0.2683 -2.6111 -0.3338
 6689TIP3   OH241557   1.543   2.249  15.200 -0.0624  0.3167  0.7631
 6689TIP3    H141558   1.477   2.292  15.254 -0.1282 -0.1490  1.0653
 6689TIP3    H241559   1.560   2.166  15.245 -1.0156 -0.6547 -0.5513
 6690TIP3   OH241560   6.081   2.673  14.954  0.1466  0.0974  0.2016
 6690TIP3    H141561   6.097   2.699  14.863 -0.7799 -0.6283 -0.1919
 6690TIP3    H241562   6.010   2.609  14.948 -0.8921  1.0699  1.5683
 6691TIP3   OH241563   1.268   3.544  15.885  0.4888 -0.1324  0.3938
 6691TIP3    H141564   1.194   3.487  15.906  0.2705  0.6395  1.8634
 6691TIP3    H241565   1.230   3.632  15.882  0.6917 -0.0571 -2.5097
 6692TIP3   OH241566   3.904   6.368   6.084 -0.1963 -0.2113 -0.2436
 6692TIP3    H141567   3.947   6.442   6.127 -1.9950  1.2219 -0.7688
 6692TIP3    H241568   3.975   6.309   6.061  1.0803  0.2165  2.2840
 6693TIP3   OH241569   1.615   6.333  11.215 -0.0529  0.4131  0.3688
 6693TIP3    H141570   1.565   6.407  11.252  0.6512  1.0265  0.1141
 6693TIP3    H241571   1.705   6.365  11.211  0.1234 -0.1717 -0.5082
 6694TIP3   OH241572   6.808   0.358   3.870  0.5278 -0.4141 -0.4407
 6694TIP3    H141573   6.749   0.333   3.941  0.1120 -0.0676 -0.6641
 6694TIP3    H241574   6.753   0.403   3.806  1.3513  1.8789  0.3361
 6695TIP3   OH241575   4.943   5.118  16.627 -0.7186 -0.0412  0.4499
 6695TIP3    H141576   4.880   5.099  16.696 -1.5383 -0.8100 -0.4858
 6695TIP3    H241577   4.973   5.032  16.597 -1.7177  0.1868 -1.3441
 6696TIP3   OH241578   1.878   3.516  14.477 -0.0179  0.2512 -0.0787
 6696TIP3    H141579   1.896   3.539  14.568 -1.8524  0.0630  0.3808
 6696TIP3    H241580   1.880   3.421  14.476  0.7475  0.2624 -0.4266
 6697TIP3   OH241581   6.383   0.087   5.071  0.1987 -0.7654  0.1864
 6697TIP3    H141582   6.352   0.083   4.981 -0.5784  1.5504  0.2895
 6697TIP3    H241583   6.374  -0.003   5.104  1.3002 -1.8595 -2.2463
 6698TIP3   OH241584   4.192   4.574   1.993  0.1374  0.1683 -0.0149
 6698TIP3    H141585   4.242   4.504   2.035  0.0474 -1.2964 -2.1699
 6698TIP3    H241586   4.242   4.653   2.013  2.2624 -0.9783 -0.4172
 6699TIP3   OH241587   0.823   5.196  15.588 -0.1209 -0.7495  0.8628
 6699TIP3    H141588   0.824   5.132  15.659 -2.1690 -0.5457  1.1424
 6699TIP3    H241589   0.732   5.197  15.558  0.0293  1.4073  0.3183
 6700TIP3   OH241590   2.933   0.420  14.160 -0.3804  0.4019 -0.3519
 6700TIP3    H141591   2.877   0.415  14.082  0.9876  0.4950 -1.3722
 6700TIP3    H241592   3.011   0.468  14.131  1.1414 -1.4474  0.4675
 6701TIP3   OH241593   6.544   1.183  15.363  0.3636  0.2116  0.0363
 6701TIP3    H141594   6.520   1.096  15.394  2.0175  0.0965  1.0799
 6701TIP3    H241595   6.617   1.168  15.304  0.8695  0.9094  0.4694
 6702TIP3   OH241596   3.796   4.290  14.577  0.1076 -0.5488  0.4579
 6702TIP3    H141597   3.846   4.249  14.648  2.3669  0.2146 -0.5850
 6702TIP3    H241598   3.862   4.338  14.526 -1.6171 -0.0706 -1.4579
 6703TIP3   OH241599   1.111   3.294   3.412  0.5393  0.7941  0.0427
 6703TIP3    H141600   1.050   3.365   3.429  0.5796  0.9926 -0.6166
 6703TIP3    H241601   1.131   3.300   3.318  1.0774  0.3450  0.1164
 6704TIP3   OH241602   5.847   5.470   3.834 -0.2597 -0.2803  0.0542
 6704TIP3    H141603   5.861   5.563   3.852  2.7685 -0.8390  1.1174
 6704TIP3    H241604   5.767   5.448   3.881 -1.9739  2.0550 -1.5281
 6705TIP3   OH241605   4.987   2.303  17.165  0.4752 -0.2092  0.5318
 6705TIP3    H141606   4.931   2.289  17.242  0.1969 -0.3421  0.3087
 6705TIP3    H241607   5.022   2.216  17.144 -1.6281 -0.7562 -1.1385
 6706TIP3   OH241608   2.104   6.252   1.095  0.2681 -0.3835  0.0387
 6706TIP3    H141609   2.111   6.330   1.150 -0.2570  0.0660 -0.5193
 6706TIP3    H241610   2.194   6.228   1.075  0.4282  0.2655 -0.0363
 6707TIP3   OH241611   4.344   4.748  14.581 -0.3250 -0.3815 -0.0394
 6707TIP3    H141612   4.270   4.803  14.555 -0.7072 -0.8882 -0.0651
 6707TIP3    H241613   4.337   4.671  14.524 -0.6107 -1.0659  0.8885
 6708TIP3   OH241614   3.359   2.628  11.696 -0.2024 -0.7184 -0.0578
 6708TIP3    H141615   3.286   2.666  11.646 -0.9214 -0.6208  1.0420
 6708TIP3    H241616   3.432   2.688  11.679 -0.3401 -0.8450 -1.2142
 6709TIP3   OH241617   1.674   3.994   0.307 -0.2864 -0.1428  0.0950
 6709TIP3    H141618   1.677   3.974   0.401  0.9396 -0.5934 -0.0232
 6709TIP3    H241619   1.596   4.048   0.296 -0.7460 -0.5428  1.2865
 6710TIP3   OH241620   5.546   0.272   5.308  0.7367 -0.1479 -0.2160
 6710TIP3    H141621   5.630   0.242   5.273 -0.6561 -1.3225 -2.8431
 6710TIP3    H241622   5.498   0.191   5.326  0.7257  0.4409  3.0864
 6711TIP3   OH241623   6.478   4.145  16.741 -0.0258  0.5905 -1.0395
 6711TIP3    H141624   6.479   4.192  16.658 -0.1383  1.3528 -0.6204
 6711TIP3    H241625   6.567   4.110  16.749  0.2009  1.1209 -1.1467
 6712TIP3   OH241626   1.292   4.840  11.877  0.1613 -0.0607 -0.4946
 6712TIP3    H141627   1.237   4.809  11.805 -0.1319  0.6865 -0.5971
 6712TIP3    H241628   1.236   4.831  11.954 -0.2902  1.1342 -0.6612
 6713TIP3   OH241629   1.296   6.789  13.278  0.5765  0.0991 -0.1094
 6713TIP3    H141630   1.386   6.759  13.267  0.4795 -0.2514  0.0417
 6713TIP3    H241631   1.244   6.729  13.224  0.4773  0.5789 -0.5572
 6714TIP3   OH241632   2.393   1.061  11.405 -0.2079 -0.2850  0.1701
 6714TIP3    H141633   2.321   1.102  11.356  0.3490  0.7107  0.1522
 6714TIP3    H241634   2.450   1.025  11.337 -1.5043 -2.6104  0.2100
 6715TIP3   OH241635   3.017   2.302   0.764 -0.4783 -0.4903  0.2221
 6715TIP3    H141636   2.977   2.215   0.756 -0.7520 -0.5227  1.5756
 6715TIP3    H241637   3.073   2.311   0.687 -1.2239 -1.4518 -0.4538
 6716TIP3   OH241638   1.664   6.144   2.809 -0.7199 -0.1983  0.3807
 6716TIP3    H141639   1.710   6.074   2.856 -1.5309 -0.7684  0.3478
 6716TIP3    H241640   1.663   6.114   2.718  0.1069  0.5051  0.1240
 6717TIP3   OH241641   3.655   5.840   6.310 -0.1269 -0.1055 -0.2468
 6717TIP3    H141642   3.670   5.815   6.219  1.4147  1.2288 -0.4054
 6717TIP3    H241643   3.674   5.934   6.313 -0.0386 -0.1438  1.4734
 6718TIP3   OH241644   5.808   5.716   2.620 -0.4102  0.0540 -0.0915
 6718TIP3    H141645   5.740   5.722   2.688 -0.0979  0.5866  0.1830
 6718TIP3    H241646   5.783   5.782   2.555 -0.1734  0.2381  0.0015
 6719TIP3   OH241647   6.227   4.300  17.200 -0.2715  0.6627 -0.0228
 6719TIP3    H141648   6.187   4.213  17.208 -0.9401  0.9810  0.1033
 6719TIP3    H241649   6.311   4.283  17.158 -1.3112  0.1770 -2.0530
 6720TIP3   OH241650   2.018   1.912   4.002 -0.2905 -0.4714  0.1981
 6720TIP3    H141651   1.981   1.982   3.948  1.8167  1.2021  0.7863
 6720TIP3    H241652   2.094   1.952   4.045  0.5108 -2.8985  1.2330
 6721TIP3   OH241653   6.261   3.180  17.134  0.5603 -0.3713 -0.0052
 6721TIP3    H141654   6.302   3.197  17.219 -0.8730 -1.4963  0.9641
 6721TIP3    H241655   6.216   3.262  17.113  3.5188  1.0794 -1.3364
 6722TIP3   OH241656   6.396   0.479  16.520 -0.0829  0.1103  0.1095
 6722TIP3    H141657   6.385   0.395  16.474 -0.8214 -0.2369  0.8877
 6722TIP3    H241658   6.342   0.470  16.599  0.4740  1.0204  0.6073
 6723TIP3   OH241659   6.480   4.755  15.503 -0.5575  0.4757  0.2717
 6723TIP3    H141660   6.442   4.746  15.416  1.3141 -0.2689 -0.5266
 6723TIP3    H241661   6.515   4.844  15.505 -0.6689  0.5193  0.2950
 6724TIP3   OH241662   4.275   4.892  16.450 -0.3194  0.1158 -0.5121
 6724TIP3    H141663   4.265   4.820  16.512 -0.0845  1.0149  0.6077
 6724TIP3    H241664   4.369   4.911  16.448 -0.5786  1.8855  1.0286
 6725TIP3   OH241665   6.462   0.210  12.125 -0.3614  0.3692 -0.4718
 6725TIP3    H141666   6.417   0.186  12.206  1.3700  0.0347  0.4273
 6725TIP3    H241667   6.499   0.297  12.143  0.2430  0.1867 -0.8110
 6726TIP3   OH241668   5.231   4.734  13.836 -0.0384 -0.0043 -0.3136
 6726TIP3    H141669   5.178   4.776  13.768  0.7226  0.1047 -0.8437
 6726TIP3    H241670   5.318   4.773  13.827  0.0252  0.1795  0.8687
 6727TIP3   OH241671   5.088   4.402   1.169 -0.1908 -0.5233  0.3297
 6727TIP3    H141672   5.141   4.446   1.102 -0.2941 -1.2946 -0.2787
 6727TIP3    H241673   5.109   4.310   1.159  0.2650 -0.5943  1.8059
 6728TIP3   OH241674   2.277   4.539   4.773  0.0969 -0.0249 -0.4067
 6728TIP3    H141675   2.322   4.622   4.790 -2.4542  1.8785 -2.2409
 6728TIP3    H241676   2.238   4.515   4.857  2.3833 -0.4594  0.6036
 6729TIP3   OH241677   6.407   2.983  13.328  0.1088  0.1142 -0.2102
 6729TIP3    H141678   6.446   3.043  13.265  0.8659  0.7475  0.8280
 6729TIP3    H241679   6.406   2.898  13.283 -0.2575  0.7337 -1.4083
 6730TIP3   OH241680   6.578   4.842  13.706  0.8804 -0.5840 -0.0198
 6730TIP3    H141681   6.577   4.751  13.679 -1.1024 -0.7644  0.4805
 6730TIP3    H241682   6.571   4.892  13.624  1.3585 -0.9020 -0.2529
 6731TIP3   OH241683   2.342   3.288   6.167  0.1482  0.5571 -0.2074
 6731TIP3    H141684   2.254   3.317   6.191 -0.8426  0.0132 -2.8253
 6731TIP3    H241685   2.363   3.219   6.231 -1.4571  0.4604  0.2568
 6732TIP3   OH241686   3.691   3.374   2.517 -0.3334  0.2929  0.1448
 6732TIP3    H141687   3.690   3.405   2.427 -2.0357 -0.7618 -0.2465
 6732TIP3    H241688   3.636   3.435   2.565 -0.7464 -0.0604  0.1254
 6733TIP3   OH241689   5.739   4.896   1.512  0.5629 -0.5952  0.7513
 6733TIP3    H141690   5.830   4.884   1.536  0.4196 -1.9699  0.6432
 6733TIP3    H241691   5.703   4.952   1.581  1.2326 -0.8977  1.3547
 6734TIP3   OH241692   1.456   1.465  15.695  0.2745  0.0985 -0.2520
 6734TIP3    H141693   1.409   1.502  15.770  0.7387 -0.7605  0.4833
 6734TIP3    H241694   1.513   1.399  15.734  1.2079  0.2886 -1.2710
 6735TIP3   OH241695   4.749   1.598   0.333 -0.4837  0.1339  0.4579
 6735TIP3    H141696   4.722   1.604   0.241 -0.2347 -0.7195  0.3120
 6735TIP3    H241697   4.814   1.527   0.333  1.3547  1.7525  0.8809
 6736TIP3   OH241698   3.461   3.856  10.436  0.3339  0.2736  0.7131
 6736TIP3    H141699   3.491   3.921  10.499 -0.1022 -1.5337  2.8770
 6736TIP3    H241700   3.520   3.782  10.447 -1.5744 -1.2456  1.2079
 6737TIP3   OH241701   4.728   1.439  12.580 -0.0007  0.0696 -0.1235
 6737TIP3    H141702   4.797   1.382  12.547  1.6341  2.1525 -0.4983
 6737TIP3    H241703   4.734   1.430  12.676  1.2779  0.6947 -0.1168
 6738TIP3   OH241704   1.405   5.094   5.728  0.2482 -0.0173  0.3317
 6738TIP3    H141705   1.436   5.183   5.714  1.7812 -0.6512 -0.5849
 6738TIP3    H241706   1.465   5.039   5.676 -1.4692 -1.4685 -0.2053
 6739TIP3   OH241707   4.235   1.998  15.092  0.1370  0.5791 -0.3766
 6739TIP3    H141708   4.259   1.928  15.031  1.4723  1.5272 -1.0238
 6739TIP3    H241709   4.238   1.958  15.178  1.6350 -0.0203 -0.6709
 6740TIP3   OH241710   2.100   0.262   1.545  0.2471  0.6349 -0.3891
 6740TIP3    H141711   2.184   0.299   1.569 -0.4934  2.4151 -0.4022
 6740TIP3    H241712   2.108   0.243   1.451  1.7429 -2.5108  0.2144
 6741TIP3   OH241713   4.528   3.028   2.011  0.7323  0.3331  0.2957
 6741TIP3    H141714   4.554   3.092   1.945 -3.6717 -0.3078 -2.3946
 6741TIP3    H241715   4.554   2.944   1.974  0.8046  0.1464  0.7675
 6742TIP3   OH241716   3.291   2.430  15.896  0.4335  0.1611  0.2726
 6742TIP3    H141717   3.317   2.522  15.899  2.1393 -0.2245 -1.0732
 6742TIP3    H241718   3.369   2.384  15.866  0.7204 -2.1903  3.9478
 6743TIP3   OH241719   0.121   0.819  10.325  0.3710  0.0620  0.8943
 6743TIP3    H141720   0.103   0.857  10.239 -0.2332  0.6580  1.2762
 6743TIP3    H241721   0.042   0.834  10.376  0.6859 -0.3681  1.5324
 6744TIP3   OH241722   0.748   1.091  12.924 -0.0135 -0.0944  0.2222
 6744TIP3    H141723   0.707   1.020  12.974  0.2632  0.0138  0.6077
 6744TIP3    H241724   0.837   1.060  12.906  0.1489  0.1987  0.4960
 6745TIP3   OH241725   1.995   1.433  11.864  0.3888 -0.5333  0.2386
 6745TIP3    H141726   2.034   1.351  11.893 -1.9078 -1.8900 -0.2758
 6745TIP3    H241727   1.918   1.407  11.814 -1.6487  1.9346  1.8344
 6746TIP3   OH241728   2.991   1.858   1.033  0.2038  0.0441 -0.2970
 6746TIP3    H141729   2.917   1.913   1.059 -1.8883 -2.5998 -0.2216
 6746TIP3    H241730   3.041   1.846   1.114 -0.4618  0.1770  0.1455
 6747TIP3   OH241731   5.608   6.153  17.139 -0.2127  0.1541 -0.4481
 6747TIP3    H141732   5.583   6.099  17.064  2.7299  1.3538 -2.4861
 6747TIP3    H241733   5.626   6.091  17.209 -0.1271 -1.2699 -1.6907
 6748TIP3   OH241734   0.880   1.159   3.575 -0.3754  0.2343  0.4706
 6748TIP3    H141735   0.930   1.204   3.642  0.5584  0.2527 -0.2214
 6748TIP3    H241736   0.943   1.140   3.506 -0.9197 -1.3424  0.3488
 6749TIP3   OH241737   2.743   1.872   3.388  0.1006 -0.1825  0.1983
 6749TIP3    H141738   2.790   1.789   3.397 -0.4488 -0.4959  0.2197
 6749TIP3    H241739   2.771   1.906   3.302  0.6588 -0.1718  0.3828
 6750TIP3   OH241740   1.154   0.676   1.892  0.5954 -0.5598 -0.2933
 6750TIP3    H141741   1.242   0.662   1.857 -0.3724 -1.8347 -2.4017
 6750TIP3    H241742   1.123   0.589   1.915 -0.6672 -0.3271 -1.0530
 6751TIP3   OH241743   1.440   3.401  16.817  0.1283  0.5008 -0.0705
 6751TIP3    H141744   1.384   3.382  16.892 -1.4922 -2.4908 -1.8339
 6751TIP3    H241745   1.491   3.477  16.843 -0.4731 -0.2611  3.9565
 6752TIP3   OH241746   6.163   2.902  10.680  0.3103  0.4777 -0.0220
 6752TIP3    H141747   6.162   2.993  10.651 -0.8758  0.5980  0.3228
 6752TIP3    H241748   6.082   2.893  10.731  0.5250 -0.7064  0.1275
 6753TIP3   OH241749   6.343   6.074   5.167  0.3179  0.0247 -0.2232
 6753TIP3    H141750   6.252   6.046   5.177  0.9070 -1.8989  0.1833
 6753TIP3    H241751   6.337   6.164   5.137 -1.7197  0.3473  0.9519
 6754TIP3   OH241752   6.485   6.511   2.642  0.0640  0.3493 -0.0573
 6754TIP3    H141753   6.435   6.449   2.589 -0.4095  2.3340 -2.0442
 6754TIP3    H241754   6.498   6.465   2.725 -3.0768 -1.1466 -0.2355
 6755TIP3   OH241755   5.022   1.337  12.814  0.9258  0.5254  0.0257
 6755TIP3    H141756   5.057   1.248  12.806 -0.6667 -0.0690 -0.8653
 6755TIP3    H241757   4.988   1.357  12.727 -0.0604  1.4235  0.5876
 6756TIP3   OH241758   2.658   0.642   3.914  0.4427  0.0083  0.1612
 6756TIP3    H141759   2.645   0.681   3.828  2.4275 -0.5051 -0.4298
 6756TIP3    H241760   2.668   0.548   3.897  1.7799  0.0026  0.7982
 6757TIP3   OH241761   6.499   0.098  11.781 -0.3002  0.2189  0.1542
 6757TIP3    H141762   6.592   0.094  11.802 -0.2381  1.2803  0.1585
 6757TIP3    H241763   6.497   0.113  11.686 -0.4335  1.1704  0.2992
 6758TIP3   OH241764   0.326   2.545  17.052  0.1005  0.4885 -0.0160
 6758TIP3    H141765   0.293   2.484  17.117  1.6249 -0.0278  0.3114
 6758TIP3    H241766   0.261   2.543  16.982  0.2210 -1.7012 -0.1244
 6759TIP3   OH241767   1.428   3.612  10.786 -0.0061  0.1468 -0.4216
 6759TIP3    H141768   1.504   3.670  10.788  0.6294 -0.5730 -1.7436
 6759TIP3    H241769   1.389   3.626  10.699 -1.0224  0.0549  0.0062
 6760TIP3   OH241770   5.870   3.009   2.493  0.5411  0.1553  0.8105
 6760TIP3    H141771   5.907   3.085   2.539  1.2533 -1.0502  2.3159
 6760TIP3    H241772   5.898   3.020   2.402  1.8650  0.9602  1.2803
 6761TIP3   OH241773   6.397   4.879   4.799  0.0366 -0.1269 -0.2854
 6761TIP3    H141774   6.355   4.797   4.776  0.1311 -0.3449  0.3129
 6761TIP3    H241775   6.344   4.946   4.755 -1.0496 -0.3817  0.6016
 6762TIP3   OH241776   1.523   1.569   3.456 -0.4213  0.1896 -0.4832
 6762TIP3    H141777   1.430   1.591   3.447 -0.6253 -0.4496 -0.0780
 6762TIP3    H241778   1.562   1.593   3.372 -0.4174  2.8674  0.1868
 6763TIP3   OH241779   5.947   2.598  15.254  0.2923 -0.2889 -0.0600
 6763TIP3    H141780   5.924   2.511  15.222  0.9316 -1.1349  1.7032
 6763TIP3    H241781   6.041   2.594  15.270  0.4746  0.9835 -0.6479
 6764TIP3   OH241782   3.205   4.826  14.032 -0.5652  0.4241 -0.0275
 6764TIP3    H141783   3.202   4.867  14.118  1.2216 -1.9126  1.2516
 6764TIP3    H241784   3.136   4.760  14.034  0.1635 -0.3492  0.0335
 6765TIP3   OH241785   0.094   0.616   3.941  0.5565 -0.1236  0.3840
 6765TIP3    H141786   0.063   0.531   3.910 -2.0041  0.6641  0.5623
 6765TIP3    H241787   0.014   0.664   3.963  1.9717  2.0053  1.1691
 6766TIP3   OH241788   2.989   3.680  15.852  0.7074 -0.1256 -0.1884
 6766TIP3    H141789   2.928   3.728  15.796 -0.7497 -0.4031  1.0812
 6766TIP3    H241790   2.935   3.650  15.925  2.1132 -1.5041  0.3417
 6767TIP3   OH241791   2.917   0.800  14.223 -0.1107 -0.5124 -0.2364
 6767TIP3    H141792   2.877   0.814  14.137 -1.3443  1.0018  0.5289
 6767TIP3    H241793   2.844   0.807  14.285  1.0585  0.6848  1.0893
 6768TIP3   OH241794   5.526   3.963   2.532 -0.1799  0.5208 -0.4807
 6768TIP3    H141795   5.507   3.985   2.441 -0.3937 -0.4766 -0.6894
 6768TIP3    H241796   5.456   3.902   2.556  0.3340  0.1540  0.0955
 6769TIP3   OH241797   6.419   3.202   4.125 -0.3991 -0.4403 -0.0474
 6769TIP3    H141798   6.430   3.186   4.218 -1.9104 -0.6210  0.1346
 6769TIP3    H241799   6.436   3.296   4.114  1.3569 -0.7085  0.1093
 6770TIP3   OH241800   2.692   3.949   5.827  0.5895 -0.2894  0.3845
 6770TIP3    H141801   2.647   3.986   5.902  1.0304 -0.6317  0.8272
 6770TIP3    H241802   2.653   3.862   5.816 -0.7674  0.4319 -0.9334
 6771TIP3   OH241803   5.859   3.625  13.691  0.0866  0.0814 -0.0567
 6771TIP3    H141804   5.832   3.681  13.619 -1.4479 -1.2027 -0.5145
 6771TIP3    H241805   5.813   3.543  13.677  0.9116 -0.7093  1.5744
 6772TIP3   OH241806   4.761   5.089   2.693 -0.2863  0.0223  0.5159
 6772TIP3    H141807   4.672   5.120   2.681 -1.2942 -2.7186  0.0850
 6772TIP3    H241808   4.788   5.056   2.608  1.5829  1.6654  0.3892
 6773TIP3   OH241809   0.869   5.566  16.332  0.2281 -0.3363 -0.0625
 6773TIP3    H141810   0.839   5.476  16.324 -1.6553  0.0884  1.5512
 6773TIP3    H241811   0.811   5.605  16.397  2.2152  1.5356  0.6913
 6774TIP3   OH241812   6.348   2.460   6.031  0.1374 -0.7111  0.1556
 6774TIP3    H141813   6.257   2.491   6.037  0.3476 -0.3243  3.5712
 6774TIP3    H241814   6.345   2.373   6.072  0.9878 -1.6598 -1.7152
 6775TIP3   OH241815   3.027   3.743  13.231  0.3192  0.2932  0.1967
 6775TIP3    H141816   3.025   3.753  13.136 -0.8787 -2.1668 -0.1198
 6775TIP3    H241817   3.089   3.810  13.261  0.8799  1.0050 -2.3108
 6776TIP3   OH241818   1.634   5.416  12.883 -0.2551  0.0554  0.0616
 6776TIP3    H141819   1.545   5.391  12.907 -0.3171  0.2917  0.0840
 6776TIP3    H241820   1.647   5.501  12.925  0.0594 -0.0818  0.2367
 6777TIP3   OH241821   0.067   4.258   3.766  0.1862 -0.0172  0.8701
 6777TIP3    H141822   0.050   4.317   3.839  3.8815  0.6246  1.4269
 6777TIP3    H241823   0.116   4.185   3.804 -0.2713 -1.1238 -0.5532
 6778TIP3   OH241824   3.029   2.330   4.204  0.1892  0.0293  0.1567
 6778TIP3    H141825   3.069   2.254   4.247  2.7536 -0.3670 -2.5999
 6778TIP3    H241826   2.954   2.295   4.156 -0.0960 -0.2790  0.8156
 6779TIP3   OH241827   0.265   4.517  13.468  0.0002 -0.0189  0.1814
 6779TIP3    H141828   0.346   4.514  13.417 -0.0714 -3.5396  0.0259
 6779TIP3    H241829   0.279   4.455  13.539 -2.6035 -0.9653 -0.0101
 6780TIP3   OH241830   4.377   5.770  12.305  0.2589  0.4458  0.2684
 6780TIP3    H141831   4.358   5.836  12.372  1.5954  0.5958  0.5252
 6780TIP3    H241832   4.368   5.818  12.222 -1.0876  0.3387  0.3359
 6781TIP3   OH241833   6.124   2.665   0.165 -0.3372 -0.1224 -0.1018
 6781TIP3    H141834   6.036   2.627   0.167 -0.6829  0.5912 -1.2296
 6781TIP3    H241835   6.110   2.759   0.178  0.4873 -0.2531  2.3876
 6782TIP3   OH241836   0.642   3.986  17.278 -0.9679 -1.2554  0.2123
 6782TIP3    H141837   0.584   3.965  17.352 -0.4213 -0.8911  0.7584
 6782TIP3    H241838   0.697   3.909  17.268  1.3986 -0.0355  2.5602
 6783TIP3   OH241839   0.706   3.407  15.754 -0.0258 -0.1149 -0.3540
 6783TIP3    H141840   0.697   3.498  15.782 -0.6367 -0.4584  0.6262
 6783TIP3    H241841   0.790   3.404  15.707 -0.3682  1.1087 -1.0943
 6784TIP3   OH241842   4.852   6.682   5.446 -0.4609  0.1757  0.0534
 6784TIP3    H141843   4.874   6.710   5.535  0.1004  0.0222 -0.0292
 6784TIP3    H241844   4.879   6.755   5.390  1.2712 -0.5768 -0.1908
 6785TIP3   OH241845   2.740   2.553  16.921  1.0054 -0.1055 -0.3067
 6785TIP3    H141846   2.784   2.491  16.862 -0.2673  0.7095 -2.2228
 6785TIP3    H241847   2.745   2.637  16.875 -1.3930  0.2551 -0.0322
 6786TIP3   OH241848   4.239   0.779   1.205 -0.2937 -0.0851 -0.2010
 6786TIP3    H141849   4.233   0.702   1.149  1.1434  0.3272 -0.9711
 6786TIP3    H241850   4.277   0.847   1.149  0.5832  0.5248  1.0738
 6787TIP3   OH241851   2.292   0.572  15.276 -0.0535 -0.3350  0.1048
 6787TIP3    H141852   2.228   0.541  15.341  0.7183 -2.2993 -0.0085
 6787TIP3    H241853   2.374   0.530  15.302  0.8349  0.8735 -0.6874
 6788TIP3   OH241854   2.261   5.593  12.021  0.5195 -0.4855 -0.3348
 6788TIP3    H141855   2.180   5.642  12.031  1.4921  0.9342  0.9567
 6788TIP3    H241856   2.257   5.558  11.932 -0.8209  0.7982 -0.8099
 6789TIP3   OH241857   0.858   5.715  12.318  0.3866  1.1252 -0.2462
 6789TIP3    H141858   0.821   5.756  12.396  0.2401 -1.2564  1.0127
 6789TIP3    H241859   0.783   5.701  12.260 -0.1234 -0.3401  0.7328
 6790TIP3   OH241860   0.040   5.852  11.898  0.5916  0.6180 -0.0472
 6790TIP3    H141861  -0.055   5.863  11.900  0.6714  1.3077  0.2638
 6790TIP3    H241862   0.057   5.802  11.818  0.0758  1.6561 -0.8268
 6791TIP3   OH241863   0.113   0.245   5.739  0.0324 -0.0741 -0.8164
 6791TIP3    H141864   0.046   0.307   5.766 -0.8615 -0.8447 -1.1958
 6791TIP3    H241865   0.195   0.282   5.770 -0.4320  1.4920 -1.3735
 6792TIP3   OH241866   3.837   6.558  15.008  0.5527 -0.1295 -0.3695
 6792TIP3    H141867   3.875   6.645  15.001 -0.1300  0.1610 -0.6090
 6792TIP3    H241868   3.911   6.498  14.995  1.7785  0.3056  3.4950
 6793TIP3   OH241869   5.756   5.324  16.837 -0.0906  0.4071 -0.3287
 6793TIP3    H141870   5.784   5.260  16.903  1.1477  0.6228 -0.6239
 6793TIP3    H241871   5.668   5.295  16.813  0.7037 -1.6932 -1.0125
 6794TIP3   OH241872   0.231   2.770   4.641 -0.0188  0.0870 -0.7981
 6794TIP3    H141873   0.281   2.802   4.716 -1.3200 -0.1146  0.1881
 6794TIP3    H241874   0.262   2.823   4.567  1.5789 -0.0012 -0.2197
 6795TIP3   OH241875   6.042   5.303   5.619  0.4152  0.4964  0.4624
 6795TIP3    H141876   6.068   5.390   5.650  5.6634 -0.3877 -0.5071
 6795TIP3    H241877   6.059   5.245   5.693 -4.0553  0.0870  1.4857
 6796TIP3   OH241878   6.257   6.593   3.503 -0.3174  0.1169 -0.0393
 6796TIP3    H141879   6.292   6.515   3.458  0.1382 -0.3142  1.0273
 6796TIP3    H241880   6.166   6.570   3.522 -0.9350  0.8383 -1.9093
 6797TIP3   OH241881   0.279   1.446   5.465 -0.5099  0.1968 -0.3428
 6797TIP3    H141882   0.238   1.372   5.511  1.0829 -0.3051  0.3619
 6797TIP3    H241883   0.314   1.500   5.535  0.8176  0.1132 -0.9145
 6798TIP3   OH241884   2.417   1.846  14.985 -0.1464 -0.3575 -1.1822
 6798TIP3    H141885   2.380   1.934  14.993 -1.4181 -0.8982 -0.9546
 6798TIP3    H241886   2.349   1.794  14.942 -0.0957 -1.6236  0.1601
 6799TIP3   OH241887   3.758   5.383   0.709  0.7967  0.2781 -0.1600
 6799TIP3    H141888   3.844   5.374   0.669  1.4083  0.3067  1.0921
 6799TIP3    H241889   3.711   5.304   0.683  0.7579  0.8386 -1.8673
 6800TIP3   OH241890   2.327   4.805  14.780 -0.3545 -0.1194 -0.1955
 6800TIP3    H141891   2.417   4.812  14.748 -0.3301 -2.2532 -0.7445
 6800TIP3    H241892   2.328   4.728  14.836 -1.7770  0.0350  0.0612
 6801TIP3   OH241893   5.019   5.516  16.070  0.8797 -0.4456  0.1638
 6801TIP3    H141894   4.978   5.454  16.131  1.0208 -0.8474 -0.1443
 6801TIP3    H241895   5.024   5.469  15.988  0.7800  0.0631 -0.1389
 6802TIP3   OH241896   2.262   5.401   2.369 -0.2719 -0.1792 -0.5697
 6802TIP3    H141897   2.351   5.431   2.350  0.0926 -0.7061  0.2269
 6802TIP3    H241898   2.207   5.444   2.304  0.7465 -0.9775 -2.0146
 6803TIP3   OH241899   2.149   0.554  16.239 -0.0396  0.3753  0.3961
 6803TIP3    H141900   2.115   0.477  16.285 -0.1468  0.3769  0.3178
 6803TIP3    H241901   2.244   0.545  16.246 -0.0533  0.9411  1.5787
 6804TIP3   OH241902   0.678   3.961  10.897 -0.6374 -0.2169  0.3223
 6804TIP3    H141903   0.671   3.870  10.928 -0.9783 -0.3474 -0.1237
 6804TIP3    H241904   0.766   3.967  10.860 -1.0340 -0.7263 -0.7458
 6805TIP3   OH241905   2.711   4.311  13.620 -0.3945 -0.2437 -0.3619
 6805TIP3    H141906   2.737   4.261  13.543 -0.3885  1.4171 -1.5010
 6805TIP3    H241907   2.722   4.403  13.594  1.3093  0.3852  2.2225
 6806TIP3   OH241908   4.546   4.848  13.984  0.0823 -0.6225 -0.2073
 6806TIP3    H141909   4.500   4.830  13.901  1.3106  1.9002 -1.5393
 6806TIP3    H241910   4.586   4.933  13.971  1.3185 -0.6747  2.6183
 6807TIP3   OH241911   2.995   3.640   5.038 -0.2734 -0.1785  0.1913
 6807TIP3    H141912   2.982   3.585   5.115  1.8747 -1.0729 -0.0119
 6807TIP3    H241913   3.054   3.589   4.982  2.4239  2.5916  0.3020
 6808TIP3   OH241914   0.248   5.364  15.915 -0.7594 -0.3312 -0.3858
 6808TIP3    H141915   0.238   5.459  15.924 -0.5558 -0.4294  1.0230
 6808TIP3    H241916   0.195   5.342  15.838 -0.6124  0.9492 -0.8833
 6809TIP3   OH241917   5.378   0.530   2.776  0.3082  0.1594 -0.2220
 6809TIP3    H141918   5.416   0.450   2.810 -0.4699 -0.4671 -0.7846
 6809TIP3    H241919   5.295   0.502   2.736  1.6642  0.6118 -3.7108
 6810TIP3   OH241920   4.953   5.378   0.190 -0.2642  0.5363  0.1036
 6810TIP3    H141921   5.002   5.324   0.128  1.4052 -0.0946  1.8640
 6810TIP3    H241922   4.864   5.344   0.187  0.3165 -1.0345 -0.2373
 6811TIP3   OH241923   0.848   4.759  12.991  0.2891  0.4189  0.4116
 6811TIP3    H141924   0.821   4.817  12.919 -1.1860  0.5903  1.0742
 6811TIP3    H241925   0.826   4.671  12.961  0.0974  0.4467  0.4714
 6812TIP3   OH241926   2.325   2.255   3.850  0.0350 -0.0842 -0.0619
 6812TIP3    H141927   2.352   2.187   3.912 -0.0111 -2.4462 -2.4635
 6812TIP3    H241928   2.249   2.296   3.892  1.3635  0.0643  2.4255
 6813TIP3   OH241929   5.856   0.193   1.965 -0.0708  0.1867  0.0950
 6813TIP3    H141930   5.855   0.283   1.998  1.2483  0.8911 -1.6270
 6813TIP3    H241931   5.764   0.170   1.954 -0.5229  0.4559  2.6782
 6814TIP3   OH241932   1.368   2.712   1.157  0.0684  0.1607  0.1363
 6814TIP3    H141933   1.385   2.802   1.128 -1.2623  0.5417  0.4529
 6814TIP3    H241934   1.276   2.712   1.182  0.1950 -1.1588  0.6948
 6815TIP3   OH241935   2.707   3.896  15.405  0.0124  0.0471 -0.1748
 6815TIP3    H141936   2.678   3.907  15.315  1.5745  0.4913 -0.6538
 6815TIP3    H241937   2.794   3.856  15.398  1.3274  2.4898  0.9819
 6816TIP3   OH241938   5.609   6.100   3.250  0.5625 -0.6214 -0.5292
 6816TIP3    H141939   5.519   6.117   3.279  0.7723 -2.6953  1.6207
 6816TIP3    H241940   5.664   6.148   3.312  1.1124  2.6473 -3.2039
 6817TIP3   OH241941   2.508   1.341   4.982  0.0059  0.2062  0.9029
 6817TIP3    H141942   2.480   1.402   4.914  1.5189  0.4102  0.4288
 6817TIP3    H241943   2.470   1.257   4.957  3.3659 -0.6313 -2.3431
 6818TIP3   OH241944   4.164   4.618  11.150 -0.4007  0.5971 -0.1418
 6818TIP3    H141945   4.117   4.552  11.201 -0.6388  1.0548  0.2395
 6818TIP3    H241946   4.207   4.568  11.081 -1.1049  0.1152 -0.2501
 6819TIP3   OH241947   5.476   0.185  12.467 -0.1788 -0.1295  0.0939
 6819TIP3    H141948   5.382   0.172  12.457 -0.5143  1.7564  0.4363
 6819TIP3    H241949   5.504   0.223  12.383 -0.0909  1.0619  0.6432
 6820TIP3   OH241950   2.701   4.373   3.195 -0.4011 -0.0359 -0.4553
 6820TIP3    H141951   2.744   4.303   3.244  0.8401  1.2001  0.2969
 6820TIP3    H241952   2.607   4.353   3.202 -0.1852 -0.6382  1.2791
 6821TIP3   OH241953   5.593   4.549  15.745 -0.0959 -0.5346  0.0065
 6821TIP3    H141954   5.558   4.461  15.741 -0.9193 -0.1821 -1.3938
 6821TIP3    H241955   5.565   4.584  15.829 -1.6712 -0.8562 -0.3673
 6822TIP3   OH241956   5.745   5.667   4.386 -0.0289  0.0113  0.0405
 6822TIP3    H141957   5.790   5.737   4.432  0.4007  0.2400 -0.7202
 6822TIP3    H241958   5.718   5.607   4.455 -0.1528  0.7772  0.6740
 6823TIP3   OH241959   0.453   5.726   4.690  0.0866 -0.3247 -0.2731
 6823TIP3    H141960   0.374   5.678   4.716 -0.4994 -0.6101 -2.4082
 6823TIP3    H241961   0.523   5.661   4.694 -0.2765 -0.7633 -0.8611
 6824TIP3   OH241962   3.272   5.409   6.485 -0.2833 -0.3337 -0.2970
 6824TIP3    H141963   3.182   5.393   6.513 -0.0922 -2.1910 -0.6067
 6824TIP3    H241964   3.274   5.502   6.463 -1.3369  0.4375  2.4991
 6825TIP3   OH241965   5.351   2.823   3.829  0.1743 -0.9589  0.6311
 6825TIP3    H141966   5.435   2.782   3.849  1.0663  0.5249  0.0407
 6825TIP3    H241967   5.360   2.913   3.858 -0.7239 -0.4217 -0.6809
 6826TIP3   OH241968   2.092   0.772  11.903 -0.0144  0.0567  0.0248
 6826TIP3    H141969   2.014   0.826  11.911  1.0486  1.6094  0.3306
 6826TIP3    H241970   2.157   0.814  11.959  1.5705 -0.1773 -1.5295
 6827TIP3   OH241971   0.485   2.511   0.697  0.0168  0.3673 -0.4535
 6827TIP3    H141972   0.410   2.464   0.663 -1.0742  1.4473  0.3795
 6827TIP3    H241973   0.554   2.497   0.632 -0.6141 -1.3708 -0.7839
 6828TIP3   OH241974   4.697   3.990  14.258 -0.0036  0.5542  0.1706
 6828TIP3    H141975   4.642   3.938  14.317 -0.2647  0.6158 -0.0192
 6828TIP3    H241976   4.743   4.051  14.316  0.7788 -0.2906  0.4760
 6829TIP3   OH241977   1.064   6.714   2.275  0.0576  0.1992  0.1747
 6829TIP3    H141978   0.985   6.689   2.322  0.6720  1.5920  2.0850
 6829TIP3    H241979   1.135   6.667   2.321  0.5026  0.1590 -0.5379
 6830TIP3   OH241980   4.599   2.246  16.870 -0.5451 -0.3399 -0.0451
 6830TIP3    H141981   4.623   2.296  16.792 -1.0531 -0.3068 -0.1866
 6830TIP3    H241982   4.679   2.200  16.895 -0.4357 -0.5229 -0.7153
 6831TIP3   OH241983   2.091   1.092   2.397  0.2474  0.4097 -0.2875
 6831TIP3    H141984   2.087   1.032   2.322  1.9785  0.0681 -0.1562
 6831TIP3    H241985   2.088   1.034   2.473  1.3832  0.4947 -0.1552
 6832TIP3   OH241986   5.242   1.883  14.898  0.0219  0.3140  0.9590
 6832TIP3    H141987   5.287   1.964  14.920 -0.0908  0.2291  1.5071
 6832TIP3    H241988   5.151   1.898  14.922 -0.8294  1.3817 -2.3705
 6833TIP3   OH241989   3.334   6.455   0.839  0.4370 -0.7168  0.4595
 6833TIP3    H141990   3.287   6.451   0.922  2.6865 -1.5779  1.7975
 6833TIP3    H241991   3.356   6.364   0.820  1.7403 -0.3336  0.0399
 6834TIP3   OH241992   3.608   1.297   6.802 -0.1824  0.0744  0.4043
 6834TIP3    H141993   3.669   1.223   6.811  1.1720  1.2670  1.6300
 6834TIP3    H241994   3.660   1.373   6.826 -1.7669  1.3510 -0.0550
 6835TIP3   OH241995   0.156   1.953  12.561  0.5864 -0.1962 -0.3857
 6835TIP3    H141996   0.213   1.925  12.632 -0.8192 -2.0811  0.0952
 6835TIP3    H241997   0.106   1.874  12.538 -0.4154  0.8702 -2.0988
 6836TIP3   OH241998   3.700   1.717   4.574  1.1987 -0.2891  0.2499
 6836TIP3    H141999   3.721   1.805   4.606  2.4485 -0.4035 -0.1746
 6836TIP3    H242000   3.688   1.665   4.654 -0.2687  0.3990  0.5058
 6837TIP3   OH242001   3.308   4.908   6.518  0.1772 -0.3290  0.0250
 6837TIP3    H142002   3.301   4.983   6.577 -0.1811 -0.0699 -0.3358
 6837TIP3    H242003   3.225   4.908   6.470  0.0412 -1.1590  0.2588
 6838TIP3   OH242004   3.454   0.177   0.123 -0.0362  0.8210 -0.1105
 6838TIP3    H142005   3.391   0.142   0.187 -0.6105  2.7269  0.4407
 6838TIP3    H242006   3.437   0.271   0.123 -0.1402  0.8844 -3.1878
 6839TIP3   OH242007   3.910   4.712  12.702  0.1218 -0.2781 -0.6081
 6839TIP3    H142008   3.867   4.711  12.617  0.1654  0.8921 -0.6684
 6839TIP3    H242009   3.990   4.762  12.688  0.6161 -0.9098 -0.0969
 6840TIP3   OH242010   5.805   1.166   0.084 -0.6772  0.0118  0.8302
 6840TIP3    H142011   5.853   1.094   0.043 -1.7176 -0.6250  0.7096
 6840TIP3    H242012   5.774   1.131   0.167 -1.1597  0.3286  0.7900
 6841TIP3   OH242013   6.396   1.749  10.929  0.6608 -0.2384 -0.2150
 6841TIP3    H142014   6.418   1.689  10.858  1.7210  1.3427 -1.2957
 6841TIP3    H242015   6.315   1.715  10.966  0.8016 -1.8506 -1.3159
 6842TIP3   OH242016   4.200   4.069  16.513 -0.0618 -0.6414  0.5157
 6842TIP3    H142017   4.228   4.159  16.500 -0.3389 -0.7124 -0.7448
 6842TIP3    H242018   4.278   4.024  16.546  0.0720  0.0492  1.1567
 6843TIP3   OH242019   6.703   2.357  13.935 -0.9613  0.1889 -0.6436
 6843TIP3    H142020   6.620   2.346  13.983 -0.7598 -0.5101 -0.4400
 6843TIP3    H242021   6.750   2.425  13.983 -0.8758 -0.3181  0.0035
 6844TIP3   OH242022   4.643   1.738   1.922 -0.0213 -0.0100  0.3334
 6844TIP3    H142023   4.724   1.687   1.916 -0.8860 -1.3329 -0.6702
 6844TIP3    H242024   4.575   1.678   1.892 -1.4710  0.9023  1.6762
 6845TIP3   OH242025   4.898   1.293  15.694 -0.4445  0.4253  0.0389
 6845TIP3    H142026   4.935   1.292  15.606  0.8946 -0.0137  0.5810
 6845TIP3    H242027   4.972   1.316  15.751 -1.1662  0.1912  1.1033
 6846TIP3   OH242028   2.256   5.207   5.619 -0.2907  0.9824 -0.3244
 6846TIP3    H142029   2.180   5.193   5.563  0.4027  0.7837 -1.2423
 6846TIP3    H242030   2.230   5.278   5.677 -2.8638 -2.0136  2.5716
 6847TIP3   OH242031   0.905   3.090  14.270  0.0882 -0.8841  0.3499
 6847TIP3    H142032   0.843   3.032  14.225  1.4716 -0.1899 -2.7174
 6847TIP3    H242033   0.988   3.044  14.264  0.6102 -0.0197  0.8130
 6848TIP3   OH242034   2.922   5.292   0.007 -0.3950 -0.9637  0.2229
 6848TIP3    H142035   2.955   5.319   0.093 -0.5319 -0.4449  0.1171
 6848TIP3    H242036   2.839   5.339  -0.003 -1.1472 -2.2049  0.4493
 6849TIP3   OH242037   0.513   2.109  12.274 -0.0778  0.0043 -0.8062
 6849TIP3    H142038   0.575   2.179  12.256 -1.9869  2.5398  1.6997
 6849TIP3    H242039   0.491   2.073  12.188  3.4581  0.1109 -1.8941
 6850TIP3   OH242040   6.685   4.067  12.442  0.3706  0.0716  0.2374
 6850TIP3    H142041   6.609   4.009  12.440  0.9728 -0.7611  0.8843
 6850TIP3    H242042   6.730   4.046  12.524  1.2743  0.5830 -0.1051
 6851TIP3   OH242043   1.594   4.428   4.062 -0.3283 -0.3095 -0.9342
 6851TIP3    H142044   1.636   4.414   3.977  0.9405 -0.9218 -0.2433
 6851TIP3    H242045   1.560   4.342   4.087 -2.0202  0.1757 -1.4666
 6852TIP3   OH242046   1.036   5.718  14.805 -0.1611 -0.1530 -0.9650
 6852TIP3    H142047   0.998   5.778  14.870  0.1580  0.1381 -1.0496
 6852TIP3    H242048   0.967   5.653  14.790  0.3069 -1.1236  0.8122
 6853TIP3   OH242049   6.146   0.929   1.843  0.7047  0.1757 -0.1863
 6853TIP3    H142050   6.186   0.977   1.771 -0.9869  1.2070 -0.4766
 6853TIP3    H242051   6.176   0.975   1.922  0.3177  0.7797 -0.3873
 6854TIP3   OH242052   5.874   5.045  13.589 -0.2651  0.2697  0.1909
 6854TIP3    H142053   5.843   5.134  13.571 -1.4749 -0.0405  0.6326
 6854TIP3    H242054   5.909   5.049  13.678 -0.8052  0.1923  0.4106
 6855TIP3   OH242055   2.767   4.840   3.856 -0.1022  0.0156  0.2705
 6855TIP3    H142056   2.688   4.788   3.838  0.2861 -0.9436  1.2194
 6855TIP3    H242057   2.759   4.917   3.799 -1.1695 -0.6162 -0.4705
 6856TIP3   OH242058   6.743   1.331  10.449  0.6453 -0.3086 -0.4104
 6856TIP3    H142059   6.667   1.379  10.484  1.3264  1.5227 -1.3030
 6856TIP3    H242060   6.764   1.376  10.367  3.0260 -0.4042  0.0740
 6857TIP3   OH242061   5.429   0.457   0.971 -0.5917 -0.9405  0.5346
 6857TIP3    H142062   5.494   0.509   0.925 -1.0919  1.1766  2.0695
 6857TIP3    H242063   5.438   0.483   1.063 -2.2769 -2.0592  1.0615
 6858TIP3   OH242064   2.337   3.882   4.273 -0.7504 -0.5008  0.3929
 6858TIP3    H142065   2.417   3.919   4.237 -0.5121  1.5230  2.7432
 6858TIP3    H242066   2.353   3.879   4.368 -2.4472 -2.6545  0.6895
 6859TIP3   OH242067   4.085   2.557  15.079 -0.1005 -0.2080  0.5381
 6859TIP3    H142068   4.054   2.491  15.141 -1.5563 -0.4450 -0.3987
 6859TIP3    H242069   4.144   2.509  15.021  1.6377  0.1113  1.9574
 6860TIP3   OH242070   3.819   0.590  13.325 -0.1989 -0.2764  0.1122
 6860TIP3    H142071   3.761   0.514  13.315  1.3313 -1.4350 -0.3833
 6860TIP3    H242072   3.774   0.660  13.277 -1.4469 -0.9712  0.2144
 6861TIP3   OH242073   2.418   0.235  12.625 -0.0366  0.4802  0.1132
 6861TIP3    H142074   2.353   0.282  12.677  0.8008  0.6390  1.0326
 6861TIP3    H242075   2.496   0.233  12.680  0.8894  0.6946 -1.1662
 6862TIP3   OH242076   0.566   1.429   1.749 -0.2098 -0.0428  0.4913
 6862TIP3    H142077   0.479   1.461   1.725 -1.0625 -3.0072 -0.8203
 6862TIP3    H242078   0.625   1.503   1.733 -2.0260  0.9737 -2.0611
 6863TIP3   OH242079   2.120   3.766   3.930 -0.3249 -0.0386  0.1088
 6863TIP3    H142080   2.151   3.835   3.989 -0.0182 -1.5863  1.8402
 6863TIP3    H242081   2.075   3.814   3.860 -2.1009  1.8796  2.3717
 6864TIP3   OH242082   2.886   6.630  10.412 -0.3779 -0.1400 -0.0983
 6864TIP3    H142083   2.878   6.557  10.351  0.8719  0.7844 -1.4444
 6864TIP3    H242084   2.867   6.593  10.498 -1.1756 -1.7088 -0.9243
 6865TIP3   OH242085   6.326   3.034  12.469  0.2843 -0.3027 -0.1393
 6865TIP3    H142086   6.328   2.939  12.475 -1.2898 -0.2893  1.1464
 6865TIP3    H242087   6.372   3.065  12.547  0.7684  0.0087 -0.5385
 6866TIP3   OH242088   4.260   3.768  15.699 -0.0993 -0.6930  0.6252
 6866TIP3    H142089   4.186   3.780  15.758 -1.3882  0.5842 -1.1488
 6866TIP3    H242090   4.290   3.679  15.717 -3.4781 -2.1479 -0.0959
 6867TIP3   OH242091   2.858   0.872   4.374  0.1028 -0.2907  0.7370
 6867TIP3    H142092   2.777   0.828   4.349 -0.3384  0.6182  0.5110
 6867TIP3    H242093   2.829   0.957   4.409  1.0913  1.4965 -2.4242
 6868TIP3   OH242094   5.898   2.531  14.796 -0.8321  0.3995 -0.1969
 6868TIP3    H142095   5.916   2.438  14.787  0.7018  0.3346  2.5332
 6868TIP3    H242096   5.884   2.562  14.707 -1.2624 -2.3900 -1.1772
 6869TIP3   OH242097   0.115   0.214   4.997  0.1377  1.1081 -0.1325
 6869TIP3    H142098   0.154   0.194   5.082 -0.1586 -2.0256 -0.6358
 6869TIP3    H242099   0.021   0.203   5.010  0.0421  1.1707 -0.7190
 6870TIP3   OH242100   1.430   2.760  16.921  0.1336  0.8075 -0.1817
 6870TIP3    H142101   1.342   2.761  16.883  0.4798 -1.1477 -1.1911
 6870TIP3    H242102   1.488   2.744  16.847  1.3319  1.7506  0.5155
 6871TIP3   OH242103   5.965   5.574  16.635  0.1643  0.4576  0.4988
 6871TIP3    H142104   5.976   5.552  16.543 -1.1541  1.5254  0.0564
 6871TIP3    H242105   5.870   5.575  16.648  0.3307 -0.1759  2.0104
 6872TIP3   OH242106   4.739   0.556  11.909 -0.7189  0.3156  0.2975
 6872TIP3    H142107   4.739   0.605  11.827 -2.3479  0.3092  0.2540
 6872TIP3    H242108   4.782   0.614  11.971 -2.2778  1.7077  0.1652
 6873TIP3   OH242109   6.136   0.564   2.937  0.1740 -0.0549 -0.0930
 6873TIP3    H142110   6.069   0.496   2.929 -0.3327  0.5438 -1.2663
 6873TIP3    H242111   6.191   0.554   2.859 -0.5084  1.4575 -0.8243
 6874TIP3   OH242112   5.652   6.315   1.949  0.3012 -0.0391 -0.1242
 6874TIP3    H142113   5.630   6.408   1.954  1.5653  0.2644 -0.0292
 6874TIP3    H242114   5.630   6.280   2.035 -1.4170 -0.1318 -0.5665
 6875TIP3   OH242115   2.914   2.985   5.177 -0.3953  0.0815  0.5220
 6875TIP3    H142116   2.917   3.022   5.265 -0.2487  0.5812  0.3136
 6875TIP3    H242117   2.828   2.943   5.171 -0.4815  0.2109  0.8364
 6876TIP3   OH242118   1.901   3.331  11.502  0.3283 -0.2423  0.2486
 6876TIP3    H142119   1.824   3.364  11.456 -1.4025 -0.1324  2.9849
 6876TIP3    H242120   1.902   3.237  11.482 -2.4635 -0.8952  2.5176
 6877TIP3   OH242121   2.682   0.077  11.171  0.1514  0.5750 -0.3975
 6877TIP3    H142122   2.737   0.154  11.180  1.4299 -0.1582 -1.4764
 6877TIP3    H242123   2.744   0.005  11.160 -0.9765 -0.7385  1.2517
 6878TIP3   OH242124   5.696   4.801   0.748  0.2028 -0.3064 -1.1336
 6878TIP3    H142125   5.666   4.715   0.718 -4.0179  0.2997  0.5981
 6878TIP3    H242126   5.632   4.862   0.711  1.3890  1.7548  0.0608
 6879TIP3   OH242127   4.915   2.223   5.569  0.2647 -0.2358 -0.0801
 6879TIP3    H142128   4.979   2.288   5.541 -1.1377  0.5688 -1.5934
 6879TIP3    H242129   4.875   2.192   5.487  0.0266 -2.1175  0.6835
 6880TIP3   OH242130   0.751   0.300   4.760  0.5226  0.4785 -0.0483
 6880TIP3    H142131   0.831   0.289   4.709  0.7275 -0.3344  0.4424
 6880TIP3    H242132   0.770   0.260   4.845 -0.4325  0.1828  0.0393
 6881TIP3   OH242133   5.249   1.674  10.726 -0.2115 -0.4065  0.4806
 6881TIP3    H142134   5.329   1.704  10.770 -1.0122  0.3215  1.5007
 6881TIP3    H242135   5.190   1.749  10.731  0.3349  0.5838 -3.8405
 6882TIP3   OH242136   3.812   3.049  15.658 -0.0543 -0.2851 -0.2075
 6882TIP3    H142137   3.872   3.123  15.663  0.5682 -0.8484  0.8676
 6882TIP3    H242138   3.775   3.042  15.746  0.4530 -1.6985 -0.0822
 6883TIP3   OH242139   0.606   3.653   0.794 -0.3389 -0.1848  0.1620
 6883TIP3    H142140   0.612   3.718   0.724  1.2380  0.0540  0.4814
 6883TIP3    H242141   0.531   3.680   0.846 -0.9458  0.1913 -0.8696
 6884TIP3   OH242142   5.065   3.612  16.957  0.0952 -0.0398  0.1070
 6884TIP3    H142143   5.026   3.548  17.016 -2.1049  1.0105 -0.1064
 6884TIP3    H242144   5.121   3.666  17.014  1.9139 -2.0066  0.2987
 6885TIP3   OH242145   4.393   6.783   2.948  0.7769  0.6243 -0.5218
 6885TIP3    H142146   4.447   6.713   2.912 -0.4809 -0.9633  0.5737
 6885TIP3    H242147   4.319   6.739   2.989  0.3739  2.5317  0.9888
 6886TIP3   OH242148   3.890   4.112   2.086 -0.8490 -0.0873  0.6068
 6886TIP3    H142149   3.957   4.048   2.110 -0.9077 -0.4490 -0.1415
 6886TIP3    H242150   3.826   4.107   2.157 -0.5463 -0.4152  0.8629
 6887TIP3   OH242151   3.924   0.974   0.231  0.8991 -0.0200 -0.1024
 6887TIP3    H142152   3.870   0.984   0.153  0.3754  0.8808  0.3640
 6887TIP3    H242153   3.937   0.880   0.239 -1.7923 -0.4128  0.5672
 6888TIP3   OH242154   1.509   2.160   3.343 -0.2373 -0.1244 -0.1424
 6888TIP3    H142155   1.471   2.248   3.337 -1.3529 -0.5280  0.6565
 6888TIP3    H242156   1.462   2.119   3.415  0.1047 -1.4668 -0.6598
 6889TIP3   OH242157   0.716   2.133   5.668 -0.6001  0.3977 -0.4794
 6889TIP3    H142158   0.633   2.158   5.628 -0.5583 -0.8720 -1.4320
 6889TIP3    H242159   0.694   2.064   5.730 -0.2777  0.0927 -0.6973
 6890TIP3   OH242160   3.637   4.558   5.254  0.1067 -0.5736 -0.0144
 6890TIP3    H142161   3.587   4.639   5.266  0.2302 -0.3339 -1.0864
 6890TIP3    H242162   3.699   4.557   5.328  0.3556  0.4901 -0.1953
 6891TIP3   OH242163   0.409   6.198   3.263  0.0894 -0.0644  0.7380
 6891TIP3    H142164   0.414   6.124   3.323  0.7793 -0.9979 -0.4128
 6891TIP3    H242165   0.382   6.160   3.180  2.2021  0.6474 -0.3480
 6892TIP3   OH242166   0.001   3.823  16.303  0.1344  0.2794 -0.4425
 6892TIP3    H142167  -0.070   3.886  16.291  0.5608  0.9138  0.2353
 6892TIP3    H242168   0.080   3.877  16.308  0.5968 -0.3730 -0.6186
 6893TIP3   OH242169   2.860   3.349  14.009 -0.2859 -0.0262  0.4266
 6893TIP3    H142170   2.933   3.355  14.070  0.4038  0.5902 -0.4447
 6893TIP3    H242171   2.808   3.428  14.026 -0.6299 -0.3385  0.8695
 6894TIP3   OH242172   5.999   0.364   5.051  0.3061  0.2137 -0.1156
 6894TIP3    H142173   6.053   0.383   4.975 -0.5303  1.8886 -0.3229
 6894TIP3    H242174   5.991   0.268   5.051  2.2772 -0.0009 -0.7228
 6895TIP3   OH242175   0.669   3.807  13.751 -0.2951  0.6580  0.4264
 6895TIP3    H142176   0.684   3.749  13.677 -0.6130  1.8795 -0.6241
 6895TIP3    H242177   0.600   3.866  13.723 -0.6754  0.9318  1.8373
 6896TIP3   OH242178   6.757   2.985   6.731  0.2201 -0.1626 -0.6322
 6896TIP3    H142179   6.711   2.921   6.677  0.6462  0.2466 -1.5113
 6896TIP3    H242180   6.765   3.063   6.675 -0.6141  0.7992  0.5464
 6897TIP3   OH242181   2.583   3.028  14.198  0.3962 -0.1616 -0.2544
 6897TIP3    H142182   2.583   3.070  14.111  0.9299 -0.7795 -0.5549
 6897TIP3    H242183   2.636   3.086  14.252 -0.0567  0.3031 -0.2982
 6898TIP3   OH242184   0.425   1.328  14.216 -0.1949 -0.0656  0.0429
 6898TIP3    H142185   0.505   1.291  14.178  0.3364 -1.8340  2.6281
 6898TIP3    H242186   0.392   1.388  14.149  1.4721 -1.7892 -2.4999
 6899TIP3   OH242187   3.625   1.752  15.105  0.0661 -0.7261  0.5635
 6899TIP3    H142188   3.558   1.784  15.044  0.0199 -1.8616 -0.0040
 6899TIP3    H242189   3.707   1.791  15.073 -0.1208 -0.3905  0.4831
 6900TIP3   OH242190   5.313   5.238   0.334  0.3149 -0.0427  0.2935
 6900TIP3    H142191   5.337   5.330   0.325 -1.1962  0.2083 -1.7100
 6900TIP3    H242192   5.378   5.191   0.282 -1.4081  0.3547 -2.4060
 6901TIP3   OH242193   2.856   3.682   1.760 -0.2181 -0.1558 -0.2139
 6901TIP3    H142194   2.925   3.742   1.732 -1.1399  1.4800  0.8742
 6901TIP3    H242195   2.810   3.728   1.830 -2.0091 -1.4717 -0.4369
 6902TIP3   OH242196   3.439   1.118   0.244  0.1596  0.3749 -0.2431
 6902TIP3    H142197   3.494   1.160   0.310  1.2027 -0.1971 -0.7264
 6902TIP3    H242198   3.353   1.157   0.257  0.4323  0.5677  1.1850
 6903TIP3   OH242199   5.751   5.282  12.924  0.2081  0.1768 -0.3852
 6903TIP3    H142200   5.790   5.235  12.850  2.1681 -0.1012  0.7804
 6903TIP3    H242201   5.746   5.373  12.895  0.6201  0.0162 -0.9732
 6904TIP3   OH242202   0.590   2.466  17.148 -0.0287  0.3348 -0.6548
 6904TIP3    H142203   0.582   2.372  17.135  0.6810  0.3630 -1.3499
 6904TIP3    H242204   0.509   2.502  17.113 -2.5336 -0.3027  3.6929
 6905TIP3   OH242205   2.014   6.682   5.132 -0.5173 -0.2751  0.1851
 6905TIP3    H142206   1.918   6.680   5.142 -0.5986  0.4959 -0.3816
 6905TIP3    H242207   2.046   6.632   5.207 -1.3361  0.0190  0.7509
 6906TIP3   OH242208   4.262   5.431   3.395  0.0712  0.0977  0.0056
 6906TIP3    H142209   4.343   5.391   3.363 -1.5093 -2.5280 -1.0965
 6906TIP3    H242210   4.290   5.511   3.439  3.3983 -1.5026  1.1192
 6907TIP3   OH242211   5.301   0.297   1.315 -0.1426 -0.1904  0.2093
 6907TIP3    H142212   5.231   0.358   1.291 -1.1809 -0.7616  1.6215
 6907TIP3    H242213   5.294   0.226   1.252  0.0695  0.4072 -0.4962
 6908TIP3   OH242214   6.808   1.875  15.341  0.8236 -0.0447 -0.2342
 6908TIP3    H142215   6.844   1.963  15.352  0.9477 -0.2450  1.0918
 6908TIP3    H242216   6.858   1.838  15.269  0.0724  1.3167 -1.5106
 6909TIP3   OH242217   5.426   4.266   0.137 -0.1530  0.5749 -0.7183
 6909TIP3    H142218   5.433   4.340   0.198 -1.7839  0.1080  0.0972
 6909TIP3    H242219   5.462   4.299   0.055  2.2692  1.1783  0.4699
 6910TIP3   OH242220   4.283   0.756  11.309  0.8007  0.4725 -0.1597
 6910TIP3    H142221   4.319   0.792  11.228 -0.2480 -0.1937 -0.9495
 6910TIP3    H242222   4.272   0.663  11.291 -0.2590  0.4660  0.4346
 6911TIP3   OH242223   2.704   0.085  15.712 -0.0219  0.2894  0.4567
 6911TIP3    H142224   2.785   0.112  15.670  0.1638  0.4945  0.9450
 6911TIP3    H242225   2.729   0.062  15.801 -0.4874  0.2661  0.5862
 6912TIP3   OH242226   1.320   0.264   0.768  0.2314  0.2674 -0.0152
 6912TIP3    H142227   1.346   0.315   0.844 -0.2736  0.8793 -0.2487
 6912TIP3    H242228   1.314   0.174   0.801  2.7023  0.0357  0.0356
 6913TIP3   OH242229   5.520   3.069   4.653 -0.1822 -0.1779  0.3032
 6913TIP3    H142230   5.544   3.007   4.721  1.3564  0.9510  0.8632
 6913TIP3    H242231   5.468   3.136   4.698  1.1402  0.7595  0.4812
 6914TIP3   OH242232   4.909   3.544  15.784 -0.3735 -0.2279  0.1290
 6914TIP3    H142233   4.845   3.490  15.830 -1.4142  0.5646 -0.3469
 6914TIP3    H242234   4.875   3.633  15.791  2.0637  0.6557  2.1931
 6915TIP3   OH242235   2.795   2.250  12.303  0.1154 -0.2994  0.3165
 6915TIP3    H142236   2.790   2.241  12.208 -1.1647  1.0239  0.2273
 6915TIP3    H242237   2.704   2.250  12.332  0.3321  2.3353  1.2103
 6916TIP3   OH242238   2.311   3.901   1.108 -0.2853  0.3432  0.3174
 6916TIP3    H142239   2.237   3.840   1.106 -1.0112  1.2260 -0.6514
 6916TIP3    H242240   2.322   3.929   1.017 -0.5177  2.2699  0.8356
 6917TIP3   OH242241   3.572   2.105  14.267  0.2962  0.3286  0.0375
 6917TIP3    H142242   3.636   2.172  14.293 -0.9547  1.7505 -0.4423
 6917TIP3    H242243   3.490   2.134  14.306 -0.6365  0.0278 -1.6523
 6918TIP3   OH242244   1.084   1.252   4.811 -0.4936 -0.1491  0.1392
 6918TIP3    H142245   0.999   1.239   4.854 -0.7036  2.0303  0.4766
 6918TIP3    H242246   1.147   1.216   4.873 -1.0498 -0.1802  0.7048
 6919TIP3   OH242247   3.564   0.193   1.966  0.1638  0.2144  0.4506
 6919TIP3    H142248   3.565   0.149   2.051 -1.3307 -1.0174 -0.1349
 6919TIP3    H242249   3.541   0.125   1.903  1.2957  1.0804 -0.9860
 6920TIP3   OH242250   2.219   4.775   5.268 -0.1222 -0.1619  0.0751
 6920TIP3    H142251   2.138   4.764   5.317  0.0621 -1.3406  0.1448
 6920TIP3    H242252   2.264   4.848   5.311 -1.4288  0.9399 -0.3746
 6921TIP3   OH242253   5.555   5.963  11.651 -0.1031 -0.0791 -0.0038
 6921TIP3    H142254   5.643   5.995  11.632 -1.0419  1.7288 -1.6433
 6921TIP3    H242255   5.569   5.883  11.702  2.4632  0.2038 -0.1365
 6922TIP3   OH242256   6.271   4.820   2.062 -0.2811 -0.4386  0.0373
 6922TIP3    H142257   6.229   4.736   2.044 -1.0272 -0.3492  1.2450
 6922TIP3    H242258   6.201   4.884   2.052  0.0618 -0.0585  0.0398
 6923TIP3   OH242259   6.023   0.588   1.171  0.2570  0.2030  0.2512
 6923TIP3    H142260   5.969   0.665   1.154 -0.2513 -0.3841 -0.8973
 6923TIP3    H242261   5.961   0.516   1.180  0.7804 -0.2613  0.2313
 6924TIP3   OH242262   1.925   3.944   0.930  0.0219  0.2111 -0.0851
 6924TIP3    H142263   1.883   3.858   0.933  0.6625 -0.0753  1.0575
 6924TIP3    H242264   1.904   3.977   0.842 -0.5742 -0.9250 -0.3960
 6925TIP3   OH242265   4.528   0.620   2.595 -0.3682  0.0663 -0.5094
 6925TIP3    H142266   4.596   0.640   2.659  1.4609 -1.9857 -1.6581
 6925TIP3    H242267   4.503   0.529   2.615 -2.4515  0.5929 -0.4579
 6926TIP3   OH242268   4.279   1.785  11.718 -0.3173 -0.3913  0.6239
 6926TIP3    H142269   4.327   1.863  11.746  0.2753 -0.8397  0.8680
 6926TIP3    H242270   4.326   1.712  11.758 -0.1598 -0.9662 -0.5805
 6927TIP3   OH242271   3.848   6.454  15.578  0.0746 -0.5991  0.6235
 6927TIP3    H142272   3.885   6.409  15.654 -0.6844 -0.4457  1.1028
 6927TIP3    H242273   3.756   6.468  15.602  0.3341  1.4485  0.6180
 6928TIP3   OH242274   2.926   4.912   4.625 -0.2365  0.2555 -0.5916
 6928TIP3    H142275   2.949   4.962   4.703 -0.9131  1.7424 -1.3056
 6928TIP3    H242276   2.919   4.977   4.556  2.0783 -1.2136 -2.3329
 6929TIP3   OH242277   5.631   6.761  16.254  0.2043  0.3917 -0.3170
 6929TIP3    H142278   5.615   6.717  16.170 -1.2447  1.2471 -0.5273
 6929TIP3    H242279   5.574   6.715  16.316  2.3026 -1.1711  0.5802
 6930TIP3   OH242280   4.674   5.127  12.304 -0.3635  0.5840 -0.2954
 6930TIP3    H142281   4.750   5.176  12.270 -1.8348  2.6540 -0.7761
 6930TIP3    H242282   4.615   5.195  12.337 -0.6901 -1.1054  3.0861
 6931TIP3   OH242283   3.165   5.387  15.504 -0.0615 -0.4713 -0.9579
 6931TIP3    H142284   3.092   5.327  15.489  0.9109 -1.3841 -2.1664
 6931TIP3    H242285   3.179   5.384  15.599 -0.5888 -1.4915 -0.8954
 6932TIP3   OH242286   2.499   0.476   3.181 -0.2200  0.6839  0.3993
 6932TIP3    H142287   2.514   0.473   3.275 -0.6656 -0.5596  0.4495
 6932TIP3    H242288   2.436   0.406   3.164  0.6028  0.2380 -0.9560
 6933TIP3   OH242289   0.073   4.133  15.533 -0.4275 -0.1693  0.2612
 6933TIP3    H142290   0.047   4.048  15.499 -3.7773  1.4974 -1.9701
 6933TIP3    H242291   0.033   4.196  15.473  1.0195  3.0176  2.3452
 6934TIP3   OH242292   4.125   3.755   0.920 -0.5979 -0.1571  0.5412
 6934TIP3    H142293   4.079   3.744   0.837  1.0494 -0.4768 -0.3568
 6934TIP3    H242294   4.058   3.735   0.987 -1.2304 -2.7529 -0.7449
 6935TIP3   OH242295   4.085   5.324  16.238 -0.8852  0.2443 -0.5726
 6935TIP3    H142296   4.114   5.271  16.312 -1.7760 -0.5347 -0.7719
 6935TIP3    H242297   4.057   5.406  16.277 -0.4485  0.2016 -0.1546
 6936TIP3   OH242298   3.546   0.071   5.836  0.7510  0.2698 -0.0612
 6936TIP3    H142299   3.518   0.126   5.909  0.4682 -1.9943  1.6484
 6936TIP3    H242300   3.631   0.036   5.862  1.4484  0.7401 -1.6049
 6937TIP3   OH242301   5.151   4.026   3.560  0.5606  0.1282 -0.5073
 6937TIP3    H142302   5.112   3.963   3.620  0.9585  0.7693  0.4580
 6937TIP3    H242303   5.245   4.006   3.562  1.2245  2.6980  2.3732
 6938TIP3   OH242304   0.856   6.678  15.447  0.4018  0.3548  0.3345
 6938TIP3    H142305   0.846   6.735  15.523  1.3653  1.2362 -0.1836
 6938TIP3    H242306   0.777   6.694  15.395  0.4615  0.8887  0.4055
 6939TIP3   OH242307   2.065   3.089   0.358 -0.1757 -0.3250 -0.4267
 6939TIP3    H142308   2.066   3.037   0.278 -0.7970 -1.3367  0.1952
 6939TIP3    H242309   1.981   3.067   0.400  0.5730 -0.6231  0.9980
 6940TIP3   OH242310   6.473   0.722  16.531  0.3569 -0.1393  0.0643
 6940TIP3    H142311   6.480   0.759  16.443 -1.3080 -0.4840 -0.2313
 6940TIP3    H242312   6.454   0.629  16.518 -2.6445  0.2901  0.6956
 6941TIP3   OH242313   0.854   1.702  13.088 -0.2453  0.9130  0.1247
 6941TIP3    H142314   0.770   1.665  13.061 -0.0740 -0.0562  0.8668
 6941TIP3    H242315   0.861   1.680  13.181 -0.0545  2.6969  0.5761
 6942TIP3   OH242316   3.609   6.734  12.885  0.2749 -0.8102  0.3391
 6942TIP3    H142317   3.620   6.828  12.901 -0.9178 -0.4276 -0.9521
 6942TIP3    H242318   3.656   6.718  12.803  0.7756 -1.4352  0.7340
 6943TIP3   OH242319   1.815   0.763   2.623  0.2232  0.7102  0.3469
 6943TIP3    H142320   1.846   0.678   2.653 -0.4077  0.3604  0.0206
 6943TIP3    H242321   1.877   0.788   2.553 -0.1518  0.0687 -0.2250
 6944TIP3   OH242322   6.635   0.933   0.553  0.2053 -0.9410  0.2828
 6944TIP3    H142323   6.709   0.925   0.612 -0.9234  0.8715  2.0945
 6944TIP3    H242324   6.611   1.026   0.557 -0.6502 -0.9874 -2.1548
 6945TIP3   OH242325   2.523   5.302   0.065  0.0937  0.0959  0.3668
 6945TIP3    H142326   2.570   5.231   0.021 -0.8647  0.4033 -1.2221
 6945TIP3    H242327   2.588   5.370   0.078  0.9175 -0.8583  1.4817
 6946TIP3   OH242328   3.149   5.632   1.352 -0.2424  0.0646  0.0577
 6946TIP3    H142329   3.219   5.614   1.288 -1.6153  0.3709 -1.5869
 6946TIP3    H242330   3.161   5.565   1.419  1.6873  0.1711 -0.1072
 6947TIP3   OH242331   5.103   4.550  14.875  0.1290 -0.1700 -0.2815
 6947TIP3    H142332   5.124   4.534  14.783  0.6030  2.6400 -0.7473
 6947TIP3    H242333   5.014   4.585  14.874 -0.5621 -1.8345  0.5575
 6948TIP3   OH242334   2.940   1.552  14.116 -0.1122  0.3496 -0.0093
 6948TIP3    H142335   2.913   1.462  14.097 -0.7472  0.6717 -0.6532
 6948TIP3    H242336   3.017   1.542  14.172 -1.5912 -0.6104  1.9816
 6949TIP3   OH242337   3.200   3.855  11.565 -0.1609 -0.0888  0.3085
 6949TIP3    H142338   3.188   3.858  11.659 -1.5967 -2.6486  0.2847
 6949TIP3    H242339   3.293   3.876  11.552 -0.5574  3.3622  1.9547
 6950TIP3   OH242340   5.671   0.780  15.586 -0.0246  0.2541  0.1329
 6950TIP3    H142341   5.671   0.837  15.509 -1.1707  1.4085  0.9325
 6950TIP3    H242342   5.725   0.827  15.651 -1.6200  0.8825  1.0671
 6951TIP3   OH242343   5.651   2.455  16.379  0.0896  0.0751 -0.4189
 6951TIP3    H142344   5.568   2.501  16.387 -0.4093 -1.1540  3.9694
 6951TIP3    H242345   5.629   2.371  16.339 -0.3158  0.6404 -1.4091
 6952TIP3   OH242346   4.593   6.683  12.900 -0.0148  0.0499  0.2836
 6952TIP3    H142347   4.631   6.606  12.857  2.5087  0.6859  1.1809
 6952TIP3    H242348   4.605   6.665  12.993 -0.4221  1.0565  0.5350
 6953TIP3   OH242349   4.630   5.584  12.988 -0.8793 -0.1870  0.1542
 6953TIP3    H142350   4.561   5.522  13.012 -1.3637  0.0481 -0.6106
 6953TIP3    H242351   4.600   5.668  13.023 -0.2861 -0.3373  1.0738
 6954TIP3   OH242352   5.078   6.265  16.258  0.2026  0.4427  0.0711
 6954TIP3    H142353   5.046   6.228  16.175 -0.5705  2.1015 -0.4181
 6954TIP3    H242354   5.093   6.357  16.238  2.1103  0.4313  1.2304
 6955TIP3   OH242355   2.839   5.414   6.249 -0.0410 -0.2358 -0.6575
 6955TIP3    H142356   2.820   5.496   6.205 -2.9532 -0.6120 -0.3308
 6955TIP3    H242357   2.804   5.425   6.338  1.5424 -1.0918  0.1234
 6956TIP3   OH242358   3.931   0.197  11.162 -0.1398  0.2233 -0.4728
 6956TIP3    H142359   3.884   0.275  11.135  0.6810  1.1731  0.7417
 6956TIP3    H242360   3.924   0.137  11.088 -0.5946  1.5238 -1.5036
 6957TIP3   OH242361   5.392   0.381  16.895 -0.0460  0.4339  0.2291
 6957TIP3    H142362   5.298   0.391  16.880  0.0840  1.5274  0.0197
 6957TIP3    H242363   5.403   0.394  16.990 -0.1684 -0.2833  0.3447
 6958TIP3   OH242364   4.049   0.549   5.461 -0.0695 -0.2883 -0.3212
 6958TIP3    H142365   4.035   0.609   5.387  1.7320  2.6727  1.5422
 6958TIP3    H242366   4.131   0.503   5.440 -1.2662 -1.9958 -1.5808
 6959TIP3   OH242367   0.798   2.461   3.287 -0.3694 -0.0687 -0.4964
 6959TIP3    H142368   0.883   2.505   3.290  0.1832 -1.0102 -1.7145
 6959TIP3    H242369   0.795   2.410   3.368  0.1219  0.1345 -0.3443
 6960TIP3   OH242370   0.672   2.606   0.074 -0.1806  0.0804 -0.2879
 6960TIP3    H142371   0.648   2.539   0.010 -0.2883 -0.7000  0.5434
 6960TIP3    H242372   0.633   2.687   0.041 -0.2582 -0.3144 -1.1841
 6961TIP3   OH242373   4.935   2.433  15.210  0.4446  0.0891 -0.1048
 6961TIP3    H142374   4.882   2.445  15.130 -1.4300 -2.3184  0.6439
 6961TIP3    H242375   4.925   2.515  15.257 -1.3670  0.3077 -0.7713
 6962TIP3   OH242376   0.037   2.917   3.930 -0.0778 -0.3095  0.3795
 6962TIP3    H142377  -0.048   2.961   3.934  0.2646  0.3200  0.9588
 6962TIP3    H242378   0.037   2.858   4.005  0.1386 -0.0502  0.5824
 6963TIP3   OH242379   1.335   1.097  13.144 -0.0403 -0.4619 -0.4662
 6963TIP3    H142380   1.244   1.085  13.172  0.0175 -0.6280 -0.3488
 6963TIP3    H242381   1.382   1.026  13.186  0.2307 -0.0704 -0.0952
 6964TIP3   OH242382   2.359   0.721  11.215 -1.1294 -0.2130 -0.2678
 6964TIP3    H142383   2.316   0.677  11.142 -1.1727 -2.3732  0.9953
 6964TIP3    H242384   2.441   0.754  11.178 -0.4762 -2.5214 -1.0214
 6965TIP3   OH242385   1.615   3.786  10.720 -0.1087  0.2954 -0.0584
 6965TIP3    H142386   1.643   3.877  10.722  0.1837  0.2214 -0.6582
 6965TIP3    H242387   1.696   3.736  10.716 -0.2878  0.0319 -0.4146
 6966TIP3   OH242388   3.172   4.471  14.502  0.1309  0.3189  0.5357
 6966TIP3    H142389   3.111   4.523  14.553  1.6860 -0.1605  3.0766
 6966TIP3    H242390   3.247   4.529  14.488  0.6558 -0.2759  0.8175
 6967TIP3   OH242391   0.942   3.699  12.342  0.1381  0.0601 -0.1899
 6967TIP3    H142392   1.024   3.747  12.352  0.0101  0.2372 -0.0008
 6967TIP3    H242393   0.949   3.626  12.404 -0.1036  0.4184  0.2582
 6968TIP3   OH242394   0.075   2.818   5.308  0.1553 -0.4793 -0.2877
 6968TIP3    H142395   0.006   2.814   5.241  1.1161  0.2195 -1.3516
 6968TIP3    H242396   0.129   2.892   5.282 -0.1497  0.6236  2.0090
 6969TIP3   OH242397   1.609   2.770  12.244 -0.1067  0.4155  0.0148
 6969TIP3    H142398   1.666   2.788  12.319 -0.1000  0.0697  0.0951
 6969TIP3    H242399   1.664   2.790  12.168  0.4343 -0.7402  0.0700
 6970TIP3   OH242400   6.595   2.946  12.605  0.3872  0.2311  0.0104
 6970TIP3    H142401   6.672   2.969  12.657  2.0854 -0.9594 -1.8026
 6970TIP3    H242402   6.631   2.902  12.528 -2.2201 -2.2066  0.0147
 6971TIP3   OH242403   3.768   2.040   5.616 -0.7142  0.0798 -0.6936
 6971TIP3    H142404   3.701   2.017   5.680 -1.0260  0.8025 -0.7603
 6971TIP3    H242405   3.778   2.134   5.624 -1.2425  0.2889 -2.1765
 6972TIP3   OH242406   3.918   4.839   1.106 -0.0320 -0.1589  0.0500
 6972TIP3    H142407   3.868   4.901   1.159  1.2946  0.4656  0.6203
 6972TIP3    H242408   3.992   4.814   1.161 -0.3685 -2.0531 -0.2781
 6973TIP3   OH242409   2.270   0.875   3.908  0.6041  0.1793  0.5448
 6973TIP3    H142410   2.294   0.965   3.932  1.0988  0.2531 -0.1830
 6973TIP3    H242411   2.276   0.873   3.812  0.2733 -0.5417  0.5313
 6974TIP3   OH242412   4.185   2.250   1.233  0.1093  0.1553  0.0098
 6974TIP3    H142413   4.157   2.243   1.142  0.6867  2.7137 -0.4450
 6974TIP3    H242414   4.277   2.273   1.228  0.5267 -1.0983  1.3123
 6975TIP3   OH242415   4.228   0.978   3.848 -0.2544 -0.1362 -0.2294
 6975TIP3    H142416   4.149   0.990   3.902 -0.0693 -1.1784  0.2983
 6975TIP3    H242417   4.201   1.004   3.760 -0.7956  0.8172  0.1984
 6976TIP3   OH242418   1.822   4.388   4.212  0.2536 -0.1860 -1.0164
 6976TIP3    H142419   1.735   4.411   4.180  0.3323  0.6343 -0.6910
 6976TIP3    H242420   1.822   4.418   4.303  0.7542 -0.4964 -0.9110
 6977TIP3   OH242421   4.426   3.381  10.978  0.4970 -0.1140  0.0641
 6977TIP3    H142422   4.355   3.331  10.937 -0.6166  1.4611 -0.0094
 6977TIP3    H242423   4.451   3.328  11.053 -0.2543 -1.0565 -0.3194
 6978TIP3   OH242424   6.326   3.440   5.847  0.0971 -0.1847 -0.1916
 6978TIP3    H142425   6.232   3.433   5.830 -0.0851  0.7423  0.4061
 6978TIP3    H242426   6.356   3.510   5.789  0.4483 -0.5408 -0.4492
 6979TIP3   OH242427   3.927   2.618  16.803 -0.0765 -0.0701  0.3071
 6979TIP3    H142428   3.984   2.689  16.833  0.0990 -0.0590 -0.0489
 6979TIP3    H242429   3.981   2.568  16.742 -0.2690 -0.3853  0.3951
 6980TIP3   OH242430   1.613   2.307  13.154  0.4764  0.2900  0.3763
 6980TIP3    H142431   1.589   2.215  13.143  1.6102 -0.0950  0.9630
 6980TIP3    H242432   1.543   2.345  13.206  0.1720 -0.3253  0.4134
 6981TIP3   OH242433   5.094   6.708   3.386  0.2903  0.7725  0.3876
 6981TIP3    H142434   5.135   6.628   3.420 -0.2030  0.8516  1.2125
 6981TIP3    H242435   5.106   6.703   3.292  4.3812  1.9917  0.6525
 6982TIP3   OH242436   1.223   2.479  14.861  0.3871  0.3148  0.9889
 6982TIP3    H142437   1.290   2.503  14.925  2.1001  2.7558 -1.5027
 6982TIP3    H242438   1.147   2.532  14.884  0.5760  0.3048  1.6404
 6983TIP3   OH242439   1.651   2.712   3.058 -0.4041  0.0813 -0.1204
 6983TIP3    H142440   1.643   2.773   2.986 -0.4043 -0.6457 -0.7470
 6983TIP3    H242441   1.563   2.674   3.068 -0.1269 -0.6847 -0.5255
 6984TIP3   OH242442   0.616   1.732   3.943 -0.6150 -0.2842 -0.4859
 6984TIP3    H142443   0.561   1.809   3.935 -0.9895 -0.6468 -1.5015
 6984TIP3    H242444   0.576   1.681   4.013 -0.6955  0.1621 -0.2035
 6985TIP3   OH242445   3.802   3.200  16.140  0.5982 -0.7275  0.1243
 6985TIP3    H142446   3.739   3.261  16.101 -0.5431 -0.5158  2.1541
 6985TIP3    H242447   3.774   3.114  16.112 -0.3015 -0.5944  0.5969
 6986TIP3   OH242448   4.151   0.650   3.605 -0.7356 -0.5968  0.5990
 6986TIP3    H142449   4.116   0.678   3.689  0.0085 -2.6609  1.6595
 6986TIP3    H242450   4.074   0.623   3.555 -1.1564  0.3935  0.6947
 6987TIP3   OH242451   3.024   0.260  12.664 -0.4774 -0.0679 -0.0798
 6987TIP3    H142452   3.048   0.184  12.717 -0.4346 -1.5648 -2.1327
 6987TIP3    H242453   2.931   0.247  12.645 -0.1005 -0.5556 -1.8083
 6988TIP3   OH242454   1.372   2.556  14.639  0.1817  0.5606 -0.0247
 6988TIP3    H142455   1.318   2.509  14.703  0.7987 -0.1493  0.0028
 6988TIP3    H242456   1.403   2.487  14.580  1.6262  0.8218  0.3886
 6989TIP3   OH242457   5.588   3.949   4.143  0.1096  0.1832  0.4497
 6989TIP3    H142458   5.605   3.926   4.052 -0.1438  0.5665  0.2989
 6989TIP3    H242459   5.657   4.013   4.164  1.2323 -1.1903  1.0815
 6990TIP3   OH242460   3.800   6.374   4.445 -0.4324  0.1518 -0.4669
 6990TIP3    H142461   3.800   6.454   4.393  0.2383  1.2409  1.1613
 6990TIP3    H242462   3.892   6.346   4.446 -0.5882 -0.3859 -0.6322
 6991TIP3   OH242463   1.070   1.598  16.076 -0.3369 -0.0320  0.4472
 6991TIP3    H142464   0.986   1.641  16.094  0.3213  1.9544 -0.8641
 6991TIP3    H242465   1.134   1.649  16.127  0.3558  0.0251 -0.4583
 6992TIP3   OH242466   3.669   4.603  13.127 -0.0217  0.1091  0.7277
 6992TIP3    H142467   3.745   4.637  13.174  1.3857 -1.0219 -0.6133
 6992TIP3    H242468   3.660   4.661  13.052 -1.1032  0.8079  1.3822
 6993TIP3   OH242469   0.542   6.413   4.712 -0.1044  0.2022 -0.2852
 6993TIP3    H142470   0.536   6.442   4.621 -0.5724  2.9348  0.5403
 6993TIP3    H242471   0.549   6.318   4.706 -0.9577  0.2252 -3.1337
 6994TIP3   OH242472   1.928   3.428   2.899 -0.0537 -0.0004  0.2380
 6994TIP3    H142473   1.882   3.427   2.815  0.3127  0.3167  0.0319
 6994TIP3    H242474   1.890   3.502   2.946  0.5050  0.5023 -0.0845
 6995TIP3   OH242475   4.992   5.461   3.641  0.6099  0.2450 -0.2062
 6995TIP3    H142476   4.906   5.468   3.683  0.2843  0.6747 -0.9164
 6995TIP3    H242477   5.038   5.541   3.668  0.5695  0.2982 -0.2942
 6996TIP3   OH242478   5.082   0.516   2.879  0.2170 -0.0072  0.3050
 6996TIP3    H142479   5.005   0.480   2.922 -0.4097  0.2857 -0.5317
 6996TIP3    H242480   5.138   0.546   2.950 -0.1464 -0.8132  0.9412
 6997TIP3   OH242481   5.808   1.049   2.311 -0.6642 -0.5038 -0.3476
 6997TIP3    H142482   5.785   1.099   2.389  2.9645 -0.5833  0.9286
 6997TIP3    H242483   5.787   0.958   2.334  0.9150 -0.6078  0.8578
 6998TIP3   OH242484   1.016   0.979  12.917 -0.1427  0.2849  0.8733
 6998TIP3    H142485   1.016   0.911  12.850 -2.9962 -0.2222  1.2426
 6998TIP3    H242486   1.061   0.939  12.992  1.0766  0.0361  0.0267
 6999TIP3   OH242487   4.687   4.001  15.369 -0.5903 -0.2255  0.1720
 6999TIP3    H142488   4.744   4.023  15.296  0.3102 -0.9204  0.6499
 6999TIP3    H242489   4.599   4.023  15.338  0.0405  2.2869 -0.0296
 7000TIP3   OH242490   3.667   0.453  12.262  0.5270 -0.3800  0.3743
 7000TIP3    H142491   3.666   0.367  12.220  1.5770 -0.6791  0.9329
 7000TIP3    H242492   3.704   0.511  12.196 -0.8332 -0.1963 -0.2590
 7001TIP3   OH242493   3.450   0.441   1.821 -0.3848  0.0313  0.1538
 7001TIP3    H142494   3.476   0.385   1.895 -2.3775 -0.7477  0.3166
 7001TIP3    H242495   3.454   0.530   1.856 -2.4908 -0.3878  1.6605
 7002TIP3   OH242496   6.619   1.873  14.246  0.1817 -0.0794 -0.0120
 7002TIP3    H142497   6.711   1.878  14.220  0.0450 -2.6014 -1.2796
 7002TIP3    H242498   6.613   1.793  14.298 -1.5888 -1.0278 -1.5553
 7003TIP3   OH242499   3.015   1.083   1.313 -0.2099  0.6903 -0.1229
 7003TIP3    H142500   2.955   1.146   1.275  1.3743  1.6322 -1.1716
 7003TIP3    H242501   3.072   1.136   1.369 -0.4398 -0.2084  0.9944
 7004TIP3   OH242502   3.269   1.028  12.355  0.3561 -0.4866 -0.0197
 7004TIP3    H142503   3.287   0.950  12.303 -0.0982 -0.3889 -0.3247
 7004TIP3    H242504   3.247   0.994  12.442  3.2774 -0.5932  0.8145
 7005TIP3   OH242505   5.714   4.658   3.738 -0.2484  0.3145  0.0697
 7005TIP3    H142506   5.654   4.625   3.805 -1.9444  2.7682 -0.1279
 7005TIP3    H242507   5.662   4.658   3.658  0.3594  1.5000 -0.3351
 7006TIP3   OH242508   4.784   3.331   3.582 -0.0068 -0.4071 -0.0260
 7006TIP3    H142509   4.823   3.417   3.595  1.1249 -1.0477  1.0309
 7006TIP3    H242510   4.694   3.349   3.554  0.2880  1.1047 -0.0799
 7007TIP3   OH242511   0.569   2.897  10.823  0.4508 -0.4873 -0.0228
 7007TIP3    H142512   0.612   2.850  10.751  0.2804  1.1464 -1.2538
 7007TIP3    H242513   0.491   2.846  10.841  0.8229 -1.2790 -0.5626
 7008TIP3   OH242514   3.905   1.195   3.716 -0.2515  0.2581 -0.1598
 7008TIP3    H142515   3.936   1.222   3.629  2.0320 -0.3975  0.3898
 7008TIP3    H242516   3.934   1.266   3.774 -3.8059  1.9028 -0.1164
 7009TIP3   OH242517   4.796   6.394   5.626 -0.3880 -0.3487 -0.0471
 7009TIP3    H142518   4.766   6.477   5.663 -0.2168 -0.4711  0.3764
 7009TIP3    H242519   4.718   6.338   5.626 -0.7242  0.0910 -1.1743
 7010TIP3   OH242520   2.922   1.190   2.605  0.2945  0.1178  0.3371
 7010TIP3    H142521   2.834   1.160   2.583  0.0989  1.2777 -0.4880
 7010TIP3    H242522   2.927   1.280   2.574  1.9226 -0.0554 -0.0367
 7011TIP3   OH242523   0.283   6.387  16.112 -0.0179 -0.3174  0.5919
 7011TIP3    H142524   0.297   6.335  16.191  1.8916 -1.0123 -0.1739
 7011TIP3    H242525   0.360   6.444  16.106 -0.7473  0.6386 -0.1040
 7012TIP3   OH242526   4.393   6.805   2.338 -0.8784  0.6577  0.0837
 7012TIP3    H142527   4.445   6.876   2.375  0.5643 -1.5081  2.5860
 7012TIP3    H242528   4.440   6.779   2.259  0.6707  0.2050  1.1058
 7013TIP3   OH242529   3.700   5.323  15.273  0.1232  0.6094 -0.2208
 7013TIP3    H142530   3.777   5.270  15.294  0.5705  1.2279 -0.2783
 7013TIP3    H242531   3.698   5.392  15.339  0.3528  1.3459 -0.9580
 7014TIP3   OH242532   3.679   0.436   4.615  0.4086 -0.0661 -0.2109
 7014TIP3    H142533   3.607   0.499   4.623  0.0939 -0.1598 -1.9767
 7014TIP3    H242534   3.757   0.489   4.631  0.0874  0.5743 -0.6852
 7015TIP3   OH242535   0.985   1.458   1.585  0.0353  0.3101 -0.4920
 7015TIP3    H142536   1.078   1.461   1.563 -0.4776  0.4956 -2.8845
 7015TIP3    H242537   0.976   1.380   1.640  1.0562 -1.9972 -3.3874
 7016TIP3   OH242538   5.956   0.753   5.169 -0.5401 -0.0450 -0.5824
 7016TIP3    H142539   5.863   0.749   5.148 -0.7665 -1.1814  0.4768
 7016TIP3    H242540   5.989   0.666   5.147  0.0359  0.0006  0.0716
 7017TIP3   OH242541   1.865   0.576   4.946  1.1571  1.1728  0.1956
 7017TIP3    H142542   1.806   0.630   4.894  1.4647  0.0061 -1.4444
 7017TIP3    H242543   1.905   0.637   5.009  0.2785  2.5040 -0.4947
 7018TIP3   OH242544   3.011   3.585   2.186 -0.3131  0.0752 -0.0616
 7018TIP3    H142545   2.986   3.669   2.226 -1.0779 -0.0224 -0.3205
 7018TIP3    H242546   2.976   3.519   2.246  2.0620 -0.0908  1.2349
 7019TIP3   OH242547   3.235   6.729   3.245 -0.2134  0.4066  0.6055
 7019TIP3    H142548   3.169   6.670   3.282  0.1481  1.0869  2.4212
 7019TIP3    H242549   3.297   6.672   3.202 -1.4758 -0.3128 -0.3410
 7020TIP3   OH242550   3.987   0.132  17.171 -0.3365 -0.0713 -0.1261
 7020TIP3    H142551   3.922   0.113  17.103  0.1186 -0.1432 -0.5459
 7020TIP3    H242552   3.963   0.219  17.203  0.0796  0.4279 -1.1354
 7021TIP3   OH242553   5.752   6.527   4.664  0.3010 -0.8286 -0.1321
 7021TIP3    H142554   5.793   6.544   4.748 -0.0239  1.2591 -0.3359
 7021TIP3    H242555   5.771   6.435   4.645  1.5471 -0.9504  1.5569
 7022TIP3   OH242556   0.892   1.545  13.865  0.4654 -0.5166  0.3510
 7022TIP3    H142557   0.968   1.488  13.872  1.5886  1.0166  1.3568
 7022TIP3    H242558   0.927   1.626  13.827 -1.0082 -0.3480 -0.7392
 7023TIP3   OH242559   5.115   3.443   2.698 -0.1456 -0.5023  0.0493
 7023TIP3    H142560   5.202   3.474   2.670  0.0270  0.1690  1.2871
 7023TIP3    H242561   5.057   3.516   2.678 -0.2468 -0.5441  0.1934
 7024TIP3   OH242562   2.644   4.094  11.514  0.1840  0.3750  0.6038
 7024TIP3    H142563   2.702   4.119  11.442  0.7321 -3.1493 -0.3227
 7024TIP3    H242564   2.698   4.040  11.571 -1.9397 -2.6036 -0.0207
 7025TIP3   OH242565   4.474   5.339   4.049  0.4461 -0.2018 -0.1476
 7025TIP3    H142566   4.527   5.269   4.011 -0.0592 -0.1680 -0.9344
 7025TIP3    H242567   4.399   5.294   4.087  0.4170 -0.1398 -0.1311
 7026TIP3   OH242568   5.016   0.518   2.048  0.2712 -0.3412 -0.6684
 7026TIP3    H142569   5.097   0.550   2.087  0.0591  0.1229 -0.6120
 7026TIP3    H242570   5.000   0.575   1.973  1.0082 -1.6025 -1.8480
 7027TIP3   OH242571   0.817   6.793  12.578 -0.4204 -0.3929  0.6153
 7027TIP3    H142572   0.803   6.699  12.567 -0.6022 -0.5559  2.0726
 7027TIP3    H242573   0.912   6.804  12.582 -0.2661 -0.1882 -1.8926
 7028TIP3   OH242574   2.069   6.218  13.198  0.2264 -0.3143 -0.7125
 7028TIP3    H142575   2.055   6.145  13.258  3.3670  0.8952  1.7868
 7028TIP3    H242576   2.006   6.284  13.227 -1.5279 -1.3659 -1.9538
 7029TIP3   OH242577   6.559   3.674  16.729 -0.0760 -0.0118 -0.6111
 7029TIP3    H142578   6.614   3.749  16.707  0.7593 -0.5885 -0.5683
 7029TIP3    H242579   6.589   3.648  16.816 -1.2299  0.3691 -0.0817
 7030TIP3   OH242580   1.693   0.107   4.528 -0.0965 -0.2691  0.4724
 7030TIP3    H142581   1.655   0.128   4.613  0.3773 -0.2412  0.6815
 7030TIP3    H242582   1.628   0.138   4.464  0.2846  1.2799  0.7762
 7031TIP3   OH242583   2.628   2.852   0.106  0.2110 -0.1636 -0.3800
 7031TIP3    H142584   2.709   2.844   0.156  0.6376 -1.0864 -1.1871
 7031TIP3    H242585   2.656   2.864   0.016 -0.5527  1.2310 -0.4720
 7032TIP3   OH242586   2.856   5.707   5.368  0.0789 -0.5992  0.3879
 7032TIP3    H142587   2.783   5.754   5.409 -0.0083 -1.5004  1.2936
 7032TIP3    H242588   2.882   5.642   5.433  0.2867 -1.7187 -0.7865
 7033TIP3   OH242589   0.509   1.595   4.945  0.0168 -0.0183  0.0326
 7033TIP3    H142590   0.558   1.546   4.880 -0.2751 -0.0065 -0.1979
 7033TIP3    H242591   0.423   1.554   4.946 -0.0206  0.0647  0.3171
 7034TIP3   OH242592   3.921   2.634  17.241  0.1483 -0.0513  0.4658
 7034TIP3    H142593   3.841   2.642  17.292  0.2574 -0.0946  0.6431
 7034TIP3    H242594   3.934   2.540  17.229 -1.3874 -0.0413 -2.0259
 7035TIP3   OH242595   3.522   4.148   3.340  0.3843 -0.0586  0.6104
 7035TIP3    H142596   3.438   4.103   3.335 -0.5605  1.7097 -2.7190
 7035TIP3    H242597   3.509   4.216   3.407 -0.9896  0.3591 -0.0373
 7036TIP3   OH242598   0.743   3.524   3.138 -0.8255  0.1574 -0.5507
 7036TIP3    H142599   0.715   3.436   3.162 -0.2669 -0.0407 -0.5994
 7036TIP3    H242600   0.784   3.558   3.218 -0.5936  0.1826 -0.6793
 7037TIP3   OH242601   3.264   2.076  15.700  0.3036 -0.7100 -0.1591
 7037TIP3    H142602   3.216   2.012  15.648  1.6669 -1.6061 -0.3571
 7037TIP3    H242603   3.270   2.153  15.643 -0.3025 -0.8216 -0.3835
 7038TIP3   OH242604   0.362   2.521  12.724  0.1159 -0.8737 -0.2779
 7038TIP3    H142605   0.317   2.458  12.779  2.4013 -1.7779  0.6522
 7038TIP3    H242606   0.445   2.537  12.768 -0.4628  3.1698 -0.1982
 7039TIP3   OH242607   2.390   2.701   4.857  0.2087  0.3232 -0.4832
 7039TIP3    H142608   2.438   2.761   4.800  1.3160  1.2327  1.3193
 7039TIP3    H242609   2.362   2.756   4.931  1.6598 -1.4229  1.4794
 7040TIP3   OH242610   5.491   5.961  13.010 -0.2647 -0.6862 -0.0859
 7040TIP3    H142611   5.412   5.952  13.064  0.1672 -1.9255  0.3840
 7040TIP3    H242612   5.511   6.054  13.012 -0.9606 -0.5367  0.9058
 7041TIP3   OH242613   5.402   0.831  15.647 -0.1097  0.0985  0.3458
 7041TIP3    H142614   5.491   0.823  15.613 -0.3974 -1.0911 -0.1689
 7041TIP3    H242615   5.411   0.880  15.728  0.9114  0.7141 -0.1168
 7042TIP3   OH242616   3.499   0.877  10.453 -0.0803 -0.5775  0.1086
 7042TIP3    H142617   3.424   0.829  10.417 -0.4646  0.5939 -0.7068
 7042TIP3    H242618   3.497   0.856  10.547 -2.4324  0.6538  0.4278
 7043TIP3   OH242619   3.534   3.939   1.353 -0.8867  0.1442 -1.0897
 7043TIP3    H142620   3.573   3.996   1.286 -0.1515  0.6889 -0.2189
 7043TIP3    H242621   3.580   3.856   1.342  0.2320  0.6412 -0.3827
 7044TIP3   OH242622   2.117   5.695  12.338  0.5434  0.9637 -0.1294
 7044TIP3    H142623   2.066   5.776  12.344  0.1677  0.6632  1.2607
 7044TIP3    H242624   2.084   5.651  12.260  0.8770  2.2145 -0.9978
 7045TIP3   OH242625   1.409   2.779   3.280 -0.0937  0.1064  0.3277
 7045TIP3    H142626   1.376   2.869   3.282 -0.4001 -0.0027  0.2134
 7045TIP3    H242627   1.410   2.753   3.372  1.5532  0.7776  0.5528
 7046TIP3   OH242628   3.240   0.822   5.781 -0.5605 -0.6189  0.3945
 7046TIP3    H142629   3.252   0.911   5.748  1.7344 -0.2707  1.9485
 7046TIP3    H242630   3.195   0.832   5.865  0.6036 -0.7948  1.0639
 7047TIP3   OH242631   5.861   1.969  10.845 -0.0195 -0.4211 -0.1996
 7047TIP3    H142632   5.792   1.913  10.810  1.2392 -1.8875 -0.4517
 7047TIP3    H242633   5.832   2.058  10.826 -1.2856 -1.0426 -1.3212
 7048TIP3   OH242634   1.020   0.538   2.123  0.1100 -0.4429 -0.8286
 7048TIP3    H142635   1.107   0.570   2.147 -0.2928  0.2959 -0.3121
 7048TIP3    H242636   1.017   0.448   2.158  1.1066 -0.9376 -1.9489
 7049TIP3   OH242637   5.274   5.261  11.464 -0.2632 -0.1544 -0.2233
 7049TIP3    H142638   5.367   5.243  11.475 -0.3415 -0.5015 -0.1115
 7049TIP3    H242639   5.234   5.232  11.547 -0.1485  2.3428  0.7936
 7050TIP3   OH242640   6.325   1.547  15.156 -0.1024 -0.5247  0.4145
 7050TIP3    H142641   6.376   1.543  15.237  0.2468 -0.2505  0.2116
 7050TIP3    H242642   6.258   1.612  15.173 -0.7459 -1.2989  0.8826
 7051TIP3   OH242643   2.100   6.295   6.629 -0.8896  0.6831 -0.2192
 7051TIP3    H142644   2.183   6.341   6.642 -1.1191  0.4270  2.9391
 7051TIP3    H242645   2.110   6.253   6.544  2.0160  1.0830 -0.2000
 7052TIP3   OH242646   5.668   5.694   5.174  0.5894 -0.2501  0.0326
 7052TIP3    H142647   5.655   5.722   5.084 -0.2654  0.6451  0.4091
 7052TIP3    H242648   5.724   5.617   5.168  0.2373 -0.4228 -1.2845
 7053TIP3   OH242649   1.248   6.766  15.623  0.2948  0.6418  0.4485
 7053TIP3    H142650   1.174   6.825  15.637 -0.9887 -0.9541  0.6487
 7053TIP3    H242651   1.311   6.790  15.690  0.1369  2.2550  0.0606
 7054TIP3   OH242652   1.350   0.163   1.176 -0.5436 -0.6335 -0.1492
 7054TIP3    H142653   1.298   0.188   1.253 -1.2911 -0.8048 -0.5962
 7054TIP3    H242654   1.427   0.219   1.181  0.1236 -1.6304  1.5163
 7055TIP3   OH242655   5.910   2.187   0.274  0.6103  0.2837  0.2639
 7055TIP3    H142656   5.815   2.178   0.281  0.6993  0.0072  1.3057
 7055TIP3    H242657   5.943   2.165   0.361  1.4177  3.1680  0.7950
 7056TIP3   OH242658   0.001   5.219  15.272 -0.6247  0.3957  0.4703
 7056TIP3    H142659  -0.066   5.230  15.339 -0.6262  1.0166  0.3790
 7056TIP3    H242660   0.044   5.305  15.267  1.1211 -0.3581  1.5357
 7057TIP3   OH242661   4.965   3.908  12.202  0.3408  0.4617  0.2393
 7057TIP3    H142662   4.925   3.826  12.231 -0.6719  0.8018 -0.1527
 7057TIP3    H242663   5.056   3.885  12.185 -0.4992 -1.3110 -2.6419
 7058TIP3   OH242664   0.705   4.430   4.035  0.2234 -0.2304  0.3254
 7058TIP3    H142665   0.646   4.421   4.110 -2.3488  0.9884 -1.4050
 7058TIP3    H242666   0.715   4.341   4.002  1.5365 -0.8078  2.1320
 7059TIP3   OH242667   1.302   5.749   2.151  0.1929 -0.1039  0.3513
 7059TIP3    H142668   1.271   5.698   2.076  0.3857  0.7885 -0.3555
 7059TIP3    H242669   1.224   5.763   2.205  0.0821 -0.8818  0.4071
 7060TIP3   OH242670   3.126   3.696   4.661 -0.8130 -0.4764 -0.0519
 7060TIP3    H142671   3.173   3.778   4.650 -0.0710 -1.0167 -1.2316
 7060TIP3    H242672   3.039   3.721   4.691  0.0503  0.5866  1.7178
 7061TIP3   OH242673   0.916   0.367  14.954  0.7246 -0.3470  0.3769
 7061TIP3    H142674   0.977   0.441  14.944 -0.4373  0.7356  0.9959
 7061TIP3    H242675   0.835   0.398  14.913  0.2357 -1.3200  0.5912
 7062TIP3   OH242676   2.236   2.054  15.081  0.0201  0.2971  0.0195
 7062TIP3    H142677   2.228   2.123  15.146 -3.0894  0.9882 -0.9386
 7062TIP3    H242678   2.231   1.972  15.131  1.9995  0.6970  0.9782
 7063TIP3   OH242679   6.121   0.759   5.864 -0.5348 -0.5778  0.2448
 7063TIP3    H142680   6.210   0.757   5.899 -0.3995 -0.8734 -0.1004
 7063TIP3    H242681   6.128   0.813   5.784 -0.7027 -0.4512  0.3148
 7064TIP3   OH242682   2.411   2.106  11.563  0.3114 -0.4360 -0.1166
 7064TIP3    H142683   2.496   2.064  11.548  1.4127  1.5200  0.1518
 7064TIP3    H242684   2.364   2.046  11.621  0.6359 -2.5547 -1.9161
 7065TIP3   OH242685   5.554   6.580   0.059  0.5953  0.2341  0.1421
 7065TIP3    H142686   5.594   6.612  -0.022 -0.0519  0.8405  0.0540
 7065TIP3    H242687   5.472   6.539   0.031  0.1640  0.8134  0.5136
 7066TIP3   OH242688   6.526   2.907   1.340  0.3222 -0.8814 -0.0881
 7066TIP3    H142689   6.516   2.834   1.279  1.2585 -1.3253  0.2721
 7066TIP3    H242690   6.509   2.985   1.288  0.6718 -1.2799 -0.8114
 7067TIP3   OH242691   6.576   5.550   0.024 -0.0714 -0.4131  0.0239
 7067TIP3    H142692   6.629   5.616  -0.019 -1.1021 -0.1486 -0.8804
 7067TIP3    H242693   6.544   5.495  -0.047 -0.2341 -1.1424  0.6457
 7068TIP3   OH242694   0.172   1.757  11.438 -0.1408  0.0554 -0.3450
 7068TIP3    H142695   0.121   1.709  11.373 -1.8212  2.3003 -0.8260
 7068TIP3    H242696   0.224   1.819  11.387  2.1621 -1.2999  0.2358
 7069TIP3   OH242697   2.536   1.897   6.298 -0.5197 -0.4146  0.0492
 7069TIP3    H142698   2.567   1.807   6.291 -1.9158 -0.8706 -0.7400
 7069TIP3    H242699   2.499   1.904   6.386 -0.7505 -0.7395 -0.0217
 7070TIP3   OH242700   5.094   5.278  13.010 -0.2083  0.0020  0.4420
 7070TIP3    H142701   5.100   5.198  12.958  0.8431  0.9219 -0.9244
 7070TIP3    H242702   5.048   5.340  12.954  1.5874  1.2355  0.2509
 7071TIP3   OH242703   3.831   5.082  12.438  0.3048  0.2414 -0.3219
 7071TIP3    H142704   3.788   5.017  12.493  1.8794 -0.5920 -0.0011
 7071TIP3    H242705   3.848   5.156  12.496  0.1459  0.1837 -0.2032
 7072TIP3   OH242706   6.648   4.693  16.196  0.4282 -0.2022 -0.3598
 7072TIP3    H142707   6.661   4.788  16.190  1.6460 -0.3107  0.3646
 7072TIP3    H242708   6.560   4.684  16.233  0.5233  0.6577  0.1155
 7073TIP3   OH242709   1.587   3.618  11.217  0.1332  0.2786  0.4818
 7073TIP3    H142710   1.642   3.546  11.184 -0.0067  1.2721 -2.1683
 7073TIP3    H242711   1.611   3.626  11.309  2.9491 -0.6754 -0.0640
 7074TIP3   OH242712   4.695   2.969  15.199 -0.3370 -0.2126  0.4798
 7074TIP3    H142713   4.612   2.924  15.183 -0.1827  0.0290 -1.2025
 7074TIP3    H242714   4.681   3.018  15.280 -2.0609  0.3463 -0.1183
 7075TIP3   OH242715   4.011   3.696  15.497  0.5536 -0.2812 -0.0766
 7075TIP3    H142716   4.041   3.608  15.473  0.2200 -0.5003  0.2854
 7075TIP3    H242717   4.008   3.743  15.414 -0.6866 -1.0565 -0.5078
 7076TIP3   OH242718   0.740   0.973   3.026  0.3342  0.0368  0.0649
 7076TIP3    H142719   0.678   1.023   3.079 -1.0497 -2.2801  0.7846
 7076TIP3    H242720   0.749   1.023   2.945 -3.0375  0.1428 -0.3602
 7077TIP3   OH242721   1.190   6.294   2.562 -0.2843 -0.4918  0.2365
 7077TIP3    H142722   1.178   6.228   2.493  1.7047 -0.7938  0.1107
 7077TIP3    H242723   1.146   6.257   2.638 -1.1090 -0.9125 -0.4170
 7078TIP3   OH242724   5.107   5.684  12.118 -0.6345 -0.3829  0.4852
 7078TIP3    H142725   5.043   5.645  12.058 -1.3848 -0.0878  1.0704
 7078TIP3    H242726   5.056   5.748  12.168  0.0393 -0.4357  1.2492
 7079TIP3   OH242727   3.223   1.493  15.618  0.4497 -0.6494 -0.0666
 7079TIP3    H142728   3.174   1.551  15.560 -1.0568 -3.1653 -1.4728
 7079TIP3    H242729   3.172   1.412  15.620  2.7924 -2.2077  1.2252
 7080TIP3   OH242730   0.390   6.787   5.637 -0.3919  0.3463  0.4388
 7080TIP3    H142731   0.407   6.782   5.732 -1.1426  0.6434  0.5948
 7080TIP3    H242732   0.405   6.698   5.606  1.3409  0.5519  0.5679
 7081TIP3   OH242733   5.558   3.356   5.445  0.5594  0.1644  0.0199
 7081TIP3    H142734   5.501   3.377   5.371  0.8391  1.3701  0.1287
 7081TIP3    H242735   5.502   3.367   5.522  0.1703 -1.4301 -0.0032
 7082TIP3   OH242736   1.960   4.532  12.569 -0.2122  0.0549 -0.1089
 7082TIP3    H142737   1.870   4.501  12.563 -0.1030 -0.0931 -1.1904
 7082TIP3    H242738   2.008   4.479  12.505  0.4960  0.6463 -0.0820
 7083TIP3   OH242739   3.410   0.869   0.767 -0.7810  0.3999 -0.3734
 7083TIP3    H142740   3.317   0.859   0.786 -1.0215  1.6671 -0.8035
 7083TIP3    H242741   3.445   0.780   0.768 -2.0578 -0.1152 -0.5471
 7084TIP3   OH242742   4.757   2.404   1.214  0.1672  0.2901 -0.0089
 7084TIP3    H142743   4.759   2.320   1.168  1.3166 -0.1418  0.7612
 7084TIP3    H242744   4.794   2.384   1.301  1.6025  1.8001 -0.2135
 7085TIP3   OH242745   4.207   3.989   3.113  0.9657  0.1866 -0.2074
 7085TIP3    H142746   4.180   4.010   3.202  2.0171 -1.5812  0.5871
 7085TIP3    H242747   4.302   3.998   3.114  0.8353  2.7618 -1.9436
 7086TIP3   OH242748   6.532   6.127   1.356  0.3693 -0.3037 -0.2814
 7086TIP3    H142749   6.504   6.101   1.268 -0.3633 -1.1398  0.1825
 7086TIP3    H242750   6.501   6.056   1.413  0.7708  0.2614  0.6616
 7087TIP3   OH242751   1.674   0.180  11.285  0.4345 -0.2955 -0.3002
 7087TIP3    H142752   1.736   0.107  11.282  1.2253  0.2505  1.2863
 7087TIP3    H242753   1.609   0.161  11.217  1.6439 -1.5262 -1.1459
 7088TIP3   OH242754   0.210   1.267   5.923 -0.1051 -0.2657  0.1232
 7088TIP3    H142755   0.276   1.336   5.928  1.2860 -1.5499  0.2365
 7088TIP3    H242756   0.139   1.297   5.979 -0.0045  1.5391 -0.6672
 7089TIP3   OH242757   5.310   0.202  11.681 -0.3644 -0.7609  0.1780
 7089TIP3    H142758   5.226   0.184  11.724 -2.1500  0.7495 -2.3528
 7089TIP3    H242759   5.323   0.127  11.623  0.0808 -1.0183  0.6071
 7090TIP3   OH242760   6.565   1.191   6.592  0.2706 -0.0592 -0.3094
 7090TIP3    H142761   6.553   1.237   6.675 -4.3766  1.0198 -1.2966
 7090TIP3    H242762   6.557   1.098   6.615 -2.1512  0.2677  0.4554
 7091TIP3   OH242763   2.319   4.783   1.571 -0.5844 -0.0973  0.1968
 7091TIP3    H142764   2.304   4.707   1.627 -0.5699  0.0554  0.4070
 7091TIP3    H242765   2.322   4.747   1.482  0.3601 -0.4671  0.3668
 7092TIP3   OH242766   0.381   4.111  13.447  0.0681 -0.5264  0.1001
 7092TIP3    H142767   0.435   4.079  13.375  0.2870 -0.2540  0.1406
 7092TIP3    H242768   0.292   4.108  13.414  0.3062  1.3494 -0.8547
 7093TIP3   OH242769   3.303   3.615   2.141 -0.7538  0.0417 -0.5288
 7093TIP3    H142770   3.216   3.634   2.175 -1.1945 -0.3749 -1.3995
 7093TIP3    H242771   3.302   3.521   2.123 -0.1100  0.0291 -0.5091
 7094TIP3   OH242772   6.412   0.812   0.739  0.8035 -0.3839 -0.0090
 7094TIP3    H142773   6.461   0.800   0.658  1.7590 -1.3179  0.6889
 7094TIP3    H242774   6.432   0.902   0.765 -0.8621  0.5258 -1.6520
 7095TIP3   OH242775   4.200   1.865  12.658 -0.6690  0.6029 -0.4065
 7095TIP3    H142776   4.232   1.775  12.668 -0.6286  0.3284 -2.5353
 7095TIP3    H242777   4.111   1.855  12.625 -0.8197  1.3614 -0.2346
 7096TIP3   OH242778   0.752   5.765  15.171 -0.2127  0.0349 -0.0575
 7096TIP3    H142779   0.837   5.778  15.129  0.4588 -3.7309 -0.1712
 7096TIP3    H242780   0.769   5.779  15.264  0.8372 -1.5821  0.0343
 7097TIP3   OH242781   0.771   6.330   4.272  0.3218 -0.5139 -0.4160
 7097TIP3    H142782   0.791   6.381   4.194  3.1076 -0.4947  0.2073
 7097TIP3    H242783   0.701   6.271   4.245  0.4302  0.2556 -2.5704
 7098TIP3   OH242784   3.853   5.255   1.290  0.5174  0.9786 -0.2039
 7098TIP3    H142785   3.907   5.248   1.212  0.1362  0.0231 -0.3969
 7098TIP3    H242786   3.908   5.222   1.361  0.6227  1.1882 -0.1885
 7099TIP3   OH242787   2.531   2.024  14.712  0.3790 -0.6097  0.3016
 7099TIP3    H142788   2.439   2.031  14.686 -0.0150  1.4232  2.0024
 7099TIP3    H242789   2.573   1.983  14.637 -1.7151 -0.6273 -0.9658
 7100TIP3   OH242790   0.374   3.058  12.270 -0.5417  0.3190  0.2420
 7100TIP3    H142791   0.447   3.027  12.216 -1.7376  0.3276 -1.4532
 7100TIP3    H242792   0.350   2.982  12.323 -2.2154 -1.2437 -2.5065
 7101TIP3   OH242793   1.457   1.729   3.173  0.2081 -0.0575 -0.2360
 7101TIP3    H142794   1.512   1.807   3.164 -0.3610  0.7404  2.3279
 7101TIP3    H242795   1.519   1.656   3.175  0.9839  0.5923  0.0420
 7102TIP3   OH242796   1.747   4.191   1.278  0.1364  0.6453 -0.3510
 7102TIP3    H142797   1.810   4.255   1.311  0.7360 -1.1328  2.3660
 7102TIP3    H242798   1.799   4.112   1.262 -1.1304 -0.4149  0.5329
 7103TIP3   OH242799   1.138   5.490   6.798 -0.0548  0.1516  0.3278
 7103TIP3    H142800   1.232   5.501   6.813 -0.3123  0.0445  2.3823
 7103TIP3    H242801   1.098   5.569   6.835 -0.8773 -0.6768  1.2996
 7104TIP3   OH242802   4.614   3.733  10.906 -0.8326  0.4026 -0.0498
 7104TIP3    H142803   4.622   3.640  10.886  0.9232 -0.0636  2.2929
 7104TIP3    H242804   4.684   3.774  10.855 -0.7645  0.2369 -0.0915
 7105TIP3   OH242805   6.295   5.792  11.630  0.1916  0.0489 -0.4237
 7105TIP3    H142806   6.314   5.799  11.723  0.7036  0.2349 -0.5405
 7105TIP3    H242807   6.209   5.750  11.626 -0.0231  0.4347  0.1400
 7106TIP3   OH242808   0.999   0.342  13.848 -0.1625 -0.0850  0.4054
 7106TIP3    H142809   0.918   0.304  13.813 -0.3982  0.3868  0.4303
 7106TIP3    H242810   1.006   0.306  13.936 -0.2183 -0.3119  0.3195
 7107TIP3   OH242811   1.131   2.111   3.800  0.3324 -0.5645  0.2470
 7107TIP3    H142812   1.128   2.205   3.817  2.2544 -0.4775  0.3907
 7107TIP3    H242813   1.077   2.072   3.868 -1.8486  0.5048 -0.7892
 7108TIP3   OH242814   1.160   3.769   2.993 -0.4129  0.4050 -0.5124
 7108TIP3    H142815   1.110   3.783   2.913 -0.0665 -0.3474 -0.8705
 7108TIP3    H242816   1.198   3.854   3.013  1.9992  0.0015 -2.8433
 7109TIP3   OH242817   5.919   3.779  11.702  0.2350 -0.6034  0.1298
 7109TIP3    H142818   5.853   3.833  11.660 -0.4133 -1.1031  0.4967
 7109TIP3    H242819   6.002   3.821  11.678  0.1288 -2.1341 -3.5520
 7110TIP3   OH242820   5.647   3.213   5.701  0.1167  0.1991 -0.1847
 7110TIP3    H142821   5.593   3.136   5.718  1.1211 -0.6957 -0.8675
 7110TIP3    H242822   5.700   3.188   5.625  0.6187  1.4890 -0.2813
 7111TIP3   OH242823   0.151   3.119   3.336 -0.0262 -0.3166  0.1739
 7111TIP3    H142824   0.101   3.199   3.323  1.4710  0.7184  0.6101
 7111TIP3    H242825   0.116   3.058   3.270 -3.3141 -0.4080  1.7848
 7112TIP3   OH242826   5.739   3.475  14.835  0.0435 -0.2378 -0.1020
 7112TIP3    H142827   5.774   3.541  14.895  0.9768 -0.8177  0.0042
 7112TIP3    H242828   5.795   3.399  14.847 -2.1119 -1.7119  1.0838
 7113TIP3   OH242829   0.761   0.904  12.140  0.3939  0.0757 -0.4046
 7113TIP3    H142830   0.699   0.973  12.117 -1.5111 -1.5774 -0.5108
 7113TIP3    H242831   0.707   0.834  12.175  2.2932 -1.2490  0.0487
 7114TIP3   OH242832   5.291   4.861  15.399 -0.9699 -0.2875  0.6473
 7114TIP3    H142833   5.297   4.820  15.313 -0.0153  0.6632  0.2303
 7114TIP3    H242834   5.340   4.803  15.458  0.5782  0.3162  0.0173
 7115TIP3   OH242835   3.342   5.624   1.141  0.4155 -0.8459  0.3150
 7115TIP3    H142836   3.399   5.686   1.188  1.4600 -1.3711 -0.2125
 7115TIP3    H242837   3.311   5.674   1.066 -2.1962  0.3837  2.0428
 7116TIP3   OH242838   1.146   1.442  13.866 -0.2148  0.2088 -0.6459
 7116TIP3    H142839   1.201   1.426  13.943 -0.8231  0.5655 -0.1259
 7116TIP3    H242840   1.174   1.376  13.803  0.9319  0.4952 -0.4631
 7117TIP3   OH242841   5.498   3.674  11.329 -0.0685 -0.4082  0.1924
 7117TIP3    H142842   5.525   3.664  11.237  0.3358 -1.8957  0.4534
 7117TIP3    H242843   5.446   3.755  11.330  2.0754  1.0731 -0.8495
 7118TIP3   OH242844   1.811   4.642  14.739 -0.2824 -0.2458  0.0238
 7118TIP3    H142845   1.721   4.611  14.725  0.2255 -1.6460 -0.2755
 7118TIP3    H242846   1.857   4.618  14.659  0.2530  0.9463 -0.0451
 7119TIP3   OH242847   6.680   0.302   4.155 -0.2286  1.0901 -0.2793
 7119TIP3    H142848   6.684   0.397   4.159 -0.2676  1.1261 -1.0310
 7119TIP3    H242849   6.771   0.275   4.141 -0.1401  0.9850  0.4660
 7120TIP3   OH242850   2.958   4.020   1.170 -0.2300  0.1181 -0.5261
 7120TIP3    H142851   3.047   4.027   1.136  0.3183 -1.4653  0.4299
 7120TIP3    H242852   2.923   3.941   1.128 -0.3454 -0.5556  0.7814
 7121TIP3   OH242853   6.171   3.161  13.301  0.6951 -0.4557 -0.4840
 7121TIP3    H142854   6.094   3.106  13.313  0.5046 -0.3888 -1.3385
 7121TIP3    H242855   6.245   3.100  13.301  0.6223 -0.5460  0.0893
 7122TIP3   OH242856   4.320   6.286   0.025  0.4816 -0.0771 -0.1033
 7122TIP3    H142857   4.347   6.365   0.074 -2.4954 -0.1961  2.0213
 7122TIP3    H242858   4.266   6.320  -0.046 -0.2837 -0.1330  0.4394
 7123TIP3   OH242859   0.928   0.288   2.224  0.1356 -0.9924 -0.7985
 7123TIP3    H142860   0.867   0.218   2.202 -0.4360 -1.2643  1.3505
 7123TIP3    H242861   1.014   0.248   2.214 -0.1799 -2.0378  0.3059
 7124TIP3   OH242862   5.205   3.276  14.971  0.5403  0.5627 -0.6234
 7124TIP3    H142863   5.121   3.244  15.005  0.0878  1.4796 -0.8519
 7124TIP3    H242864   5.260   3.285  15.049  0.3863  0.0963 -0.4532
 7125TIP3   OH242865   4.846   1.425   3.038 -0.0039 -0.0225  0.5602
 7125TIP3    H142866   4.859   1.519   3.021 -0.6372  0.2687  1.5910
 7125TIP3    H242867   4.921   1.383   2.996  1.2176  1.0969  1.5311
 7126TIP3   OH242868   3.394   4.114  17.025 -0.4756 -0.0180 -0.0553
 7126TIP3    H142869   3.415   4.096  16.933  0.5976 -0.3152  0.2263
 7126TIP3    H242870   3.342   4.194  17.023 -0.6949 -0.1764 -0.9437
 7127TIP3   OH242871   2.366   3.346  14.191  0.5237 -0.7225  0.3346
 7127TIP3    H142872   2.309   3.392  14.129  0.8209  0.8873  1.2125
 7127TIP3    H242873   2.336   3.255  14.188 -1.7201 -0.0369  0.3585
 7128TIP3   OH242874   3.803   0.182  12.997  0.2375 -0.5010  0.1252
 7128TIP3    H142875   3.839   0.198  13.084 -0.0990  2.5962 -0.2071
 7128TIP3    H242876   3.769   0.267  12.969  1.6598 -0.9857 -3.6597
 7129TIP3   OH242877   4.147   2.902  15.571 -0.3365 -0.0396  0.4226
 7129TIP3    H142878   4.178   2.992  15.577  0.4289 -0.3830  2.2306
 7129TIP3    H242879   4.167   2.876  15.481  0.0885  1.3423  0.0880
 7130TIP3   OH242880   6.328   5.414   0.897  0.3010  0.1848  0.2033
 7130TIP3    H142881   6.390   5.362   0.948 -1.4922  0.0768  2.4190
 7130TIP3    H242882   6.268   5.349   0.859  0.1037  0.4336  0.0894
 7131TIP3   OH242883   4.911   5.632  14.984 -0.7422 -0.0109  0.4028
 7131TIP3    H142884   4.827   5.666  15.015 -1.0648 -0.2498 -0.1875
 7131TIP3    H242885   4.973   5.653  15.053 -1.4007 -0.3274  1.1042
 7132TIP3   OH242886   4.742   0.068  13.974  0.8538 -0.0020 -0.3585
 7132TIP3    H142887   4.833   0.058  13.944  1.2357  1.7503  0.0813
 7132TIP3    H242888   4.751   0.092  14.066  0.0868  2.2497 -0.8055
 7133TIP3   OH242889   2.419   4.574   2.147  0.1082  0.1483  0.5536
 7133TIP3    H142890   2.415   4.670   2.153 -1.2294  0.1405  0.0967
 7133TIP3    H242891   2.503   4.556   2.106 -0.0008  1.1811 -0.1618
 7134TIP3   OH242892   4.700   0.641  13.069  0.3554 -0.5687  0.2631
 7134TIP3    H142893   4.639   0.576  13.102  0.6113 -1.4268 -0.9016
 7134TIP3    H242894   4.761   0.657  13.141  0.5828 -1.9917  0.4042
 7135TIP3   OH242895   4.320   5.428   1.911  0.7747  0.0018  0.7171
 7135TIP3    H142896   4.280   5.515   1.900  2.4969  0.7601  0.2152
 7135TIP3    H242897   4.274   5.391   1.987 -2.2854 -0.0485 -0.9703
 7136TIP3   OH242898   3.021   1.162   4.197 -0.0295  0.1605 -0.0724
 7136TIP3    H142899   2.942   1.109   4.203 -0.6341  0.9655 -0.5824
 7136TIP3    H242900   2.990   1.252   4.211  0.2580  0.8405 -3.1182
 7137TIP3   OH242901   1.514   2.095  13.336  0.4365  0.0588 -0.6450
 7137TIP3    H142902   1.468   2.041  13.271  0.1669 -0.4683 -0.0238
 7137TIP3    H242903   1.447   2.154  13.370 -0.5808 -2.5020  2.2412
 7138TIP3   OH242904   1.720   5.893   4.785 -0.5551 -0.3292 -0.2187
 7138TIP3    H142905   1.680   5.831   4.846 -0.7413 -0.2160 -0.2237
 7138TIP3    H242906   1.653   5.906   4.717  0.4342 -2.1148 -1.6221
 7139TIP3   OH242907   2.467   2.538  11.358 -0.4107  0.2154 -0.2921
 7139TIP3    H142908   2.390   2.587  11.388 -0.1646  0.1105  0.5527
 7139TIP3    H242909   2.520   2.603  11.312 -2.0405 -0.1815 -2.9684
 7140TIP3   OH242910   1.196   3.465  11.870  0.3524  0.1257 -0.5105
 7140TIP3    H142911   1.112   3.420  11.872  0.8503 -0.7942 -0.1201
 7140TIP3    H242912   1.216   3.474  11.776 -0.2111  0.4312 -0.6062
 7141TIP3   OH242913   1.453   0.349  15.222  0.7458  0.2828  0.0641
 7141TIP3    H142914   1.389   0.333  15.152  0.9470  0.5387 -0.1806
 7141TIP3    H242915   1.510   0.273  15.221  0.7665  0.3009 -0.0689
 7142TIP3   OH242916   6.603   0.298   0.921 -0.0020  0.0448  0.2262
 7142TIP3    H142917   6.578   0.211   0.889 -0.9576  0.0471  0.9487
 7142TIP3    H242918   6.688   0.315   0.879  0.1769 -1.2112  0.0458
 7143TIP3   OH242919   6.159   0.625   4.875 -0.0771  0.5674  0.2278
 7143TIP3    H142920   6.120   0.545   4.840 -0.9836  0.9198  0.4132
 7143TIP3    H242921   6.175   0.679   4.798  0.9294  0.0452  0.0611
 7144TIP3   OH242922   2.661   0.726   5.353 -0.3310 -0.2910 -0.2400
 7144TIP3    H142923   2.656   0.822   5.350 -0.2820 -0.2886 -2.4036
 7144TIP3    H242924   2.579   0.697   5.313 -1.2186 -1.2411  2.1328
 7145TIP3   OH242925   1.681   6.684  13.049 -0.1614  0.9671  0.2660
 7145TIP3    H142926   1.667   6.769  13.008  0.8778  1.2916  0.5705
 7145TIP3    H242927   1.750   6.643  12.997 -1.7156 -0.3781 -0.8623
 7146TIP3   OH242928   0.018   1.349   6.100 -0.0051 -0.0713 -0.1646
 7146TIP3    H142929   0.065   1.334   6.182  0.0107 -0.8138 -0.3082
 7146TIP3    H242930  -0.063   1.393   6.128  0.3477  0.3803  0.1687
 7147TIP3   OH242931   0.272   1.681   1.312  0.1753 -0.2019  0.5440
 7147TIP3    H142932   0.347   1.671   1.370  1.9633  2.0436 -1.2046
 7147TIP3    H242933   0.286   1.765   1.268 -2.7863 -0.2434 -0.7279
 7148TIP3   OH242934   1.578   2.327   4.210  0.2333 -0.1480 -0.0328
 7148TIP3    H142935   1.645   2.394   4.197  0.5280 -0.3675  0.3289
 7148TIP3    H242936   1.568   2.322   4.305  0.4021 -0.7950 -0.0428
 7149TIP3   OH242937   2.433   4.187   0.634 -0.5096  0.1282 -0.4162
 7149TIP3    H142938   2.485   4.113   0.605  0.2212  0.6810 -0.5488
 7149TIP3    H242939   2.350   4.179   0.587 -1.3955 -1.9033  1.3034
 7150TIP3   OH242940   5.466   4.236  13.758  0.5669  0.7522  0.2500
 7150TIP3    H142941   5.412   4.197  13.690 -0.1987  1.4319  0.4503
 7150TIP3    H242942   5.466   4.329  13.738  1.4776  0.7918  0.3952
 7151TIP3   OH242943   4.864   5.980   5.791  0.6449  0.0304 -0.0682
 7151TIP3    H142944   4.877   5.975   5.885 -0.0731  1.8753  0.1641
 7151TIP3    H242945   4.948   5.951   5.754  0.9310 -0.7126  1.1030
 7152TIP3   OH242946   3.668   2.479  11.182  0.0788 -0.0724 -0.0684
 7152TIP3    H142947   3.708   2.547  11.127  1.0459 -0.0481  0.6470
 7152TIP3    H242948   3.639   2.525  11.260  0.5728 -0.4488  0.3413
 7153TIP3   OH242949   2.243   4.591  14.242  0.3589 -0.1072 -0.1107
 7153TIP3    H142950   2.234   4.496  14.244  0.2323 -0.0928  0.9709
 7153TIP3    H242951   2.166   4.622  14.194  1.3187 -0.6128 -2.0686
 7154TIP3   OH242952   3.575   3.765   4.997  0.0188 -0.3104 -0.0100
 7154TIP3    H142953   3.547   3.845   4.952  1.2318 -0.3298 -0.8378
 7154TIP3    H242954   3.516   3.759   5.072  0.3859  1.7874  0.5245
 7155TIP3   OH242955   1.206   4.950  11.458  0.4708  0.1690  0.3355
 7155TIP3    H142956   1.259   4.982  11.385 -1.9984  0.9079 -1.2193
 7155TIP3    H242957   1.182   4.861  11.433 -1.8544  1.0106 -0.7302
 7156TIP3   OH242958   1.969   1.626   4.829  0.0895  0.3030 -0.0264
 7156TIP3    H142959   2.002   1.629   4.740  1.6923  0.3060  0.5364
 7156TIP3    H242960   1.957   1.718   4.854 -0.2918  0.3041 -0.2154
 7157TIP3   OH242961   5.667   1.610  11.464  0.3610  0.1924 -0.1342
 7157TIP3    H142962   5.596   1.600  11.527  0.4857  1.3612  0.2177
 7157TIP3    H242963   5.625   1.598  11.378 -0.0175 -0.3248  0.1160
 7158TIP3   OH242964   4.914   3.075   2.311 -0.7530 -1.1438 -0.5661
 7158TIP3    H142965   4.825   3.103   2.289 -0.4569 -0.0300 -0.4237
 7158TIP3    H242966   4.904   3.021   2.389 -1.1765  0.1228  0.2808
 7159TIP3   OH242967   1.676   4.201  15.871  0.5571 -0.4933  0.1788
 7159TIP3    H142968   1.766   4.230  15.887  0.0390  1.2090  0.2269
 7159TIP3    H242969   1.682   4.147  15.792  1.6757 -0.8073  0.4591
 7160TIP3   OH242970   4.465   4.017  16.915  0.5195 -0.4829  0.1142
 7160TIP3    H142971   4.527   3.948  16.893  0.5716 -1.1657  2.2166
 7160TIP3    H242972   4.504   4.062  16.990 -0.9785 -0.2034  0.7743
 7161TIP3   OH242973   2.495   0.360   3.900  0.6474 -0.4048  0.7571
 7161TIP3    H142974   2.581   0.357   3.942  0.2828  2.0676  1.8577
 7161TIP3    H242975   2.435   0.388   3.969 -0.6707 -0.0050 -0.4869
 7162TIP3   OH242976   0.311   3.493   0.588  0.2206 -0.3555 -0.0089
 7162TIP3    H142977   0.232   3.506   0.536 -0.1056  1.4785  0.8714
 7162TIP3    H242978   0.381   3.486   0.523 -0.2521  1.3077 -0.7562
 7163TIP3   OH242979   0.792   2.827  15.716  0.4114  0.7697  0.0805
 7163TIP3    H142980   0.838   2.869  15.788 -0.5745  1.2234  0.4637
 7163TIP3    H242981   0.739   2.759  15.758  0.1248  0.7826 -0.2514
 7164TIP3   OH242982   5.941   1.641  14.380 -0.5275 -1.0728 -0.0460
 7164TIP3    H142983   5.901   1.568  14.333  2.6856 -2.2163 -1.3031
 7164TIP3    H242984   6.033   1.641  14.351  0.1019  2.2426  1.4345
 7165TIP3   OH242985   3.906   1.889   4.973  0.3609  0.0250 -0.0682
 7165TIP3    H142986   3.918   1.937   5.055  1.7848  0.1540 -0.3194
 7165TIP3    H242987   3.934   1.950   4.905 -0.8796 -0.0542 -0.6715
 7166TIP3   OH242988   6.625   3.435   4.414 -0.2696  0.4030  0.0212
 7166TIP3    H142989   6.695   3.446   4.479  0.4586 -2.8504 -0.0420
 7166TIP3    H242990   6.672   3.426   4.331 -1.0165  1.3230 -0.5205
 7167TIP3   OH242991   1.666   6.464  14.096 -0.1976 -0.4013 -0.4207
 7167TIP3    H142992   1.624   6.441  14.012  1.3170  0.3568 -1.4303
 7167TIP3    H242993   1.620   6.543  14.125 -0.0450 -0.0638 -1.0804
 7168TIP3   OH242994   5.337   1.164  12.113  0.6866 -0.6342 -0.4688
 7168TIP3    H142995   5.330   1.255  12.083  0.5037 -0.4107  0.2226
 7168TIP3    H242996   5.365   1.115  12.036  0.3337 -0.0624 -0.9682
 7169TIP3   OH242997   2.655   1.388   4.470  0.1397  0.3387 -0.6363
 7169TIP3    H142998   2.720   1.445   4.510  2.0024 -1.7624 -0.4663
 7169TIP3    H242999   2.629   1.433   4.390  1.3409  1.5277 -0.3893
 7170TIP3   OH243000   2.255   2.454   4.811 -0.1375 -0.5039  0.5562
 7170TIP3    H143001   2.312   2.520   4.850 -1.4726  0.0940  1.5350
 7170TIP3    H243002   2.264   2.378   4.869 -0.9575 -0.1280  1.1868
 7171TIP3   OH243003   5.316   6.402   4.315 -0.5269 -0.2631 -0.8466
 7171TIP3    H143004   5.398   6.443   4.289 -1.0444  0.4648 -1.3785
 7171TIP3    H243005   5.342   6.324   4.364  0.5646  1.7301  2.0453
 7172TIP3   OH243006   5.627   5.973  10.599 -0.5621  0.4556 -0.3805
 7172TIP3    H143007   5.603   5.942  10.687 -0.1217 -0.6123 -0.6161
 7172TIP3    H243008   5.715   6.010  10.610 -0.2746 -0.1844 -0.4644
 7173TIP3   OH243009   4.016   2.009   3.279 -0.0131 -0.3672 -0.1226
 7173TIP3    H143010   4.066   1.983   3.356  2.2772 -0.4936 -1.5833
 7173TIP3    H243011   4.008   2.104   3.286  0.8028 -0.3004 -0.0866
 7174TIP3   OH243012   2.878   6.584   2.904 -0.0846  0.4923 -0.4899
 7174TIP3    H143013   2.807   6.610   2.845  1.4797  1.0365 -2.2381
 7174TIP3    H243014   2.927   6.518   2.855  0.1322 -0.5455  1.0519
 7175TIP3   OH243015   0.943   0.579   0.758  0.3992  0.4141 -0.2485
 7175TIP3    H143016   1.032   0.573   0.793 -0.1900  0.5735  1.4084
 7175TIP3    H243017   0.946   0.535   0.674  2.0106  0.2943 -0.1513
 7176TIP3   OH243018   0.506   4.269   1.618  0.7065 -0.3605 -0.8455
 7176TIP3    H143019   0.450   4.207   1.665  0.8200  0.7620  0.8950
 7176TIP3    H243020   0.471   4.271   1.529  0.6440 -2.7948 -0.9308
 7177TIP3   OH243021   3.063   6.744   5.657 -1.1917 -0.3172  1.0613
 7177TIP3    H143022   3.037   6.664   5.612  2.9621 -1.0940 -0.3656
 7177TIP3    H243023   3.029   6.815   5.602 -1.2084 -1.1798 -0.0782
 7178TIP3   OH243024   4.287   0.851   1.534 -0.2515  0.1103 -0.4612
 7178TIP3    H143025   4.241   0.774   1.569  0.4562  0.7273  1.9927
 7178TIP3    H243026   4.348   0.814   1.469  1.4467 -1.7432  1.9887
 7179TIP3   OH243027   6.795   5.904  12.224 -0.4503 -0.1449  0.6386
 7179TIP3    H143028   6.811   5.984  12.175  1.1709  0.1287  1.5541
 7179TIP3    H243029   6.701   5.888  12.214 -0.4032  0.6427 -1.3668
 7180TIP3   OH243030   0.261   1.428  14.997 -0.1066  0.5671 -0.1329
 7180TIP3    H143031   0.344   1.470  15.019  0.0862 -0.0018  0.2649
 7180TIP3    H243032   0.210   1.434  15.078  0.7498 -1.8887  0.6783
 7181TIP3   OH243033   2.572   1.693   5.686  0.1713 -0.0043  0.1718
 7181TIP3    H143034   2.640   1.714   5.750  0.5237  0.3972 -0.3164
 7181TIP3    H243035   2.598   1.608   5.650  0.3934  0.1255  0.0211
 7182TIP3   OH243036   4.883   3.274  11.697 -0.3911 -0.2313  0.4425
 7182TIP3    H143037   4.898   3.282  11.603 -0.4752  0.8857  0.5148
 7182TIP3    H243038   4.923   3.190  11.721  1.7263  0.5611 -0.1629
 7183TIP3   OH243039   4.533   0.278  14.364 -0.2421 -0.5142 -0.2915
 7183TIP3    H143040   4.555   0.367  14.392 -3.3925  0.1864  0.4268
 7183TIP3    H243041   4.551   0.224  14.440 -0.3623 -0.1079  0.0307
 7184TIP3   OH243042   0.981   0.781   4.026 -0.4146  0.1165  0.2638
 7184TIP3    H143043   0.897   0.779   4.073  0.0228 -2.5503  1.0791
 7184TIP3    H243044   1.039   0.832   4.082 -1.3083  1.4609 -0.0065
 7185TIP3   OH243045   2.441   4.788   4.440  0.1014  0.2034  0.2071
 7185TIP3    H143046   2.487   4.705   4.430  1.3029  0.6963  1.2742
 7185TIP3    H243047   2.421   4.815   4.351 -0.2293 -1.1773 -0.1590
 7186TIP3   OH243048   2.069   1.125  13.191  0.3249  0.4157 -0.6316
 7186TIP3    H143049   1.980   1.154  13.169  0.4277  0.1989 -1.3830
 7186TIP3    H243050   2.086   1.054  13.128  1.9410  2.0524 -2.1388
 7187TIP3   OH243051   2.676   3.465  11.619 -0.1476  0.3380  0.2164
 7187TIP3    H143052   2.619   3.397  11.654 -0.0989 -0.1557 -0.6178
 7187TIP3    H243053   2.632   3.493  11.538 -0.5597  1.8503  0.9298
 7188TIP3   OH243054   0.903   3.790   0.951  0.3329 -0.2296 -0.2427
 7188TIP3    H143055   0.991   3.772   0.917  0.5836  0.2543  0.1378
 7188TIP3    H243056   0.914   3.788   1.046  0.3848  1.8772 -0.1625
 7189TIP3   OH243057   2.793   5.344   2.464  0.3498  0.2303  0.4306
 7189TIP3    H143058   2.719   5.290   2.491 -1.0468  2.4815  1.3757
 7189TIP3    H243059   2.841   5.361   2.545  0.2755  1.0628  0.3118
 7190TIP3   OH243060   3.842   1.277  14.284 -0.3018  0.0036 -0.2447
 7190TIP3    H143061   3.884   1.192  14.270 -0.8484 -0.3492  0.2219
 7190TIP3    H243062   3.907   1.341  14.255  0.8161 -0.5045  1.0344
 7191TIP3   OH243063   4.701   4.516   2.687  0.7137 -0.2456 -0.4325
 7191TIP3    H143064   4.741   4.556   2.765 -1.2765  2.2883 -0.5832
 7191TIP3    H243065   4.616   4.484   2.717  1.1912 -2.1530 -0.9407
 7192TIP3   OH243066   6.317   1.328   1.297  0.0824 -0.1540 -0.0892
 7192TIP3    H143067   6.394   1.346   1.350 -0.9322  1.2220  1.0057
 7192TIP3    H243068   6.348   1.269   1.229  2.0965  0.3817  0.2930
 7193TIP3   OH243069   0.512   6.351  16.286 -0.1389  0.2807  0.4414
 7193TIP3    H143070   0.482   6.410  16.355 -0.0743 -1.5576  2.1522
 7193TIP3    H243071   0.502   6.264  16.324  2.2459 -0.6949 -0.9614
 7194TIP3   OH243072   0.565   2.812  12.945 -0.1674 -0.1378  1.3385
 7194TIP3    H143073   0.530   2.901  12.951 -0.4486 -0.1809  0.4825
 7194TIP3    H243074   0.533   2.769  13.025 -2.1786 -0.1884  0.5722
 7195TIP3   OH243075   3.765   3.514   5.756  1.2459  0.4216  0.2951
 7195TIP3    H143076   3.846   3.518   5.705  1.1241 -1.2240 -0.0792
 7195TIP3    H243077   3.732   3.425   5.743 -1.3489  1.4214 -0.6536
 7196TIP3   OH243078   4.426   5.719   0.150 -0.1718  0.5139 -0.8026
 7196TIP3    H143079   4.382   5.697   0.232 -0.7502  0.2978 -1.1611
 7196TIP3    H243080   4.356   5.720   0.085  0.3860 -0.0552 -1.4296
 7197TIP3   OH243081   3.031   0.366   2.868 -0.1937  0.2842  0.6962
 7197TIP3    H143082   3.116   0.378   2.912 -0.5173 -1.4729  1.9174
 7197TIP3    H243083   3.053   0.338   2.780  0.4744  1.8362  0.3349
 7198TIP3   OH243084   4.341   5.824  15.525 -0.6981 -0.7071  0.4528
 7198TIP3    H143085   4.363   5.869  15.443 -0.4166 -1.3562  0.1581
 7198TIP3    H243086   4.250   5.798  15.514 -1.6290  1.7982  1.5852
 7199TIP3   OH243087   3.205   1.971  13.852 -0.7744 -0.0400 -0.3015
 7199TIP3    H143088   3.115   1.938  13.857 -0.7928  0.0111 -0.2933
 7199TIP3    H243089   3.205   2.050  13.905 -0.8109  0.1486 -0.5786
 7200TIP3   OH243090   0.402   5.743  16.855 -0.0510  0.1223  0.1168
 7200TIP3    H143091   0.492   5.765  16.879  0.3277 -0.2275 -0.9260
 7200TIP3    H243092   0.406   5.650  16.831 -0.6562  0.1540 -0.1010
 7201TIP3   OH243093   4.193   2.007   0.262  0.1740  0.5942 -0.4054
 7201TIP3    H143094   4.254   2.032   0.193  0.1440  0.7187 -0.3867
 7201TIP3    H243095   4.111   2.051   0.239 -0.6766 -1.5616 -1.8256
 7202TIP3   OH243096   0.632   3.797   5.966  0.0655 -0.1217  0.0821
 7202TIP3    H143097   0.575   3.870   5.943  0.8815  0.6324  0.4251
 7202TIP3    H243098   0.716   3.837   5.987  0.5316 -1.1584  0.2682
 7203TIP3   OH243099   2.508   1.461   2.873  0.0831  0.3381 -0.3610
 7203TIP3    H143100   2.534   1.429   2.786  2.4224  1.0225  0.0184
 7203TIP3    H243101   2.449   1.534   2.855  0.3383  0.3107 -1.3871
 7204TIP3   OH243102   3.164   5.720  11.903 -0.3072 -0.7258  0.3467
 7204TIP3    H143103   3.242   5.774  11.918 -0.4015 -0.6719  0.6563
 7204TIP3    H243104   3.093   5.783  11.893 -0.0713 -0.7126 -1.5069
 7205TIP3   OH243105   3.431   2.399  10.500 -0.4259  0.6025  0.6140
 7205TIP3    H143106   3.464   2.310  10.513  1.3704  0.1824 -4.5070
 7205TIP3    H243107   3.337   2.388  10.483 -0.2064 -0.4115 -0.0660
 7206TIP3   OH243108   4.569   4.382  14.352  0.0353 -0.3990 -0.1247
 7206TIP3    H143109   4.653   4.402  14.311  0.1044  0.2290  0.3136
 7206TIP3    H243110   4.590   4.314  14.416 -0.0214 -1.1637 -0.8963
 7207TIP3   OH243111   4.460   2.710   1.059 -0.2300  0.1851  0.3903
 7207TIP3    H143112   4.489   2.701   1.150  0.7432  2.4586  0.3640
 7207TIP3    H243113   4.378   2.659   1.055  1.2969 -2.6192  1.6569
 7208TIP3   OH243114   5.965   3.252  14.519 -0.3874  1.1971 -0.6716
 7208TIP3    H143115   5.971   3.221  14.609 -0.4033  0.1741 -1.0158
 7208TIP3    H243116   6.053   3.240  14.484 -0.8281 -0.2506 -1.3663
 7209TIP3   OH243117   5.705   2.474   2.286  0.3289  0.0765  0.4961
 7209TIP3    H143118   5.698   2.486   2.191  0.0673 -0.7019  0.4098
 7209TIP3    H243119   5.792   2.436   2.299  0.7039  0.9587  0.6593
 7210TIP3   OH243120   6.468   1.086   0.729  0.2660 -0.9739  0.3465
 7210TIP3    H143121   6.477   1.113   0.638  0.4855 -0.5084  0.4976
 7210TIP3    H243122   6.503   1.160   0.779  0.6474 -1.4454  0.7921
 7211TIP3   OH243123   6.074   5.669   1.361  0.5893 -0.4200  0.1011
 7211TIP3    H143124   6.067   5.763   1.378 -1.8710 -0.6337  0.6682
 7211TIP3    H243125   5.994   5.647   1.314  0.4433 -2.4422  1.1546
 7212TIP3   OH243126   4.737   4.433  11.744 -0.2669 -0.1320  0.6497
 7212TIP3    H143127   4.822   4.456  11.707 -0.8462  0.8182 -0.1329
 7212TIP3    H243128   4.682   4.511  11.730 -0.8106 -0.1040  2.6022
 7213TIP3   OH243129   2.059   1.245   4.837  0.5009  0.3391  0.3672
 7213TIP3    H143130   2.134   1.197   4.801  0.7223 -0.0904  1.3716
 7213TIP3    H243131   2.098   1.315   4.890  0.1921  2.1099 -1.5944
 7214TIP3   OH243132   0.009   3.668   1.987 -0.6854 -0.6131 -0.2543
 7214TIP3    H143133   0.004   3.705   1.899  0.0229 -1.6828 -0.7668
 7214TIP3    H243134   0.077   3.719   2.031 -0.9012 -0.2090 -0.3835
 7215TIP3   OH243135   0.234   1.191  10.314 -0.1444 -0.2561  0.2914
 7215TIP3    H143136   0.321   1.164  10.286 -0.1209  1.9815 -2.1771
 7215TIP3    H243137   0.246   1.280  10.347 -1.4964  0.1256 -0.1848
 7216TIP3   OH243138   4.174   1.425   1.039  0.1939 -0.2374  0.0573
 7216TIP3    H143139   4.110   1.436   0.969  1.0266 -2.4890 -1.1574
 7216TIP3    H243140   4.193   1.514   1.068 -0.6593  0.7301 -2.1232
 7217TIP3   OH243141   6.451   1.047   3.644 -0.3085  0.6253  0.1922
 7217TIP3    H143142   6.455   1.006   3.558 -1.5275  0.9008 -0.0130
 7217TIP3    H243143   6.389   1.119   3.634 -0.3379  0.7695  1.2565
 7218TIP3   OH243144   3.634   0.995  15.141  0.6365 -0.8897 -0.1901
 7218TIP3    H143145   3.613   0.943  15.064  1.2445 -0.5086 -0.6249
 7218TIP3    H243146   3.554   1.042  15.161  0.9015  0.2184 -1.5609
 7219TIP3   OH243147   1.573   1.080   2.475 -0.6815  0.4353 -0.4003
 7219TIP3    H143148   1.504   1.146   2.471 -0.2335  1.0950  1.6753
 7219TIP3    H243149   1.640   1.113   2.415 -1.7824  0.1563 -1.8733
 7220TIP3   OH243150   6.157   5.381  14.912  0.3696  0.2886  0.3844
 7220TIP3    H143151   6.173   5.374  15.006  1.3726  0.5513  0.2369
 7220TIP3    H243152   6.067   5.415  14.906  0.3052  0.2946  1.2406
 7221TIP3   OH243153   2.739   4.875   3.474  0.8204 -0.3081  0.2964
 7221TIP3    H143154   2.818   4.930   3.472 -0.6082  1.8831 -1.4275
 7221TIP3    H243155   2.687   4.911   3.547  0.0242  0.4836 -0.6291
 7222TIP3   OH243156   1.671   2.092  12.532 -0.4107  0.5322  1.0281
 7222TIP3    H143157   1.765   2.073  12.539 -0.4981  0.5470  2.5087
 7222TIP3    H243158   1.630   2.041  12.601 -1.4238  1.0467  0.8369
 7223TIP3   OH243159   5.790   5.602  15.650 -0.7442  0.3652  0.2486
 7223TIP3    H143160   5.875   5.583  15.690 -0.8015 -1.6789 -0.4924
 7223TIP3    H243161   5.764   5.686  15.688  2.0842  1.6134 -0.3144
 7224TIP3   OH243162   5.061   1.524  12.127  0.8503 -0.2582 -0.0525
 7224TIP3    H143163   5.001   1.534  12.053 -1.1747 -0.2244  1.5101
 7224TIP3    H243164   5.055   1.431  12.150  0.4432 -0.0209  0.8580
 7225TIP3   OH243165   0.186   4.022   2.874 -0.1007 -0.3802  0.7021
 7225TIP3    H143166   0.157   4.021   2.966  0.6533 -0.2612  0.9507
 7225TIP3    H243167   0.116   4.067   2.827  0.0167  0.5760  1.4082
 7226TIP3   OH243168   6.170   1.513   6.183 -0.2370  0.1983  0.6013
 7226TIP3    H143169   6.147   1.433   6.135 -0.2983 -0.6289  1.9407
 7226TIP3    H243170   6.265   1.506   6.196 -0.0656  0.8926 -0.2030
 7227TIP3   OH243171   1.198   5.442  14.204  0.6771 -0.1145  0.5238
 7227TIP3    H143172   1.183   5.359  14.158  0.5265 -1.0986  2.2321
 7227TIP3    H243173   1.125   5.498  14.178 -0.3450 -1.2463  0.8456
 7228TIP3   OH243174   4.021   1.444   5.804  0.6150 -0.1123  0.1335
 7228TIP3    H143175   4.049   1.528   5.768  1.0085 -0.4299 -0.3191
 7228TIP3    H243176   3.939   1.463   5.849  0.3595  0.3940 -0.5281
 7229TIP3   OH243177   5.831   4.810  15.569 -0.2566  0.0843 -0.4331
 7229TIP3    H143178   5.924   4.834  15.575 -0.2073  0.0897 -1.1013
 7229TIP3    H243179   5.830   4.715  15.581 -0.0468 -0.0528 -1.3895
 7230TIP3   OH243180   3.224   4.861  15.953 -0.3215  0.3255  0.3226
 7230TIP3    H143181   3.200   4.941  15.906 -1.2194  0.1664  0.4898
 7230TIP3    H243182   3.191   4.875  16.042 -1.7262 -0.7805  0.0061
 7231TIP3   OH243183   0.602   5.668   3.843  0.0610  0.1894  0.5174
 7231TIP3    H143184   0.690   5.639   3.818  0.1315  0.6352  0.2466
 7231TIP3    H243185   0.575   5.605   3.910  0.1664 -0.5740 -0.1345
 7232TIP3   OH243186   2.111   0.460  13.289 -0.1237 -0.1448  0.4347
 7232TIP3    H143187   2.077   0.370  13.291  0.1514 -0.2516  1.5699
 7232TIP3    H243188   2.070   0.501  13.214 -0.8543 -0.9976  0.3595
 7233TIP3   OH243189   4.795   5.924  14.268 -0.0123 -0.3031  0.2129
 7233TIP3    H143190   4.825   5.842  14.307  0.5290  0.1915  0.8612
 7233TIP3    H243191   4.721   5.951  14.321 -1.6690 -1.5144 -1.3786
 7234TIP3   OH243192   2.790   6.098   6.774 -0.5726  0.0585 -0.0616
 7234TIP3    H143193   2.750   6.106   6.861 -0.3492  2.2777 -0.0908
 7234TIP3    H243194   2.837   6.181   6.762  1.5891 -1.2389 -1.2480
 7235TIP3   OH243195   5.797   0.495   2.201 -0.7431 -0.3286  0.2547
 7235TIP3    H143196   5.832   0.430   2.261  0.1776  0.4421  0.5828
 7235TIP3    H243197   5.855   0.491   2.125  0.6506  1.5419  1.1495
 7236TIP3   OH243198   2.828   1.086   5.776  0.0284 -0.6977  0.3647
 7236TIP3    H143199   2.811   1.022   5.845 -1.6541  0.7732  1.3745
 7236TIP3    H243200   2.870   1.035   5.707  0.8179 -2.4286  2.0259
 7237TIP3   OH243201   3.951   3.377  13.325  0.2813 -0.7118  0.2758
 7237TIP3    H143202   3.858   3.380  13.346  0.3658  1.4694  0.6146
 7237TIP3    H243203   3.961   3.300  13.270 -1.6671 -1.1602  0.4839
 7238TIP3   OH243204   0.066   1.778   2.531  0.7083  0.4528 -0.4861
 7238TIP3    H143205   0.120   1.812   2.603  1.0110  0.4239 -0.6992
 7238TIP3    H243206  -0.019   1.759   2.572  0.7579  0.8013 -0.2179
 7239TIP3   OH243207   6.417   2.828  12.193 -0.4750  0.0538  0.8313
 7239TIP3    H143208   6.347   2.786  12.243 -2.1236  1.6421 -0.0154
 7239TIP3    H243209   6.451   2.895  12.252  0.6703 -0.9934  1.3972
 7240TIP3   OH243210   4.650   1.834   4.263  0.4301 -0.3954 -0.2930
 7240TIP3    H143211   4.740   1.828   4.234  0.3039 -0.2042 -0.7382
 7240TIP3    H243212   4.630   1.748   4.301  0.5079 -0.7528 -1.0446
 7241TIP3   OH243213   3.385   0.984  16.651  0.5220  0.0328  0.3180
 7241TIP3    H143214   3.456   1.049  16.650 -0.2845  0.9285 -0.7259
 7241TIP3    H243215   3.400   0.934  16.732  0.4381  2.3399  1.8445
 7242TIP3   OH243216   6.655   1.139   2.578  0.4601 -0.5051 -0.1136
 7242TIP3    H143217   6.699   1.222   2.595  0.5534 -0.3061 -1.2311
 7242TIP3    H243218   6.580   1.140   2.637  0.2557  0.5485 -0.3592
 7243TIP3   OH243219   5.012   4.665  16.707  0.1690  0.3815  0.0374
 7243TIP3    H143220   5.027   4.642  16.798  0.3505  0.8402  0.1244
 7243TIP3    H243221   5.003   4.581  16.662 -1.3022  0.1404  0.6999
 7244TIP3   OH243222   2.825   3.445  11.193 -1.0689  0.3392 -0.0805
 7244TIP3    H143223   2.894   3.509  11.211  0.4064 -1.0982 -0.4128
 7244TIP3    H243224   2.746   3.487  11.226  0.0620  1.7154  1.0798
 7245TIP3   OH243225   4.818   2.080  16.859  0.3109  0.2446  0.3296
 7245TIP3    H143226   4.855   2.022  16.926  2.0248  0.7669 -0.1029
 7245TIP3    H243227   4.781   2.020  16.794 -1.0900 -0.2699  1.5596
 7246TIP3   OH243228   4.537   3.601  16.096 -0.5279  0.5827  0.7729
 7246TIP3    H143229   4.541   3.668  16.165 -1.8331 -0.1411  1.5815
 7246TIP3    H243230   4.445   3.597  16.071  0.0089  1.3368 -1.5744
 7247TIP3   OH243231   6.462   2.481   2.896 -0.3348  0.0677  0.2278
 7247TIP3    H143232   6.530   2.415   2.899  1.3575  1.7413  0.7753
 7247TIP3    H243233   6.473   2.531   2.977 -0.9686  1.5546 -0.5623
 7248TIP3   OH243234   1.649   1.529   3.169  0.3292  0.1112  0.3102
 7248TIP3    H143235   1.694   1.553   3.088 -1.5523 -2.7608 -1.7618
 7248TIP3    H243236   1.621   1.439   3.156 -1.7041  0.1238  3.4308
 7249TIP3   OH243237   5.674   3.215   5.233  0.2250  0.7373  0.4501
 7249TIP3    H143238   5.758   3.170   5.227  0.2457  0.8083  0.1959
 7249TIP3    H243239   5.683   3.271   5.311 -0.1641 -0.4267  1.3602
 7250TIP3   OH243240   5.671   1.186   5.188 -0.0761  0.0435 -0.4864
 7250TIP3    H143241   5.738   1.151   5.129  0.4602  1.1150 -0.5412
 7250TIP3    H243242   5.716   1.254   5.238 -0.8344 -0.0188  0.3058
 7251TIP3   OH243243   1.804   6.725  15.397  0.0260 -0.4549 -0.0699
 7251TIP3    H143244   1.805   6.690  15.308 -0.3718  0.1291 -0.3044
 7251TIP3    H243245   1.855   6.661  15.448  0.8003 -0.4642 -0.8351
 7252TIP3   OH243246   2.956   0.082  16.166 -0.9621 -0.3523  0.0361
 7252TIP3    H143247   2.993   0.036  16.090 -1.2885 -0.2909 -0.1622
 7252TIP3    H243248   2.988   0.033  16.242  0.7397  0.5709 -0.0547
 7253TIP3   OH243249   5.481   3.136   1.792  0.4637 -0.3102  0.2434
 7253TIP3    H143250   5.463   3.133   1.886  0.2496  0.2868  0.2276
 7253TIP3    H243251   5.571   3.169   1.785 -0.1511  1.5065  0.2132
 7254TIP3   OH243252   0.051   0.728  11.610 -0.2590 -0.1721 -0.4212
 7254TIP3    H143253  -0.011   0.686  11.550 -2.7992 -0.0437  1.9225
 7254TIP3    H243254   0.019   0.818  11.619 -0.3216 -0.3388  1.4692
 7255TIP3   OH243255   2.760   4.628  16.194  0.3032  0.1268 -0.2399
 7255TIP3    H143256   2.803   4.543  16.183 -0.9488 -0.7016  0.8175
 7255TIP3    H243257   2.828   4.692  16.177  1.8272 -1.1025  0.8755
 7256TIP3   OH243258   0.753   1.604   1.672 -0.7717 -0.2989  0.0060
 7256TIP3    H143259   0.825   1.663   1.694 -1.3325 -0.1227  1.4532
 7256TIP3    H243260   0.796   1.531   1.627  0.3186 -0.1601  0.7609
 7257TIP3   OH243261   1.140   6.062   5.984  0.2125 -0.1358 -0.1509
 7257TIP3    H143262   1.076   5.992   5.970 -0.6634  0.6001  0.1328
 7257TIP3    H243263   1.224   6.017   5.982 -0.1941 -0.9410 -1.9649
 7258TIP3   OH243264   1.474   3.804   5.027  0.4060 -0.2833  0.1965
 7258TIP3    H143265   1.476   3.856   4.947 -1.9991  0.6210  0.6621
 7258TIP3    H243266   1.456   3.714   4.997 -0.6244  0.0739 -0.2872
 7259TIP3   OH243267   0.578   3.966   0.225 -0.1234 -0.1025 -0.1907
 7259TIP3    H143268   0.545   3.878   0.240 -2.1581  0.5151 -0.7481
 7259TIP3    H243269   0.673   3.959   0.239 -0.2739 -2.2882  0.0503
 7260TIP3   OH243270   6.510   2.173  14.912  0.2829 -0.0209 -0.5199
 7260TIP3    H143271   6.480   2.262  14.929  0.3257 -0.0607 -0.2424
 7260TIP3    H243272   6.436   2.117  14.935  0.5082 -0.1068  0.0104
 7261TIP3   OH243273   1.393   4.132  14.175  0.3047 -0.2184 -0.3550
 7261TIP3    H143274   1.442   4.091  14.245  2.4111  1.6180 -0.6587
 7261TIP3    H243275   1.301   4.125  14.203  0.9966 -0.3784  2.1103
 7262TIP3   OH243276   4.707   4.327  14.682 -0.4017 -0.3438 -0.2093
 7262TIP3    H143277   4.751   4.411  14.669  4.2018 -2.4175  0.1005
 7262TIP3    H243278   4.698   4.319  14.777  0.4088 -0.7209 -0.1578
 7263TIP3   OH243279   0.998   1.044  10.825 -0.2878 -0.1024  0.3407
 7263TIP3    H143280   0.942   1.034  10.747  0.6197 -1.1198 -0.2165
 7263TIP3    H243281   1.067   1.105  10.797 -0.9488  0.9352  0.9374
 7264TIP3   OH243282   5.269   1.622   3.717 -0.0965 -0.8206  0.3155
 7264TIP3    H143283   5.300   1.554   3.778 -0.0931  0.4228  1.7740
 7264TIP3    H243284   5.207   1.673   3.769 -1.8017 -1.0070 -1.4250
 7265TIP3   OH243285   4.820   1.622  10.859 -0.9128  0.0534  0.4398
 7265TIP3    H143286   4.820   1.632  10.955 -1.3469  2.4944  0.2377
 7265TIP3    H243287   4.858   1.703  10.826  0.5907 -1.3350 -1.4620
 7266TIP3   OH243288   0.740   0.631  12.967 -0.0981 -0.2287 -0.0209
 7266TIP3    H143289   0.818   0.632  12.910  0.0509  0.9462  0.1799
 7266TIP3    H243290   0.681   0.569  12.924 -0.7004  1.8560 -2.4730
 7267TIP3   OH243291   0.165   0.232  14.807 -0.0402 -0.1451 -0.2890
 7267TIP3    H143292   0.218   0.206  14.732 -1.3043  0.1938 -1.3459
 7267TIP3    H243293   0.188   0.324  14.822  0.7671 -0.4220  0.2474
 7268TIP3   OH243294   6.375   4.109  15.228  0.0273  0.3186 -0.0862
 7268TIP3    H143295   6.281   4.121  15.243  0.4393  1.3194  2.0574
 7268TIP3    H243296   6.417   4.165  15.293  2.1291 -0.4397 -0.7085
 7269TIP3   OH243297   3.353   1.263   1.013 -0.2814 -0.2701 -0.7660
 7269TIP3    H143298   3.266   1.268   1.053  0.7101 -0.0780  1.4891
 7269TIP3    H243299   3.384   1.353   1.012  1.0784 -0.6448  1.3540
 7270TIP3   OH243300   5.550   6.723  13.246  0.5592  0.3662 -0.5357
 7270TIP3    H143301   5.615   6.793  13.251  0.9058  0.0005  0.2601
 7270TIP3    H243302   5.484   6.756  13.186  0.8229  1.2922 -0.3330
 7271TIP3   OH243303   2.824   4.172   1.356 -0.3821 -0.2178  0.0737
 7271TIP3    H143304   2.733   4.185   1.328 -0.0144  1.8015 -0.3349
 7271TIP3    H243305   2.862   4.119   1.287 -1.0741 -0.4792 -0.1185
 7272TIP3   OH243306   2.415   0.015  16.778  0.4587 -0.1360  0.0704
 7272TIP3    H143307   2.489   0.071  16.754  0.4864  0.0004  0.4664
 7272TIP3    H243308   2.339   0.059  16.741  0.4471  0.3154  0.6120
 7273TIP3   OH243309   0.023   6.712  15.460 -0.5583 -0.4444 -0.1479
 7273TIP3    H143310   0.067   6.639  15.502 -0.9607 -0.5404  0.1112
 7273TIP3    H243311   0.077   6.731  15.383 -0.1794 -0.6881  0.0531
 7274TIP3   OH243312   4.620   3.574  14.480  0.5233  0.3514  0.3371
 7274TIP3    H143313   4.607   3.553  14.572  1.0450 -1.1297  0.0954
 7274TIP3    H243314   4.614   3.490  14.434 -2.2735  1.3017 -1.3209
 7275TIP3   OH243315   6.219   3.357  15.620 -0.4332  0.6923 -0.3397
 7275TIP3    H143316   6.169   3.331  15.698 -0.0962  1.3470  0.1077
 7275TIP3    H243317   6.251   3.274  15.583  0.5850  0.4323  1.0290
 7276TIP3   OH243318   3.483   0.286   3.490 -0.1426 -0.1447 -0.4055
 7276TIP3    H143319   3.574   0.258   3.479  0.2742 -0.4560  2.9231
 7276TIP3    H243320   3.432   0.207   3.478  0.0160 -0.0488 -1.8901
 7277TIP3   OH243321   4.023   4.438   3.852 -0.5484  0.2248  0.2020
 7277TIP3    H143322   4.075   4.513   3.823 -0.7897  0.3320  0.0476
 7277TIP3    H243323   4.081   4.392   3.913 -0.8365  1.2204  1.2674
 7278TIP3   OH243324   2.127   6.510   2.203 -0.3176  0.2114  0.6865
 7278TIP3    H143325   2.075   6.516   2.123 -1.1791 -2.3435  0.9319
 7278TIP3    H243326   2.168   6.423   2.198  1.3783  0.8741  2.0188
 7279TIP3   OH243327   6.393   3.555  13.117  0.0086  0.6824 -0.1435
 7279TIP3    H143328   6.402   3.503  13.197  0.2165  1.6932  0.5251
 7279TIP3    H243329   6.483   3.570  13.088  0.0260  1.7343  0.4079
 7280TIP3   OH243330   4.542   0.982  16.353  0.0666  0.0145  0.0722
 7280TIP3    H143331   4.478   0.912  16.362 -0.2216  0.2670  0.0169
 7280TIP3    H243332   4.526   1.019  16.266 -0.7138  1.0410  0.6224
 7281TIP3   OH243333   1.504   0.878  17.161 -0.4564 -0.1079 -0.0939
 7281TIP3    H143334   1.570   0.928  17.209 -0.3445  0.4416 -0.8045
 7281TIP3    H243335   1.516   0.904  17.069 -1.0488 -0.7010 -0.3499
 7282TIP3   OH243336   0.734   5.041  13.039 -0.4765 -0.3799  0.0949
 7282TIP3    H143337   0.671   5.012  13.104  1.0612 -0.4148  1.6456
 7282TIP3    H243338   0.759   4.961  12.991 -1.2355 -0.4366 -0.2143
 7283TIP3   OH243339   3.176   6.530   1.729  0.7192 -0.2723  0.2060
 7283TIP3    H143340   3.172   6.450   1.677 -0.6623 -0.8518  1.1714
 7283TIP3    H243341   3.260   6.523   1.776  0.2220 -1.5955  0.9497
 7284TIP3   OH243342   0.583   0.766   3.924  0.4945 -0.4763 -0.0475
 7284TIP3    H143343   0.659   0.819   3.948  0.2792 -0.0211 -0.3610
 7284TIP3    H243344   0.612   0.676   3.936  0.0686 -0.3225  3.0767
 7285TIP3   OH243345   5.680   4.103  14.301  0.0966  0.1224  0.1701
 7285TIP3    H143346   5.741   4.090  14.374  1.5817  1.4225 -0.7815
 7285TIP3    H243347   5.689   4.195  14.279  0.2984 -0.3999 -2.1618
 7286TIP3   OH243348   2.334   5.920  16.131 -0.2013 -0.1968 -0.1014
 7286TIP3    H143349   2.363   5.859  16.063 -2.1917 -1.9393  0.5341
 7286TIP3    H243350   2.241   5.902  16.142 -0.5099  1.8880  1.2527
 7287TIP3   OH243351   4.447   4.805   0.039 -0.1286  0.5776 -0.9346
 7287TIP3    H143352   4.424   4.731   0.095  1.4452  0.0655 -0.9144
 7287TIP3    H243353   4.478   4.764  -0.042 -1.7496  1.2946 -1.9663
 7288TIP3   OH243354   1.901   2.870  14.442 -0.0762  0.2052  0.2153
 7288TIP3    H143355   1.929   2.949  14.395 -0.0001 -1.1635 -2.2104
 7288TIP3    H243356   1.982   2.825  14.465 -0.1389  0.1267  0.2827
 7289TIP3   OH243357   3.298   4.253   4.864  0.3939 -0.5238 -0.2238
 7289TIP3    H143358   3.255   4.180   4.819 -0.9108  0.0227  0.0657
 7289TIP3    H243359   3.380   4.266   4.817  0.2985 -1.6834 -0.7501
 7290TIP3   OH243360   6.315   6.073   1.978  0.3418 -0.2733 -0.1622
 7290TIP3    H143361   6.378   6.138   2.010 -1.1508  1.4711 -0.6120
 7290TIP3    H243362   6.234   6.093   2.025 -0.4687 -1.0382 -1.1880
 7291TIP3   OH243363   3.860   2.056   6.751 -0.1725  0.0680  0.0295
 7291TIP3    H143364   3.823   2.102   6.827  1.2388  0.5241  0.4645
 7291TIP3    H243365   3.932   2.111   6.722  1.3896 -1.6974  0.3666
 7292TIP3   OH243366   1.091   5.644   6.092 -0.2487 -0.0825 -0.5049
 7292TIP3    H143367   1.037   5.615   6.019 -2.0079 -0.0424  0.7100
 7292TIP3    H243368   1.075   5.580   6.161  0.0052  0.8241  0.4243
 7293TIP3   OH243369   5.322   5.177  12.312  0.2325 -0.5080 -0.2429
 7293TIP3    H143370   5.275   5.259  12.326  1.7459  0.3027  0.2814
 7293TIP3    H243371   5.415   5.201  12.316  0.7453 -1.8806 -2.2748
 7294TIP3   OH243372   4.940   0.118   0.577  0.5694 -0.9020 -0.5813
 7294TIP3    H143373   4.893   0.148   0.654  1.0913 -1.4055 -0.0618
 7294TIP3    H243374   4.892   0.157   0.503  1.4882  1.6411  0.0691
 7295TIP3   OH243375   2.817   2.143  15.421 -0.4288  0.6981  0.3555
 7295TIP3    H143376   2.781   2.202  15.355  0.7305  0.2134 -0.7552
 7295TIP3    H243377   2.832   2.200  15.497 -0.3306  1.6245 -0.3261
 7296TIP3   OH243378   0.787   0.170   3.155  0.0201 -0.0261 -1.0870
 7296TIP3    H143379   0.693   0.154   3.148  0.0601 -0.0790 -1.5164
 7296TIP3    H243380   0.814   0.197   3.067  0.0169  2.0630 -0.5173
 7297TIP3   OH243381   1.951   2.709   2.233  0.1683 -0.7159 -0.0877
 7297TIP3    H143382   2.035   2.699   2.277  0.4943  0.1133 -0.4961
 7297TIP3    H243383   1.953   2.799   2.198 -0.3152 -1.1406 -1.2592
 7298TIP3   OH243384   5.573   6.000   3.587 -0.0408 -0.6520 -0.8403
 7298TIP3    H143385   5.525   6.032   3.511 -0.3445  0.4847 -0.1911
 7298TIP3    H243386   5.524   5.922   3.615 -1.3971  0.3473 -0.3363
 7299TIP3   OH243387   0.523   5.480  10.799 -0.3877  0.0284  0.1651
 7299TIP3    H143388   0.573   5.423  10.858  0.7053 -0.3179 -1.0462
 7299TIP3    H243389   0.582   5.554  10.783 -0.5390 -0.0382 -0.7283
 7300TIP3   OH243390   0.421   3.607   4.043  0.0010  0.1715 -0.2818
 7300TIP3    H143391   0.385   3.520   4.062 -1.8933  0.9837 -0.0028
 7300TIP3    H243392   0.345   3.665   4.040  1.2998  2.0027  0.4596
 7301TIP3   OH243393   3.036   3.265  12.948  0.8589 -0.3954  0.5756
 7301TIP3    H143394   2.994   3.300  12.870  0.6189  1.2381  1.3923
 7301TIP3    H243395   2.979   3.195  12.978  0.5249 -0.4761 -0.2467
 7302TIP3   OH243396   4.541   1.146  12.626 -0.8486  0.0668 -0.2439
 7302TIP3    H143397   4.484   1.077  12.660 -1.2002  0.6667  0.4236
 7302TIP3    H243398   4.531   1.140  12.531 -1.0810 -0.6219 -0.1829
 7303TIP3   OH243399   2.405   4.411  15.619 -0.3112  0.9333 -0.1364
 7303TIP3    H143400   2.430   4.421  15.527 -0.0606 -0.0031 -0.1827
 7303TIP3    H243401   2.486   4.386  15.664 -1.1704 -3.1594 -0.4558
 7304TIP3   OH243402   2.054   3.984  13.918  0.1127 -0.2621 -0.1879
 7304TIP3    H143403   2.075   3.913  13.858 -0.1958 -1.0581  0.6209
 7304TIP3    H243404   1.969   3.960  13.955  0.2355  0.2816  0.4663
 7305TIP3   OH243405   5.568   1.075  11.614 -0.2595 -0.7184  0.3848
 7305TIP3    H143406   5.611   1.031  11.540  1.2272  0.0336  0.7708
 7305TIP3    H243407   5.601   1.165  11.611 -1.7901 -0.1243  0.7432
 7306TIP3   OH243408   0.810   3.962   3.225 -0.3541  0.2487  0.2995
 7306TIP3    H143409   0.812   3.988   3.317  2.3718 -2.0757  1.0461
 7306TIP3    H243410   0.729   3.912   3.216 -0.3667  0.0107  1.5873
 7307TIP3   OH243411   2.876   6.054   2.992  0.8474 -0.1804 -0.4170
 7307TIP3    H143412   2.872   5.959   2.987 -0.3664 -0.1016 -1.3929
 7307TIP3    H243413   2.795   6.084   2.950  2.4611  1.3537 -2.6853
 7308TIP3   OH243414   4.285   1.022  13.233 -0.2769 -0.9625  0.1412
 7308TIP3    H143415   4.251   0.968  13.162  0.1824  1.0230 -1.6959
 7308TIP3    H243416   4.378   1.034  13.212  0.1256 -1.1693  1.6586
 7309TIP3   OH243417   6.735   0.854  13.724  0.2493  0.0698 -0.3239
 7309TIP3    H143418   6.700   0.853  13.635 -0.5262  2.2074 -0.1067
 7309TIP3    H243419   6.817   0.904  13.717 -0.2459  0.9941  0.2702
 7310TIP3   OH243420   5.705   0.907  15.958  0.1131 -0.2833 -0.3088
 7310TIP3    H143421   5.614   0.898  15.987  0.1865 -1.7068 -0.4905
 7310TIP3    H243422   5.698   0.947  15.872 -0.1679  2.6311  0.9368
 7311TIP3   OH243423   6.274   1.638   1.059 -0.3601  0.0305  0.2367
 7311TIP3    H143424   6.278   1.637   1.155 -0.4773 -1.6441  0.2629
 7311TIP3    H243425   6.181   1.637   1.039 -0.3345 -0.7172  0.1322
 7312TIP3   OH243426   6.206   0.479  11.488  0.1423 -0.5088 -0.2997
 7312TIP3    H143427   6.153   0.526  11.424  0.6383  0.5289  0.0176
 7312TIP3    H243428   6.162   0.396  11.500 -0.3712 -0.4154 -1.4262
 7313TIP3   OH243429   0.026   2.754   3.726  0.1052  0.4690  0.0404
 7313TIP3    H143430   0.017   2.823   3.791  0.1743 -0.0448  0.6134
 7313TIP3    H243431  -0.054   2.703   3.734 -0.5294  1.2142 -1.2773
 7314TIP3   OH243432   1.795   0.513   5.756 -0.6111  0.2959 -0.4835
 7314TIP3    H143433   1.762   0.524   5.845 -0.5320  0.0714 -0.4265
 7314TIP3    H243434   1.845   0.431   5.758 -0.3452  0.4525 -0.6560
 7315TIP3   OH243435   4.552   5.393  17.057 -0.4671  0.0992 -0.1136
 7315TIP3    H143436   4.467   5.437  17.060  0.0743  1.2135 -0.2311
 7315TIP3    H243437   4.532   5.300  17.060 -1.6453  0.3617  0.7130
 7316TIP3   OH243438   5.530   5.461  15.330  0.3243 -0.4992 -0.5540
 7316TIP3    H143439   5.524   5.535  15.390  2.6723 -0.4418 -0.3238
 7316TIP3    H243440   5.536   5.384  15.387  0.8922 -0.5943 -0.7382
 7317TIP3   OH243441   2.979   6.315  17.102 -0.2438 -0.1814 -0.0445
 7317TIP3    H143442   2.957   6.376  17.173  1.8319  0.0196  0.5013
 7317TIP3    H243443   2.896   6.297  17.059 -1.2346  1.3912  1.0992
 7318TIP3   OH243444   3.661   1.724  13.728  0.5735  0.3825  0.1497
 7318TIP3    H143445   3.566   1.723  13.723  0.6008  0.3959 -0.4069
 7318TIP3    H243446   3.687   1.634  13.707  0.6777  0.3194  0.5324
 7319TIP3   OH243447   5.702   3.891   0.441  0.3711  0.2616 -0.6829
 7319TIP3    H143448   5.688   3.851   0.527 -1.2204 -0.2363 -1.1258
 7319TIP3    H243449   5.771   3.956   0.455  0.7420 -0.4084  0.7698
 7320TIP3   OH243450   1.629   5.731  16.419  0.2848  0.5157 -0.5324
 7320TIP3    H143451   1.687   5.768  16.353 -0.9917  0.8369 -1.5088
 7320TIP3    H243452   1.552   5.701  16.370 -1.3410  2.0611  0.9331
 7321TIP3   OH243453   1.147   0.958   3.664  0.2764 -0.4284 -0.4533
 7321TIP3    H143454   1.211   0.962   3.593  0.5893 -1.9866 -0.2995
 7321TIP3    H243455   1.141   1.048   3.696  2.1875 -0.1833 -0.6581
 7322TIP3   OH243456   4.467   3.008   5.755 -0.0920 -0.1303  0.1603
 7322TIP3    H143457   4.379   2.975   5.774 -0.4338  0.4466 -0.3809
 7322TIP3    H243458   4.517   2.930   5.728 -0.1307 -0.6341  1.4995
 7323TIP3   OH243459   6.662   5.631   3.619 -0.6358 -0.2602  0.2685
 7323TIP3    H143460   6.756   5.628   3.638 -0.6057 -1.5557 -0.0055
 7323TIP3    H243461   6.650   5.566   3.549 -1.3190  1.7433 -1.5969
 7324TIP3   OH243462   3.415   4.704   3.146 -0.3079  0.7107  0.6598
 7324TIP3    H143463   3.323   4.697   3.120 -0.4591  3.2765  0.2412
 7324TIP3    H243464   3.412   4.742   3.234  0.3613 -1.7585  1.8475
 7325TIP3   OH243465   1.164   5.346  16.314 -0.5790  0.0814 -0.1815
 7325TIP3    H143466   1.145   5.259  16.281  1.5687  0.2369 -2.0354
 7325TIP3    H243467   1.216   5.331  16.393  1.1568 -0.3789 -1.3710
 7326TIP3   OH243468   0.920   4.898   4.841 -0.2461  0.1698  0.0990
 7326TIP3    H143469   0.830   4.894   4.811 -0.1142 -0.2558 -0.2477
 7326TIP3    H243470   0.937   4.811   4.877  1.0124 -0.8490 -2.7075
 7327TIP3   OH243471   6.715   5.514   0.543  0.0196 -0.1743 -0.3989
 7327TIP3    H143472   6.751   5.497   0.630  1.0223 -2.5669 -1.2124
 7327TIP3    H243473   6.791   5.528   0.487 -0.5876  0.6913 -1.0363
 7328TIP3   OH243474   2.765   5.527   0.305 -0.4098  0.3652  0.3881
 7328TIP3    H143475   2.673   5.501   0.299 -0.6136  1.1261  0.0970
 7328TIP3    H243476   2.771   5.580   0.384 -0.5496  1.5629 -0.3804
 7329TIP3   OH243477   2.563   5.293  16.173 -0.0239 -0.5823  0.1084
 7329TIP3    H143478   2.543   5.276  16.265 -1.7547  0.8425  0.0450
 7329TIP3    H243479   2.478   5.287  16.129  0.3704  1.2251 -0.9795
 7330TIP3   OH243480   5.527   2.297   2.431 -0.1269  0.2017  0.6490
 7330TIP3    H143481   5.586   2.343   2.372 -0.4357 -1.0097 -0.6592
 7330TIP3    H243482   5.556   2.205   2.427  0.4192  0.2074  3.1130
 7331TIP3   OH243483   0.980   3.240   0.484  0.1335  0.3483  0.0510
 7331TIP3    H143484   1.001   3.222   0.575 -0.5873 -2.3052 -0.2305
 7331TIP3    H243485   0.922   3.169   0.458 -0.7581  1.7693 -2.1214
 7332TIP3   OH243486   4.521   0.765   5.306 -0.1006  0.6368 -0.2304
 7332TIP3    H143487   4.426   0.761   5.318 -0.0758 -2.3176 -0.2625
 7332TIP3    H243488   4.536   0.731   5.218  1.0669 -1.1070  0.5902
 7333TIP3   OH243489   2.984   3.421   1.956  0.5712  0.4540  0.3306
 7333TIP3    H143490   3.073   3.400   1.929  0.3276 -0.9725  0.5757
 7333TIP3    H243491   2.989   3.512   1.987  1.6464  0.8397 -0.8898
 7334TIP3   OH243492   1.709   5.817  14.032 -0.1081  0.2462 -0.5404
 7334TIP3    H143493   1.668   5.740  13.993  0.3552 -0.5122  0.4302
 7334TIP3    H243494   1.698   5.885  13.966 -1.8505 -0.2367 -0.8160
 7335TIP3   OH243495   0.426   6.768   3.767 -0.2255 -0.5780  0.4219
 7335TIP3    H143496   0.472   6.802   3.691 -1.6840 -0.5805 -0.5131
 7335TIP3    H243497   0.450   6.827   3.838 -0.6054  0.8135 -0.5621
 7336TIP3   OH243498   2.940   4.080   3.618  0.1585 -0.1047 -0.4401
 7336TIP3    H143499   2.881   4.155   3.625  1.1522  1.1282 -3.5157
 7336TIP3    H243500   3.025   4.113   3.647  0.0945 -0.8585  0.6720
 7337TIP3   OH243501   4.190   3.064   4.854 -0.1046  0.4490  0.2488
 7337TIP3    H143502   4.250   3.078   4.782 -0.0173  0.9542  0.4162
 7337TIP3    H243503   4.105   3.047   4.812 -0.0461  0.6985  0.0334
 7338TIP3   OH243504   0.930   2.528   4.121 -0.1624 -0.7500  0.0724
 7338TIP3    H143505   0.908   2.599   4.060  0.5661  0.1303  0.8054
 7338TIP3    H243506   0.846   2.503   4.159 -0.3580  0.1926  0.2917
 7339TIP3   OH243507   4.943   4.757   0.039  0.6096 -0.2761 -0.2836
 7339TIP3    H143508   4.895   4.792   0.114 -0.4966 -2.2663  0.0189
 7339TIP3    H243509   4.960   4.832  -0.017  0.5597  1.0987  1.4687
 7340TIP3   OH243510   0.693   5.254  14.845 -0.4831 -0.2037 -0.9339
 7340TIP3    H143511   0.609   5.217  14.871 -1.7368  2.9777  0.0935
 7340TIP3    H243512   0.736   5.276  14.928 -0.0757  1.0213 -1.4437
 7341TIP3   OH243513   5.451   6.386  13.519  0.5716 -0.1825 -0.5459
 7341TIP3    H143514   5.545   6.371  13.531  0.7045  0.9577 -0.0057
 7341TIP3    H243515   5.427   6.331  13.444  1.2705 -1.9292  0.4427
 7342TIP3   OH243516   6.151   3.622   4.434 -0.6634 -0.3264  0.5581
 7342TIP3    H143517   6.093   3.638   4.508 -0.4357  1.5538  0.3655
 7342TIP3    H243518   6.237   3.650   4.465 -0.7256  1.3768 -0.6761
 7343TIP3   OH243519   3.182   1.128   2.204 -0.1245  0.0228 -0.2756
 7343TIP3    H143520   3.164   1.120   2.298 -2.2897  0.4459 -0.5962
 7343TIP3    H243521   3.118   1.192   2.173  0.4838 -0.1833 -2.0624
 7344TIP3   OH243522   5.313   0.249   1.740  0.1129  0.0417 -0.1343
 7344TIP3    H143523   5.269   0.210   1.815  1.7811  0.1337  0.9258
 7344TIP3    H243524   5.320   0.342   1.761 -0.5377  0.3134 -1.0082
 7345TIP3   OH243525   3.918   5.568   5.884  0.3382 -0.0278 -0.1527
 7345TIP3    H143526   3.841   5.528   5.846  0.6804 -1.2357  0.3722
 7345TIP3    H243527   3.953   5.502   5.943  0.2942  1.4632  1.6416
 7346TIP3   OH243528   2.490   6.144  12.827  0.4406  0.4703  0.2314
 7346TIP3    H143529   2.442   6.124  12.907  0.2612 -0.5926 -0.1163
 7346TIP3    H243530   2.477   6.237  12.813 -1.8554  0.1550 -0.0541
 7347TIP3   OH243531   1.711   6.290   1.463  0.9848 -0.1310 -0.4190
 7347TIP3    H143532   1.758   6.220   1.507 -0.1773  0.0812  1.2928
 7347TIP3    H243533   1.717   6.269   1.370  2.9479 -0.9993 -0.1445
 7348TIP3   OH243534   1.105   4.038   3.492 -0.3277  0.0990 -0.4408
 7348TIP3    H143535   1.197   4.024   3.469 -0.6122 -2.0386 -0.4014
 7348TIP3    H243536   1.076   4.106   3.432  1.2498  0.7776 -0.4871
 7349TIP3   OH243537   5.950   6.519   3.816  0.7784 -0.2953 -0.1462
 7349TIP3    H143538   6.037   6.546   3.844  0.1952  0.1250  1.3233
 7349TIP3    H243539   5.947   6.425   3.835  1.0347 -0.4008 -0.5907
 7350TIP3   OH243540   4.089   3.508   1.124 -0.1054  0.4534 -0.7766
 7350TIP3    H143541   4.179   3.538   1.138 -0.3117  0.2710  1.2761
 7350TIP3    H243542   4.094   3.413   1.128 -0.2493  0.3893 -1.8121
 7351TIP3   OH243543   1.291   1.789   2.527  0.5512 -0.4423  0.0916
 7351TIP3    H143544   1.249   1.704   2.511  0.8805 -0.8116  1.1214
 7351TIP3    H243545   1.232   1.834   2.588 -0.3278  0.6616 -1.4897
 7352TIP3   OH243546   3.443   2.943   1.516  0.2926  0.7172 -0.3320
 7352TIP3    H143547   3.441   2.884   1.592  0.5982  0.0696 -0.8157
 7352TIP3    H243548   3.530   2.983   1.520  0.6949 -0.0686 -0.8871
 7353TIP3   OH243549   2.167   0.189  16.749 -0.4459 -0.2998 -0.2272
 7353TIP3    H143550   2.118   0.256  16.701 -0.2156  0.6904  0.8710
 7353TIP3    H243551   2.121   0.107  16.730 -2.2526  0.5239  0.3860
 7354TIP3   OH243552   3.764   4.993  11.276  0.5309  0.5848  0.0014
 7354TIP3    H143553   3.834   5.001  11.340  0.6462  2.5713 -0.3205
 7354TIP3    H243554   3.692   4.953  11.325  0.9657  1.0850  1.0834
 7355TIP3   OH243555   1.300   3.849   4.729 -0.3414  0.0962  0.8115
 7355TIP3    H143556   1.386   3.859   4.688 -0.1976 -1.4208  0.6919
 7355TIP3    H243557   1.238   3.851   4.656 -0.4290  1.1923  0.8983
 7356TIP3   OH243558   0.105   5.882  17.263  0.4828  0.2695  0.4975
 7356TIP3    H143559   0.174   5.836  17.217  0.7296  1.5142 -0.4357
 7356TIP3    H243560   0.109   5.848  17.352  1.3097 -0.7434  0.0994
 7357TIP3   OH243561   1.204   2.859  14.766  0.3920 -0.3876 -0.4491
 7357TIP3    H143562   1.191   2.808  14.686 -0.6826  2.9008 -2.5734
 7357TIP3    H243563   1.119   2.900  14.782  1.1396  0.6125  1.2237
 7358TIP3   OH243564   4.101   5.332  11.382  0.1660  0.0714  0.0100
 7358TIP3    H143565   4.135   5.255  11.336  1.3018 -0.7813  2.1602
 7358TIP3    H243566   4.179   5.381  11.408 -0.4755  0.8887  0.4351
 7359TIP3   OH243567   1.975   4.055   4.909  0.7211  0.4906 -0.4656
 7359TIP3    H143568   1.913   3.982   4.899 -0.3885  1.3388 -0.0145
 7359TIP3    H243569   1.920   4.134   4.902  2.1073  1.3531 -2.6201
 7360TIP3   OH243570   3.035   3.356  17.284 -0.0738 -0.1245 -0.2140
 7360TIP3    H143571   3.084   3.359  17.202  0.9969  0.0297  0.4196
 7360TIP3    H243572   2.966   3.422  17.273  0.7493  0.6899 -0.5550
 7361TIP3   OH243573   1.976   5.303  14.374  0.1328  0.1598  0.0078
 7361TIP3    H143574   2.008   5.265  14.292  3.2969  1.0628  0.6939
 7361TIP3    H243575   1.901   5.356  14.348  1.1246  0.5188 -2.3581
 7362TIP3   OH243576   2.992   6.524  15.010 -0.2109  0.8458  0.4230
 7362TIP3    H143577   3.034   6.582  14.945 -1.7312  1.9030  0.3292
 7362TIP3    H243578   3.046   6.534  15.088  2.4773 -1.5024 -0.9650
 7363TIP3   OH243579   3.129   1.608   5.329  0.2163  0.8652 -0.0286
 7363TIP3    H143580   3.104   1.699   5.313 -1.1645  0.8720  1.7154
 7363TIP3    H243581   3.047   1.565   5.353  0.8924 -0.7869 -0.5331
 7364TIP3   OH243582   2.214   4.265  15.345  0.1727  0.1986 -0.6178
 7364TIP3    H143583   2.302   4.303  15.342  1.2716 -2.1740 -0.6606
 7364TIP3    H243584   2.228   4.173  15.364 -2.3339 -0.2963 -0.7803
 7365TIP3   OH243585   4.972   4.500   1.380 -0.6729  0.1099 -0.2612
 7365TIP3    H143586   4.889   4.456   1.399 -0.8844  0.9469  0.9074
 7365TIP3    H243587   5.007   4.454   1.304 -1.3848 -1.3657  0.2623
 7366TIP3   OH243588   2.372   2.622   1.111 -0.1770 -0.0504  0.8221
 7366TIP3    H143589   2.354   2.666   1.194  0.6647 -0.4660  1.2415
 7366TIP3    H243590   2.468   2.623   1.104 -0.2650  0.8608 -0.6260
 7367TIP3   OH243591   5.470   2.120  13.163 -0.2630 -0.7759 -0.3729
 7367TIP3    H143592   5.454   2.197  13.216 -0.3762 -0.1244 -1.3177
 7367TIP3    H243593   5.490   2.050  13.226  1.4452  0.3909  0.4666
 7368TIP3   OH243594   2.718   0.549   4.537 -0.1889 -0.0148  0.2698
 7368TIP3    H143595   2.775   0.473   4.551  0.9814  0.7621 -0.2100
 7368TIP3    H243596   2.629   0.515   4.552  0.2854 -1.5527 -0.2353
 7369TIP3   OH243597   4.429   2.576  11.859 -0.0580  0.2621 -0.3565
 7369TIP3    H143598   4.471   2.611  11.780  0.7300  0.6717  0.2206
 7369TIP3    H243599   4.481   2.612  11.931  0.2023 -1.3367  0.3035
 7370TIP3   OH243600   0.299   4.950   4.465 -0.0307 -0.6270  0.2073
 7370TIP3    H143601   0.236   4.906   4.407 -1.3536  2.0070 -0.4847
 7370TIP3    H243602   0.381   4.951   4.415 -0.9373  0.8517 -1.3318
 7371TIP3   OH243603   0.121   2.190   5.014 -0.1429 -0.4743 -0.1318
 7371TIP3    H143604   0.075   2.247   5.076  1.6597  1.1182 -0.1708
 7371TIP3    H243605   0.074   2.201   4.932 -0.3847  0.2165  0.0939
 7372TIP3   OH243606   0.756   2.518  14.157 -0.1269 -0.0836  0.2567
 7372TIP3    H143607   0.714   2.604  14.163  0.5867  0.2209  1.0799
 7372TIP3    H243608   0.686   2.457  14.180 -0.3102  0.3757  0.9811
 7373TIP3   OH243609   0.086   0.218  12.385 -0.6284 -0.2489  0.0897
 7373TIP3    H143610   0.153   0.154  12.410 -1.4418 -1.1635  0.0139
 7373TIP3    H243611   0.079   0.209  12.290 -1.1722 -0.4945  0.1480
 7374TIP3   OH243612   5.815   2.052  15.033 -0.0996  0.1728  0.0914
 7374TIP3    H143613   5.728   2.022  15.007  0.5320 -0.2276 -1.7329
 7374TIP3    H243614   5.871   1.976  15.021  0.5692  0.4946  1.0236
 7375TIP3   OH243615   0.470   4.454  13.171 -0.2642  0.3460  0.4905
 7375TIP3    H143616   0.551   4.405  13.186 -0.3934 -0.3858 -1.0867
 7375TIP3    H243617   0.401   4.388  13.172 -0.8526  0.9399  1.5894
 7376TIP3   OH243618   1.640   1.052   2.141 -0.0222  0.1216 -0.0343
 7376TIP3    H143619   1.554   1.088   2.122  0.0173  0.3376  0.1858
 7376TIP3    H243620   1.670   1.101   2.218 -1.1884 -2.3008  2.1021
 7377TIP3   OH243621   6.657   6.444   5.538  0.0890 -0.3571  0.0049
 7377TIP3    H143622   6.654   6.484   5.625 -3.2918  2.1277 -1.0148
 7377TIP3    H243623   6.728   6.490   5.494  2.0618 -1.8767  1.4516
 7378TIP3   OH243624   0.498   2.818  14.103  0.3930 -0.3015 -0.2500
 7378TIP3    H143625   0.441   2.894  14.111 -0.5279 -1.1919  2.8491
 7378TIP3    H243626   0.441   2.748  14.070 -0.6033 -1.2680  3.1147
 7379TIP3   OH243627   5.190   4.939   2.082 -0.0933 -0.0785  0.8441
 7379TIP3    H143628   5.215   5.008   2.143  0.5497 -0.3864  0.9258
 7379TIP3    H243629   5.095   4.951   2.070 -0.2613 -0.1381  2.0379
 7380TIP3   OH243630   3.034   3.281   6.753  0.0443  0.1683 -0.3430
 7380TIP3    H143631   3.103   3.245   6.696  0.4526 -0.4973  0.5479
 7380TIP3    H243632   3.023   3.371   6.723  0.1922 -0.1778 -1.5242
 7381TIP3   OH243633   4.072   4.317  14.413  0.4534  0.1518  0.0099
 7381TIP3    H143634   4.056   4.286  14.324 -0.5516 -0.1130  0.2675
 7381TIP3    H243635   4.094   4.238  14.462  0.3570  0.2004  0.1329
 7382TIP3   OH243636   2.400   3.057  13.757  0.6643 -0.2124 -0.1079
 7382TIP3    H143637   2.472   3.038  13.696  1.0940  1.2941 -0.1260
 7382TIP3    H243638   2.336   2.988  13.741  0.6837  0.2140 -2.4262
 7383TIP3   OH243639   2.653   0.617   0.810 -0.1581 -1.0234  0.2899
 7383TIP3    H143640   2.669   0.559   0.885  0.0248  0.7056  1.6658
 7383TIP3    H243641   2.567   0.656   0.828  0.6784  0.7756  0.5833
 7384TIP3   OH243642   0.993   3.796  12.644 -0.0965  0.7057  0.1343
 7384TIP3    H143643   0.977   3.880  12.601 -1.4958 -0.2042 -1.2050
 7384TIP3    H243644   1.083   3.803  12.678  0.7426  1.8041 -2.1413
 7385TIP3   OH243645   0.590   2.744  16.502 -0.3041  0.0659  0.1673
 7385TIP3    H143646   0.669   2.797  16.510 -0.8593  1.0959 -0.8944
 7385TIP3    H243647   0.572   2.714  16.591  1.2603 -0.1825  0.4276
 7386TIP3   OH243648   3.999   4.934  16.142 -0.0153 -0.0530 -0.1796
 7386TIP3    H143649   4.052   4.855  16.130  0.8524  0.4588  0.1956
 7386TIP3    H243650   4.058   5.006  16.121 -1.2955  0.4782 -2.2292
 7387TIP3   OH243651   3.629   6.416   1.883  0.1473  0.1026  0.6098
 7387TIP3    H143652   3.681   6.428   1.962 -0.0071  1.5717  0.5128
 7387TIP3    H243653   3.694   6.404   1.813  0.2810 -1.5054  0.9643
 7388TIP3   OH243654   3.710   3.643  11.136 -0.2640 -0.2894  0.2488
 7388TIP3    H143655   3.781   3.695  11.175 -0.5773  0.2807  0.0761
 7388TIP3    H243656   3.753   3.589  11.071 -0.0464  0.4180 -0.2101
 7389TIP3   OH243657   3.840   0.801   2.375 -0.2682 -0.3171  0.5523
 7389TIP3    H143658   3.863   0.760   2.292  1.4522 -0.0077  0.8478
 7389TIP3    H243659   3.744   0.812   2.371 -0.2567 -0.6269 -1.2164
 7390TIP3   OH243660   4.138   6.358  17.132  0.0916 -0.2571  0.1705
 7390TIP3    H143661   4.183   6.407  17.064 -0.4451 -0.1709 -0.1286
 7390TIP3    H243662   4.098   6.284  17.086 -4.0423  2.0922 -0.5288
 7391TIP3   OH243663   3.346   0.170   3.200  0.6247 -0.0887  0.2309
 7391TIP3    H143664   3.360   0.076   3.216 -1.6425 -0.5328 -0.1272
 7391TIP3    H243665   3.304   0.202   3.280 -0.1273  0.2489 -0.2929
 7392TIP3   OH243666   3.995   0.920  10.915 -0.2817 -0.4412 -0.4282
 7392TIP3    H143667   3.985   0.938  10.822  0.4678  0.8133 -0.2877
 7392TIP3    H243668   4.086   0.894  10.925 -0.0153  0.6503  0.1229
 7393TIP3   OH243669   2.445   6.541  15.463  0.1556  0.2817  0.3972
 7393TIP3    H143670   2.516   6.605  15.462 -0.2844  0.7952 -1.1067
 7393TIP3    H243671   2.365   6.593  15.467 -0.1874 -0.1801 -0.1679
 7394TIP3   OH243672   6.219   2.405   0.378 -0.2575 -0.3934 -0.2407
 7394TIP3    H143673   6.133   2.425   0.340 -0.9053  0.1159  1.4001
 7394TIP3    H243674   6.269   2.485   0.368 -0.6901  0.0026  0.5998
 7395TIP3   OH243675   4.586   4.782   1.568 -0.3087 -0.0098 -0.2542
 7395TIP3    H143676   4.558   4.843   1.499  0.7037  0.2335 -0.4700
 7395TIP3    H243677   4.663   4.824   1.607 -1.1509  0.0940  1.3797
 7396TIP3   OH243678   1.830   1.482   4.071  0.0283 -0.3685 -0.2158
 7396TIP3    H143679   1.848   1.405   4.016 -1.0387 -0.8403  0.0746
 7396TIP3    H243680   1.805   1.445   4.156  1.3928  0.3473  0.5238
 7397TIP3   OH243681   4.690   1.085   5.737 -0.3722 -0.2387  0.1275
 7397TIP3    H143682   4.651   1.123   5.658 -2.0738 -2.0839  0.0079
 7397TIP3    H243683   4.639   1.122   5.809 -0.6974 -0.7141  0.1463
 7398TIP3   OH243684   3.620   4.320  14.779  0.3261  0.1586 -0.4828
 7398TIP3    H143685   3.611   4.415  14.783 -0.3010  0.2237 -2.5589
 7398TIP3    H243686   3.660   4.302  14.694  1.0053 -1.4145  0.1244
 7399TIP3   OH243687   0.750   4.813   0.241  0.5367 -0.0340 -0.1632
 7399TIP3    H143688   0.668   4.784   0.281  1.6517 -2.2253  0.7134
 7399TIP3    H243689   0.723   4.874   0.172 -1.5620  3.0258  2.9958
 7400TIP3   OH243690   4.007   3.643  15.120 -0.3631 -0.3157  0.3175
 7400TIP3    H143691   3.918   3.651  15.154 -0.4949 -0.7382  0.0768
 7400TIP3    H243692   4.006   3.562  15.070  0.0142 -0.0516 -0.1219
 7401TIP3   OH243693   0.488   4.538  12.895  0.2428  0.9518  0.2862
 7401TIP3    H143694   0.488   4.524  12.800  1.3637  0.2174  0.3647
 7401TIP3    H243695   0.416   4.484  12.927  1.3700 -0.7681  0.0640
 7402TIP3   OH243696   4.082   3.433  11.209 -0.1509 -0.0119  0.0920
 7402TIP3    H143697   4.081   3.347  11.250 -0.5568  0.8899  2.0809
 7402TIP3    H243698   4.012   3.429  11.144  0.3954 -1.4366 -0.4491
 7403TIP3   OH243699   2.757   6.384   4.246  0.0132 -0.2601 -0.1034
 7403TIP3    H143700   2.760   6.439   4.167  1.4362 -2.0671 -1.3906
 7403TIP3    H243701   2.696   6.429   4.304 -0.3297  1.6620 -1.8354
 7404TIP3   OH243702   1.002   0.826   3.371  0.6634 -0.1463  0.1771
 7404TIP3    H143703   0.974   0.915   3.355  0.2668 -0.5337 -1.3801
 7404TIP3    H243704   1.071   0.834   3.438  0.1816  1.2367  0.5286
 7405TIP3   OH243705   6.082   6.064   5.207 -0.1448  0.5524  0.5843
 7405TIP3    H143706   6.000   6.027   5.173 -0.5566  0.0812  1.9870
 7405TIP3    H243707   6.058   6.151   5.238 -1.2538 -0.9675  4.7401
 7406TIP3   OH243708   0.534   0.617   4.345  0.7625 -0.1552  0.0445
 7406TIP3    H143709   0.489   0.580   4.421 -0.6778  0.6145 -0.3941
 7406TIP3    H243710   0.481   0.591   4.270  1.0017  0.8018 -0.4799
 7407TIP3   OH243711   0.431   3.076  13.867  0.3748 -0.4900 -0.3702
 7407TIP3    H143712   0.355   3.116  13.909  0.2082 -1.1322 -0.0449
 7407TIP3    H243713   0.500   3.141  13.876 -0.2082  0.2128 -0.9154
 7408TIP3   OH243714   5.539   3.485   0.618  0.4542 -0.3558  0.1379
 7408TIP3    H143715   5.547   3.406   0.564 -1.6164 -0.2834 -0.3376
 7408TIP3    H243716   5.445   3.501   0.624  0.6846  4.1103 -2.8844
 7409TIP3   OH243717   0.582   4.344  15.064 -0.0096 -0.2820 -0.2447
 7409TIP3    H143718   0.606   4.384  14.980 -0.9001 -0.8694 -0.7885
 7409TIP3    H243719   0.497   4.382  15.085  1.2587  1.7559  1.6515
 7410TIP3   OH243720   0.829   5.421  11.227  0.4815 -0.7813 -0.0648
 7410TIP3    H143721   0.882   5.393  11.151  0.5029  0.0822 -0.3751
 7410TIP3    H243722   0.740   5.426  11.193  0.3370 -1.3056  0.2177
 7411TIP3   OH243723   1.279   1.884   2.918 -0.1071 -0.4570  0.4574
 7411TIP3    H143724   1.242   1.917   2.836 -2.0709  0.3889  1.5884
 7411TIP3    H243725   1.309   1.963   2.964 -0.5022 -0.7276  1.2056
 7412TIP3   OH243726   6.155   4.549   1.336  0.1716 -0.5362 -0.3847
 7412TIP3    H143727   6.177   4.502   1.416  0.6268 -0.1559 -0.2800
 7412TIP3    H243728   6.239   4.563   1.293  0.2287  1.2582  0.1973
 7413TIP3   OH243729   2.581   1.785  13.316  0.1396  0.2901  0.0377
 7413TIP3    H143730   2.626   1.853  13.266  0.2308 -0.2715 -0.6486
 7413TIP3    H243731   2.604   1.804  13.407  1.7026  0.0635 -0.2891
 7414TIP3   OH243732   5.366   2.163  14.997  0.7312 -0.3190 -0.1460
 7414TIP3    H143733   5.335   2.179  14.908  2.6768 -0.0612 -0.8219
 7414TIP3    H243734   5.435   2.228  15.010 -0.2261  0.3921  1.9794
 7415TIP3   OH243735   1.031   1.689  12.890 -1.1936  0.4187 -0.5464
 7415TIP3    H143736   0.959   1.680  12.953 -0.1609 -0.2854  0.5735
 7415TIP3    H243737   1.019   1.616  12.830 -2.1067  1.0155 -1.1251
 7416TIP3   OH243738   3.775   2.973   1.215  0.1963  0.2155  0.2916
 7416TIP3    H143739   3.824   3.013   1.143  1.9929  1.9852  2.3361
 7416TIP3    H243740   3.684   2.977   1.187  0.5906  3.1017 -0.9084
 7417TIP3   OH243741   5.549   4.013  17.141  0.2040  0.3420 -0.0267
 7417TIP3    H143742   5.535   4.107  17.147  1.7385  0.6300 -0.3799
 7417TIP3    H243743   5.639   4.000  17.171  0.5965 -0.7918 -1.5364
 7418TIP3   OH243744   0.369   2.360   6.629  0.0300  0.5777 -0.3335
 7418TIP3    H143745   0.373   2.456   6.626 -1.1907  0.6300 -1.0149
 7418TIP3    H243746   0.293   2.342   6.685 -0.3347  0.0239 -1.0014
 7419TIP3   OH243747   1.781   5.843   2.591  0.6805  0.3037  0.9713
 7419TIP3    H143748   1.748   5.770   2.643  0.5299 -0.2953  0.0536
 7419TIP3    H243749   1.730   5.841   2.510  0.6218  1.4787  0.9593
 7420TIP3   OH243750   3.214   5.275  14.943 -0.2512  0.3295  0.2546
 7420TIP3    H143751   3.217   5.223  15.023 -0.9241 -0.6732 -0.3581
 7420TIP3    H243752   3.154   5.347  14.964  0.4113  0.6910  0.9877
 7421TIP3   OH243753   5.906   4.531  14.189  0.0946  0.6924 -0.4377
 7421TIP3    H143754   6.002   4.541  14.184 -0.0893  2.3033 -1.4120
 7421TIP3    H243755   5.881   4.579  14.268 -0.0027  1.2056 -0.7748
 7422TIP3   OH243756   2.286   6.761  14.292  0.1768 -0.1680 -0.1603
 7422TIP3    H143757   2.247   6.843  14.321  0.1145 -0.4657  0.6372
 7422TIP3    H243758   2.218   6.695  14.305  0.2885 -0.3810 -0.6134
 7423TIP3   OH243759   4.856   5.511   2.305  0.3075 -0.4199  0.0580
 7423TIP3    H143760   4.800   5.522   2.228  0.6610  0.8433 -0.0539
 7423TIP3    H243761   4.929   5.456   2.275  0.2093 -0.3091 -0.3882
 7424TIP3   OH243762   6.748   2.334   4.191 -0.0019 -0.3460  0.2918
 7424TIP3    H143763   6.761   2.378   4.107  1.9210 -2.6250 -0.6995
 7424TIP3    H243764   6.834   2.337   4.233 -0.1599 -1.8936  0.7881
 7425TIP3   OH243765   0.861   3.144  14.552  0.0563 -0.4272 -0.3768
 7425TIP3    H143766   0.852   3.053  14.578 -0.2833 -0.0957  0.7301
 7425TIP3    H243767   0.867   3.142  14.456 -2.3940 -1.4370 -0.5779
 7426TIP3   OH243768   1.516   1.845   2.646 -0.4181 -0.2042 -0.3102
 7426TIP3    H143769   1.449   1.830   2.579 -1.1145  2.9998 -0.5051
 7426TIP3    H243770   1.496   1.781   2.715 -3.4375  0.2806 -0.5810
 7427TIP3   OH243771   4.248   0.834  10.885  0.2612  0.4968 -0.1545
 7427TIP3    H143772   4.259   0.782  10.965  0.2522  2.0416  0.9164
 7427TIP3    H243773   4.323   0.894  10.887 -0.8017  1.8671 -0.2351
 7428TIP3   OH243774   1.670   6.429  10.517  0.4718  0.4217  0.1016
 7428TIP3    H143775   1.759   6.424  10.552  0.2471  1.3078  0.8370
 7428TIP3    H243776   1.633   6.342  10.534  1.5339 -0.3202 -1.2019
 7429TIP3   OH243777   1.614   0.500  16.087  0.4582 -0.7213  0.7843
 7429TIP3    H143778   1.631   0.568  16.153  2.1695 -0.5416  0.2155
 7429TIP3    H243779   1.565   0.546  16.018  2.7236  0.3695 -0.2131
 7430TIP3   OH243780   5.576   3.382  11.192 -0.7168  0.0206  0.3396
 7430TIP3    H143781   5.599   3.403  11.101 -1.2352  1.5815  0.5403
 7430TIP3    H243782   5.554   3.467  11.231  1.1205 -0.3565  2.4038
 7431TIP3   OH243783   3.258   2.829  15.868  0.9357 -0.2078 -0.4272
 7431TIP3    H143784   3.193   2.802  15.933  0.0436 -0.1088 -1.2600
 7431TIP3    H243785   3.220   2.803  15.784  0.9721  1.7919 -1.1082
 7432TIP3   OH243786   5.260   5.343  15.484 -0.1032 -0.5085  0.1004
 7432TIP3    H143787   5.330   5.281  15.463  0.3813 -0.2603  0.9473
 7432TIP3    H243788   5.298   5.400  15.551 -0.4811  0.7917 -0.7464
 7433TIP3   OH243789   1.813   1.364   4.329 -0.1360  0.2515 -0.0795
 7433TIP3    H143790   1.886   1.304   4.345  0.1468  0.5534 -0.2198
 7433TIP3    H243791   1.789   1.396   4.416 -0.5029 -0.3121  0.0292
 7434TIP3   OH243792   1.303   5.026   4.918  0.1698 -0.6491  0.6442
 7434TIP3    H143793   1.360   5.084   4.868 -0.5624 -0.7469 -0.3354
 7434TIP3    H243794   1.286   5.073   4.999 -1.0420  0.8993 -0.4454
 7435TIP3   OH243795   6.704   6.530   6.754  0.3549 -0.2094  0.4780
 7435TIP3    H143796   6.687   6.447   6.710 -0.2351  0.1360  0.0515
 7435TIP3    H243797   6.670   6.518   6.843 -0.2489 -0.2328  0.2481
 7436TIP3   OH243798   1.009   2.358   1.824  0.4339 -0.2594  0.8030
 7436TIP3    H143799   1.009   2.441   1.872 -0.3757 -1.3654  2.8085
 7436TIP3    H243800   0.920   2.350   1.790  0.6841 -0.0437  0.0653
 7437TIP3   OH243801   6.509   6.614   4.764 -0.0604 -0.4107  0.0989
 7437TIP3    H143802   6.536   6.651   4.848  0.4016  0.4341 -0.3971
 7437TIP3    H243803   6.481   6.691   4.713 -1.7462 -1.0670 -0.0155
 7438TIP3   OH243804   1.473   4.114  12.941 -0.3706 -0.5214 -0.0038
 7438TIP3    H143805   1.558   4.143  12.976  0.8248 -2.9079 -0.7120
 7438TIP3    H243806   1.459   4.169  12.864  2.1125 -1.9684 -1.6657
 7439TIP3   OH243807   3.681   2.896  11.284  0.5695 -0.0467  0.2813
 7439TIP3    H143808   3.648   2.984  11.298 -0.6219 -0.1799 -1.3193
 7439TIP3    H243809   3.613   2.839  11.321  0.4932 -0.2912 -0.2251
 7440TIP3   OH243810   4.363   3.123   2.848  0.3571 -1.0691  0.4524
 7440TIP3    H143811   4.286   3.180   2.838 -0.7991 -2.9206 -2.1639
 7440TIP3    H243812   4.412   3.163   2.920 -1.5028  1.9147  0.2632
 7441TIP3   OH243813   6.405   6.570  15.716 -0.4411 -0.2708  0.1493
 7441TIP3    H143814   6.433   6.480  15.735 -0.5196 -0.2752  0.2448
 7441TIP3    H243815   6.451   6.592  15.635 -0.4620 -0.4167  0.0959
 7442TIP3   OH243816   0.121   3.391   1.678 -0.5468  0.4260 -0.0853
 7442TIP3    H143817   0.194   3.395   1.616 -0.0775  2.3535  0.5307
 7442TIP3    H243818   0.044   3.415   1.626 -0.6973 -1.1692 -0.6330
 7443TIP3   OH243819   0.604   6.710  11.736 -0.4973  0.6123 -0.0175
 7443TIP3    H143820   0.596   6.617  11.714 -2.6247  0.5235  0.8586
 7443TIP3    H243821   0.694   6.733  11.715 -0.0856 -1.5207 -0.7426
 7444TIP3   OH243822   0.987   1.797   3.279  0.0607  0.2185 -0.3014
 7444TIP3    H143823   1.078   1.827   3.271  0.3486 -0.9394 -1.9855
 7444TIP3    H243824   0.936   1.878   3.288  1.2870  0.8475  1.4893
 7445TIP3   OH243825   2.690   1.680   3.151 -0.6309  0.9659 -0.1626
 7445TIP3    H143826   2.746   1.664   3.227 -0.2949 -0.2346 -0.6306
 7445TIP3    H243827   2.612   1.627   3.168 -0.0115 -0.3600 -1.2056
 7446TIP3   OH243828   1.027   0.792   6.119 -0.1483  0.1074 -0.0020
 7446TIP3    H143829   0.937   0.789   6.150  0.2303 -0.2082  1.0941
 7446TIP3    H243830   1.075   0.732   6.176  0.5588 -0.5933 -1.2690
 7447TIP3   OH243831   6.671   1.261  13.982 -0.2272  0.3185 -0.5499
 7447TIP3    H143832   6.695   1.231  13.894  1.1026  2.6517 -1.0917
 7447TIP3    H243833   6.753   1.255  14.032 -0.9755 -0.9992  0.5866
 7448TIP3   OH243834   4.018   0.371   1.155  0.6067  0.2855 -0.0096
 7448TIP3    H143835   3.991   0.330   1.073  0.7527 -0.2945  0.2217
 7448TIP3    H243836   3.937   0.379   1.206  0.7441 -0.7999  0.4036
 7449TIP3   OH243837   1.912   1.176  12.584 -0.0407  0.1389 -0.3146
 7449TIP3    H143838   1.934   1.155  12.675 -0.3206 -0.9499 -0.4888
 7449TIP3    H243839   1.818   1.193  12.586  0.1351  1.1793 -0.2241
 7450TIP3   OH243840   4.603   0.095   5.202 -0.0668  0.0314  0.1763
 7450TIP3    H143841   4.570   0.165   5.258 -1.6075  0.0148 -0.6664
 7450TIP3    H243842   4.569   0.015   5.241 -1.4519  0.0431 -0.9425
 7451TIP3   OH243843   1.119   0.041  12.549 -0.4434  0.1739  0.4098
 7451TIP3    H143844   1.121   0.137  12.555 -2.2716  0.3448 -0.7811
 7451TIP3    H243845   1.170   0.011  12.624 -0.7812  2.0719  1.4734
 7452TIP3   OH243846   4.742   5.547  15.397 -0.1565 -0.1350  0.1983
 7452TIP3    H143847   4.836   5.533  15.383 -0.1343 -0.6737  0.8213
 7452TIP3    H243848   4.713   5.594  15.320 -0.0216 -2.7792 -1.5865
 7453TIP3   OH243849   5.617   0.274  13.413  0.5274 -0.5455 -0.1633
 7453TIP3    H143850   5.584   0.251  13.500 -1.3462  1.0950 -0.3734
 7453TIP3    H243851   5.538   0.292  13.362  1.6132 -1.0299 -2.1015
 7454TIP3   OH243852   3.310   3.102   1.824 -0.2563 -0.0457  0.0112
 7454TIP3    H143853   3.332   3.162   1.753 -1.0943  0.5646  0.2414
 7454TIP3    H243854   3.339   3.016   1.794 -0.4834  0.2243 -1.0140
 7455TIP3   OH243855   3.121   6.728  16.700 -0.2891  0.5223  0.1025
 7455TIP3    H143856   3.033   6.767  16.693 -0.9081 -0.7603  0.3520
 7455TIP3    H243857   3.177   6.784  16.647 -1.2083  1.5129  0.1379
 7456TIP3   OH243858   2.740   6.134  16.672 -0.0061 -0.0152 -0.1338
 7456TIP3    H143859   2.763   6.119  16.580 -1.0941 -0.4885 -0.3461
 7456TIP3    H243860   2.686   6.058  16.695  2.3007 -1.2482  1.6705
 7457TIP3   OH243861   1.123   0.344   6.182  0.6389  1.0610  0.3118
 7457TIP3    H143862   1.106   0.288   6.258  0.6226  1.4640  0.6136
 7457TIP3    H243863   1.043   0.340   6.130  1.3485 -0.8098 -0.7424
 7458TIP3   OH243864   4.940   1.459   2.707  0.4265  0.1759  0.2446
 7458TIP3    H143865   4.863   1.508   2.678  2.0100  3.0944  0.4965
 7458TIP3    H243866   4.912   1.368   2.711 -2.3219  0.8198 -1.8609
 7459TIP3   OH243867   2.074   6.335  17.276  0.3544  0.2051  0.0708
 7459TIP3    H143868   1.999   6.363  17.329 -0.1295 -0.9178  0.0044
 7459TIP3    H243869   2.045   6.346  17.186  0.3292 -0.0496  0.0464
 7460TIP3   OH243870   4.738   2.692   0.740 -0.0792  0.3267  0.3479
 7460TIP3    H143871   4.697   2.720   0.822  1.3599  0.2010  1.1492
 7460TIP3    H243872   4.762   2.774   0.696 -1.0343  0.3981 -0.0681
 7461TIP3   OH243873   4.488   5.642   3.756 -1.0700 -0.2537 -0.7809
 7461TIP3    H143874   4.574   5.601   3.762 -0.7646  0.4770  0.1560
 7461TIP3    H243875   4.506   5.736   3.764 -1.9507 -0.0991 -0.5288
 7462TIP3   OH243876   1.414   0.935   2.697  0.9473 -0.0676  0.6724
 7462TIP3    H143877   1.418   0.855   2.749  2.1677  0.1534  0.9653
 7462TIP3    H243878   1.398   0.905   2.607  0.1971 -0.5484  0.9623
 7463TIP3   OH243879   0.671   3.015   1.287  0.0224 -0.2414 -0.3732
 7463TIP3    H143880   0.706   2.926   1.293  0.0983 -0.1947 -0.1232
 7463TIP3    H243881   0.597   3.017   1.348  1.0704  0.3591  0.9252
 7464TIP3   OH243882   0.307   5.215  13.830  0.3216 -0.0419 -0.3356
 7464TIP3    H143883   0.399   5.194  13.846  0.2975  0.3667  0.3968
 7464TIP3    H243884   0.309   5.294  13.776  0.3987 -0.5354 -1.0674
 7465TIP3   OH243885   4.571   5.817   3.376 -0.5109  0.6899  0.1935
 7465TIP3    H143886   4.647   5.759   3.364  0.5260  1.5310  2.1315
 7465TIP3    H243887   4.595   5.897   3.330 -1.6769 -0.1146 -1.9492
 7466TIP3   OH243888   6.291   0.320   5.199  0.1232  0.0125 -0.2892
 7466TIP3    H143889   6.311   0.235   5.160 -1.5074 -0.7364  0.4500
 7466TIP3    H243890   6.326   0.315   5.288 -2.3915 -0.9915  0.7224
 7467TIP3   OH243891   1.781   2.301  16.040  0.6491 -0.7697  0.2728
 7467TIP3    H143892   1.736   2.305  15.956  2.3952 -2.4390 -0.8431
 7467TIP3    H243893   1.738   2.229  16.087 -0.6011  0.4301  1.0490
 7468TIP3   OH243894   3.116   6.713   1.528  0.5637 -0.1135  0.1897
 7468TIP3    H143895   3.100   6.668   1.611 -3.3227 -1.3441 -1.0521
 7468TIP3    H243896   3.123   6.643   1.464 -0.7273  0.8960 -1.0999
 7469TIP3   OH243897   3.783   4.344   0.558 -0.4753 -0.3168  0.4716
 7469TIP3    H143898   3.806   4.436   0.561  0.8243 -0.6546  1.4872
 7469TIP3    H243899   3.727   4.330   0.635  1.1423 -0.8123  1.6030
 7470TIP3   OH243900   4.107   1.181   5.502 -0.0734 -0.1181  0.3730
 7470TIP3    H143901   4.116   1.269   5.465 -1.4694  0.1905  0.7294
 7470TIP3    H243902   4.072   1.128   5.431 -0.1392 -0.1701  0.4442
 7471TIP3   OH243903   4.161   6.659  16.213 -0.1980 -0.7637  0.2474
 7471TIP3    H143904   4.213   6.579  16.225  0.3893 -0.3673  0.3764
 7471TIP3    H243905   4.088   6.650  16.275 -2.5216 -3.0933 -2.5045
 7472TIP3   OH243906   1.582   3.640  13.255 -0.0457  0.5056  0.3070
 7472TIP3    H143907   1.632   3.586  13.193  0.2948  0.6482  0.4528
 7472TIP3    H243908   1.624   3.624  13.340 -0.6851  0.0987  0.5517
 7473TIP3   OH243909   1.378   2.011  14.480 -0.1305  0.4168  0.7230
 7473TIP3    H143910   1.429   2.009  14.400  1.0678 -0.0403  1.4692
 7473TIP3    H243911   1.440   1.989  14.549 -0.7842  2.1696  1.9728
 7474TIP3   OH243912   6.288   6.025  14.071  0.1989  0.2698  0.2057
 7474TIP3    H143913   6.208   5.982  14.101  0.5861 -0.9797 -0.4830
 7474TIP3    H243914   6.326   5.964  14.008  0.2351  2.0787 -1.6606
 7475TIP3   OH243915   3.372   3.178   0.903  0.0948  0.2774 -0.5613
 7475TIP3    H143916   3.312   3.161   0.832 -0.3191 -1.0604  0.0874
 7475TIP3    H243917   3.361   3.272   0.922 -0.9683  0.2834 -1.1612
 7476TIP3   OH243918   0.673   0.441   6.744  0.0078  0.0448  0.9599
 7476TIP3    H143919   0.599   0.407   6.795  0.5627 -0.8783  1.1806
 7476TIP3    H243920   0.750   0.420   6.796  0.5503 -0.4883 -0.0157
 7477TIP3   OH243921   4.579   5.620  14.958  0.1355 -0.3644  0.3686
 7477TIP3    H143922   4.505   5.674  14.929 -0.3290 -0.9120  0.5068
 7477TIP3    H243923   4.557   5.532  14.927  1.5597 -0.2527 -1.1078
 7478TIP3   OH243924   0.979   2.436   4.621  1.0745 -0.4723  0.6246
 7478TIP3    H143925   0.976   2.377   4.696 -0.3684 -0.3078  0.7286
 7478TIP3    H243926   0.969   2.378   4.545 -1.3380 -0.3619  0.7659
 7479TIP3   OH243927   0.284   1.982  17.095  0.0608 -0.5154 -0.0482
 7479TIP3    H143928   0.263   1.942  17.179 -0.1458 -0.8470 -0.2564
 7479TIP3    H243929   0.317   1.910  17.042  0.8584 -0.1727 -0.0264
 7480TIP3   OH243930   2.189   1.354  16.647 -0.4930 -0.3256 -0.5167
 7480TIP3    H143931   2.193   1.376  16.740 -0.3926  0.8660 -0.7785
 7480TIP3    H243932   2.276   1.318  16.627 -0.0275  0.7262 -0.4432
 7481TIP3   OH243933   0.096   5.240   3.700  0.3936 -0.1672 -0.4165
 7481TIP3    H143934   0.108   5.232   3.606 -0.7872  1.3664 -0.7437
 7481TIP3    H243935   0.101   5.150   3.733  1.2308 -0.6787 -1.8659
 7482TIP3   OH243936   0.605   3.364  15.428  0.1639 -0.2599 -0.0422
 7482TIP3    H143937   0.656   3.293  15.466 -0.3824 -1.7811 -1.9670
 7482TIP3    H243938   0.529   3.372  15.486  0.8108 -0.4155  0.8577
 7483TIP3   OH243939   2.002   4.255   3.407 -0.0428  0.0126  0.1305
 7483TIP3    H143940   1.949   4.276   3.330  2.8779  0.9487 -1.7991
 7483TIP3    H243941   1.984   4.325   3.469 -1.8180 -0.2964  0.0028
 7484TIP3   OH243942   1.364   2.098   0.610  0.3717  0.2630  0.0107
 7484TIP3    H143943   1.428   2.035   0.577  0.1058 -0.4665  0.8538
 7484TIP3    H243944   1.362   2.083   0.705 -0.0271  1.2407  0.1732
 7485TIP3   OH243945   2.454   2.921  15.603 -0.2031  0.2814  0.0398
 7485TIP3    H143946   2.485   3.011  15.617 -0.5893  0.5194 -0.5873
 7485TIP3    H243947   2.359   2.928  15.610 -0.1867 -0.2244  0.7658
 7486TIP3   OH243948   5.283   2.380  14.133  0.1656  0.6830 -0.1748
 7486TIP3    H143949   5.254   2.405  14.221 -2.8888 -0.4587 -0.7358
 7486TIP3    H243950   5.287   2.462  14.085  3.1684  1.5204  1.2082
 7487TIP3   OH243951   4.300   6.587  12.663  0.4952  0.2741 -0.3088
 7487TIP3    H143952   4.234   6.651  12.638 -2.0982 -2.1490 -0.1555
 7487TIP3    H243953   4.314   6.602  12.756  0.5046  1.0818 -0.4343
 7488TIP3   OH243954   5.162   3.063  13.207 -0.0856  0.2848 -0.1088
 7488TIP3    H143955   5.244   3.086  13.251 -0.7415  0.7107  0.8965
 7488TIP3    H243956   5.096   3.120  13.245 -0.7411  0.4561 -1.4242
 7489TIP3   OH243957   5.949   3.256   4.833 -0.3074 -0.2315  0.9032
 7489TIP3    H143958   5.869   3.255   4.886 -0.7655 -1.9922  0.2445
 7489TIP3    H243959   5.929   3.316   4.761 -1.3563 -1.2442  0.3148
 7490TIP3   OH243960   2.914   2.964  15.110  0.0190 -0.0567  0.4332
 7490TIP3    H143961   2.896   3.019  15.186 -0.8275  1.8659 -1.0910
 7490TIP3    H243962   2.974   3.015  15.056 -1.4550 -0.1891 -1.4411
 7491TIP3   OH243963   6.005   5.836  16.722 -0.7325  0.0545  0.2036
 7491TIP3    H143964   6.040   5.827  16.811 -0.4677 -1.2550 -0.0192
 7491TIP3    H243965   6.008   5.748  16.686 -0.2105  0.6831 -1.3624
 7492TIP3   OH243966   5.988   5.855   0.036  0.3681  0.0137 -1.0316
 7492TIP3    H143967   6.038   5.932   0.061 -0.1090 -0.1904  0.7184
 7492TIP3    H243968   5.896   5.882   0.044  0.1449 -1.1663  1.4119
 7493TIP3   OH243969   5.944   2.270  11.263  0.6585  0.0799 -0.2123
 7493TIP3    H143970   5.863   2.227  11.235  1.7970 -2.6827  0.4171
 7493TIP3    H243971   5.979   2.310  11.183 -0.9424  0.7255 -0.6303
 7494TIP3   OH243972   6.710   3.973  13.040  0.2352 -0.1724 -0.4369
 7494TIP3    H143973   6.726   4.067  13.049 -1.0167  0.0964 -0.7393
 7494TIP3    H243974   6.751   3.934  13.117  1.1910  0.5564 -0.5567
 7495TIP3   OH243975   0.548   0.956   5.723  0.1426  0.2772 -0.7137
 7495TIP3    H143976   0.524   0.889   5.659  0.3660 -2.2982  1.6847
 7495TIP3    H243977   0.642   0.942   5.739  0.4357  1.8724 -0.8717
 7496TIP3   OH243978   1.905   2.295  11.515 -0.3795 -0.6003 -0.3092
 7496TIP3    H143979   1.974   2.247  11.561  1.1520  1.2444 -0.5474
 7496TIP3    H243980   1.846   2.325  11.585  0.1440 -0.5578  0.1266
 7497TIP3   OH243981   4.646   1.806  14.770  0.5116 -0.3141  0.1400
 7497TIP3    H143982   4.584   1.868  14.810  0.6282  0.8735 -1.4061
 7497TIP3    H243983   4.592   1.731  14.745 -0.2052  0.4350 -0.6117
 7498TIP3   OH243984   4.042   5.947  16.288 -0.0549  0.1380 -0.7762
 7498TIP3    H143985   4.061   5.853  16.290  0.1046  0.1732  1.4538
 7498TIP3    H243986   4.119   5.989  16.327 -1.6592  0.8237  1.9253
 7499TIP3   OH243987   2.763   2.836  14.206 -0.2306  0.8386  0.6698
 7499TIP3    H143988   2.687   2.894  14.203  0.3269  1.6531  1.6654
 7499TIP3    H243989   2.794   2.833  14.116 -1.7575  0.0394  0.1316
 7500TIP3   OH243990   2.044   5.931  11.519 -0.3850 -0.1756 -0.2551
 7500TIP3    H143991   2.047   6.021  11.552  0.4688 -0.1043 -0.5037
 7500TIP3    H243992   2.126   5.920  11.470 -1.5395 -0.3225 -2.2560
 7501TIP3   OH243993   4.261   1.930   4.578 -0.3135 -0.4854  0.1394
 7501TIP3    H143994   4.260   1.960   4.487  0.5697  0.4918  0.4273
 7501TIP3    H243995   4.187   1.871   4.585 -0.8269 -0.0042 -1.0331
 7502TIP3   OH243996   2.032   5.372  16.585 -0.0051  0.2567 -0.2846
 7502TIP3    H143997   1.939   5.394  16.592 -0.6399 -2.3003  0.2422
 7502TIP3    H243998   2.068   5.441  16.529 -1.8356  2.2456  0.8167
 7503TIP3   OH243999   3.691   1.812  11.293  0.1744 -0.2587  0.0158
 7503TIP3    H144000   3.673   1.722  11.320  1.7914 -0.6711 -0.1949
 7503TIP3    H244001   3.624   1.864  11.337  0.6450 -1.3034  2.0571
 7504TIP3   OH244002   3.144   2.940  13.126  0.0908 -0.2755 -0.6479
 7504TIP3    H144003   3.236   2.916  13.125 -0.0869 -0.9751 -0.3835
 7504TIP3    H244004   3.136   3.000  13.201  0.3886  0.0324 -0.8606
 7505TIP3   OH244005   1.805   1.337   0.411  0.0065 -0.3057 -0.1921
 7505TIP3    H144006   1.807   1.432   0.426 -0.8474 -0.2465 -0.4439
 7505TIP3    H244007   1.890   1.307   0.443 -0.7898  0.1500  2.5936
 7506TIP3   OH244008   2.533   3.441   3.068  0.3753 -0.1344  0.0480
 7506TIP3    H144009   2.521   3.349   3.091 -1.2191  0.8140  4.0550
 7506TIP3    H244010   2.475   3.455   2.993 -1.0138 -2.0027  0.6941
 7507TIP3   OH244011   2.453   4.416  15.345  0.0336  0.3819  0.1373
 7507TIP3    H144012   2.542   4.392  15.373  0.0578  1.1838  0.7813
 7507TIP3    H244013   2.466   4.482  15.278 -0.0495 -0.9836 -1.2928
 7508TIP3   OH244014   6.726   5.454   4.822 -0.1054 -0.1150  0.6582
 7508TIP3    H144015   6.672   5.396   4.769 -0.5830  1.3129 -0.5169
 7508TIP3    H244016   6.704   5.432   4.912 -2.7799  0.4580  0.2416
 7509TIP3   OH244017   6.018   3.168  15.161  0.3935 -0.2019  0.3594
 7509TIP3    H144018   6.074   3.129  15.093 -0.9004 -2.7421  0.6229
 7509TIP3    H244019   5.958   3.225  15.113  0.4451 -0.8194 -0.4697
 7510TIP3   OH244020   2.963   0.462  10.653  0.1920  0.2032 -0.0896
 7510TIP3    H144021   2.927   0.545  10.622  1.5059  0.8127 -0.0856
 7510TIP3    H244022   2.960   0.405  10.577  1.2983  0.9772 -0.7574
 7511TIP3   OH244023   4.393   2.022   0.064  0.5630  0.3270 -0.1115
 7511TIP3    H144024   4.465   2.078   0.036  0.0790  0.7579 -0.5145
 7511TIP3    H244025   4.346   2.000  -0.017 -1.4976  2.4818  0.3688
 7512TIP3   OH244026   4.358   1.570   4.048 -0.3559  0.2057  0.2051
 7512TIP3    H144027   4.449   1.567   4.018 -0.7224  0.8383 -1.0855
 7512TIP3    H244028   4.325   1.481   4.035 -0.8201  0.6783 -2.5130
 7513TIP3   OH244029   4.589   1.742  12.122  0.4439 -0.0283 -0.1256
 7513TIP3    H144030   4.620   1.765  12.035  1.9807  1.4675  0.7495
 7513TIP3    H244031   4.659   1.689  12.160  0.6492  0.8797  0.8266
 7514TIP3   OH244032   1.791   3.521   4.866 -0.0647  0.5219  0.5570
 7514TIP3    H144033   1.841   3.591   4.908  0.3717  1.2507 -1.0908
 7514TIP3    H244034   1.856   3.475   4.812 -0.6464 -0.2250  0.4780
 7515TIP3   OH244035   0.677   5.402   3.626 -0.2253  0.3610  0.0296
 7515TIP3    H144036   0.639   5.316   3.607  0.2702  0.1599 -0.0640
 7515TIP3    H244037   0.612   5.465   3.596 -1.2643  0.0224  1.4546
 7516TIP3   OH244038   1.692   2.057   0.689  0.4586  0.1671 -0.0741
 7516TIP3    H144039   1.778   2.089   0.663  0.1510 -0.3139 -1.8452
 7516TIP3    H244040   1.701   2.034   0.781  1.9259  1.0831  0.0338
 7517TIP3   OH244041   1.912   4.942   5.574 -0.1541  0.0631  0.3437
 7517TIP3    H144042   1.993   4.920   5.619 -0.5903  0.5543  1.4117
 7517TIP3    H244043   1.905   4.877   5.505  1.3346  0.2437 -0.0106
 7518TIP3   OH244044   3.972   0.185   3.667 -0.3810 -0.6465 -0.0328
 7518TIP3    H144045   3.998   0.111   3.723  0.3981  0.1493  0.6852
 7518TIP3    H244046   4.040   0.251   3.681 -1.5176  0.5518  0.0173
 7519TIP3   OH244047   1.969   4.714   5.412 -0.3173 -0.3885  0.7557
 7519TIP3    H144048   2.016   4.686   5.491 -0.3531 -0.4531  0.7539
 7519TIP3    H244049   1.903   4.647   5.399  1.3554 -1.8267 -0.8354
 7520TIP3   OH244050   6.774   4.362  12.454  0.7330  0.3846 -0.0105
 7520TIP3    H144051   6.787   4.376  12.548  0.9131  2.3801 -0.3082
 7520TIP3    H244052   6.758   4.267  12.447 -2.7725  0.5926  2.4390
 7521TIP3   OH244053   0.960   3.782   1.770  0.6318 -0.2650 -0.0791
 7521TIP3    H144054   1.043   3.738   1.790  1.6229  1.5639  0.0433
 7521TIP3    H244055   0.952   3.849   1.837 -1.1506 -0.6131  0.0970
 7522TIP3   OH244056   6.052   3.659  15.743 -0.0266  0.0303 -0.3592
 7522TIP3    H144057   6.132   3.694  15.705 -1.1080  2.1382 -0.8553
 7522TIP3    H244058   6.014   3.605  15.674 -0.7319  1.8389 -1.4541
 7523TIP3   OH244059   2.478   3.705   1.826 -1.0071  0.4792  0.0865
 7523TIP3    H144060   2.395   3.730   1.786  0.3259  1.7482 -2.0805
 7523TIP3    H244061   2.538   3.776   1.803  0.0266  1.2154  4.2228
 7524TIP3   OH244062   1.331   5.101  12.249 -0.2256  0.5863  0.1430
 7524TIP3    H144063   1.257   5.057  12.206 -0.3412 -0.3538  1.2480
 7524TIP3    H244064   1.347   5.179  12.195 -0.5778 -0.3421 -1.3831
 7525TIP3   OH244065   4.604   0.673   3.393  0.1039  0.0714  0.3943
 7525TIP3    H144066   4.517   0.708   3.411  0.2944  0.3017  0.8637
 7525TIP3    H244067   4.621   0.613   3.466 -0.2405 -1.0485 -0.4195
 7526TIP3   OH244068   4.699   4.919  16.018 -0.0045 -0.2246 -0.2149
 7526TIP3    H144069   4.795   4.918  16.023 -0.0631 -1.8048  1.9783
 7526TIP3    H244070   4.677   4.841  15.967 -0.1342  0.1369 -0.7153
 7527TIP3   OH244071   5.368   1.527   2.835  0.3780  0.1087 -0.3617
 7527TIP3    H144072   5.347   1.442   2.797 -0.7260 -0.0649  0.5790
 7527TIP3    H244073   5.333   1.523   2.924  2.3781  0.7023  0.5160
 7528TIP3   OH244074   0.820   5.033   3.856  0.7061  0.4244  0.4886
 7528TIP3    H144075   0.763   4.959   3.876  1.8283 -0.8497 -0.8081
 7528TIP3    H244076   0.907   5.005   3.884  1.8153 -0.2754 -3.0908
 7529TIP3   OH244077   0.171   5.948  14.012 -0.4037 -0.5737  0.2733
 7529TIP3    H144078   0.198   5.987  13.929  2.5853 -0.5219  1.1635
 7529TIP3    H244079   0.138   6.022  14.063  0.2382 -0.1303  0.0580
 7530TIP3   OH244080   3.222   0.616   3.137 -0.1650 -0.3464  0.4856
 7530TIP3    H144081   3.318   0.614   3.131 -0.0994  0.5162  0.9874
 7530TIP3    H244082   3.193   0.630   3.047  0.1300 -1.4918  0.1932
 7531TIP3   OH244083   2.011   5.807   2.369 -0.5324 -0.7576 -0.4299
 7531TIP3    H144084   1.928   5.855   2.360 -0.1736  0.5093  2.0732
 7531TIP3    H244085   1.985   5.719   2.397 -1.0659 -0.1851  0.9807
 7532TIP3   OH244086   6.061   0.586  16.093 -0.5515 -0.0119 -0.2753
 7532TIP3    H144087   6.036   0.502  16.054 -2.0128 -0.1196  0.8154
 7532TIP3    H244088   5.979   0.626  16.118  0.1941  1.3154  0.1346
 7533TIP3   OH244089   0.560   0.239   5.609  0.3743 -0.3772  0.1508
 7533TIP3    H144090   0.572   0.231   5.514  1.5127  0.8725  0.1552
 7533TIP3    H244091   0.494   0.174   5.630  1.4185 -1.9791 -1.2307
 7534TIP3   OH244092   5.634   3.907   5.810  0.2986 -0.4494  0.1890
 7534TIP3    H144093   5.562   3.844   5.821  0.8901 -1.4905 -1.6271
 7534TIP3    H244094   5.695   3.864   5.750  0.5816  1.9787 -1.3770
 7535TIP3   OH244095   2.351   5.845  12.550  0.5198 -0.0014 -0.3408
 7535TIP3    H144096   2.258   5.849  12.572  0.8960  1.4034  1.2536
 7535TIP3    H244097   2.353   5.843  12.454 -1.1489  2.3724 -0.5131
 7536TIP3   OH244098   4.386   5.607  13.722  0.1771  0.2545  0.4899
 7536TIP3    H144099   4.437   5.559  13.786 -0.4000  1.1541  1.6705
 7536TIP3    H244100   4.447   5.672  13.686  0.5266 -0.3128  0.0379
 7537TIP3   OH244101   6.252   3.034   3.919 -0.4297 -0.4194  0.0158
 7537TIP3    H144102   6.289   3.099   3.979  0.0577 -1.1272  0.5044
 7537TIP3    H244103   6.163   3.021   3.951 -0.6077  0.1865 -0.2337
 7538TIP3   OH244104   4.232   6.644  15.855 -0.9008 -0.3157 -0.5955
 7538TIP3    H144105   4.246   6.604  15.941 -2.7525  0.1501 -0.0445
 7538TIP3    H244106   4.317   6.636  15.811  0.4104  0.3716  1.6501
 7539TIP3   OH244107   5.471   4.083  14.509 -0.1277 -0.0314  0.5210
 7539TIP3    H144108   5.533   4.062  14.439 -0.4126  2.0205 -0.4192
 7539TIP3    H244109   5.385   4.060  14.472 -0.2171  0.4020  0.4529
 7540TIP3   OH244110   4.537   6.227  14.938 -0.5846  0.1116  0.1731
 7540TIP3    H144111   4.605   6.264  14.995  0.3301 -2.4426  0.8948
 7540TIP3    H244112   4.470   6.294  14.934  0.4080  1.3519  2.3283
 7541TIP3   OH244113   0.874   0.057  12.205 -0.8800 -0.5250  0.1505
 7541TIP3    H144114   0.906   0.145  12.226 -1.4159 -0.6032  1.3579
 7541TIP3    H244115   0.926  -0.001  12.261 -0.2437 -1.0293 -0.9367
 7542TIP3   OH244116   3.729   2.741   2.909  0.5773  0.0323 -0.2824
 7542TIP3    H144117   3.667   2.770   2.977 -0.0121 -0.0215 -0.7887
 7542TIP3    H244118   3.802   2.802   2.915 -0.0888  0.8582 -0.5146
 7543TIP3   OH244119   5.540   0.768   2.839 -0.0575  0.2656  0.3324
 7543TIP3    H144120   5.562   0.829   2.768 -2.4553  1.4384  0.5190
 7543TIP3    H244121   5.497   0.695   2.794  1.4241 -0.6300  0.2847
 7544TIP3   OH244122   4.432   6.808  13.136  0.6150 -0.2155  0.3172
 7544TIP3    H144123   4.375   6.786  13.063 -0.1294 -1.2894  1.1897
 7544TIP3    H244124   4.509   6.752  13.126 -0.2719 -1.6642  1.2927
 7545TIP3   OH244125   2.160   0.122   5.193  0.5372 -0.3873  0.0048
 7545TIP3    H144126   2.095   0.055   5.171 -0.0228 -0.2017  1.0348
 7545TIP3    H244127   2.215   0.080   5.259 -1.5942  1.0655  2.8910
 7546TIP3   OH244128   1.001   4.167   6.295  0.1931  0.3430  0.0487
 7546TIP3    H144129   0.908   4.144   6.306  0.4511 -1.3172 -0.8368
 7546TIP3    H244130   1.047   4.106   6.353  0.7613  0.8989  0.1911
 7547TIP3   OH244131   3.829   2.136  16.714 -0.2486 -0.5429 -0.2810
 7547TIP3    H144132   3.907   2.128  16.768 -0.3073 -0.0723 -0.1215
 7547TIP3    H244133   3.827   2.056  16.661  1.3416  0.2493 -1.6079
 7548TIP3   OH244134   5.495   0.066   3.185 -0.0938  0.2334 -0.5175
 7548TIP3    H144135   5.522   0.157   3.188  1.2243 -0.1234  3.1203
 7548TIP3    H244136   5.429   0.058   3.254  0.5479 -1.7638 -0.0763
 7549TIP3   OH244137   5.538   0.477   0.322 -0.2783 -0.2552 -0.0273
 7549TIP3    H144138   5.590   0.492   0.243 -0.1218 -1.9793 -0.3051
 7549TIP3    H244139   5.452   0.453   0.289 -0.9703  1.4842  0.4133
 7550TIP3   OH244140   1.684   1.886   4.918 -0.1774 -0.7274 -0.5775
 7550TIP3    H144141   1.699   1.816   4.855  0.4072  0.2313 -1.5583
 7550TIP3    H244142   1.740   1.865   4.992  0.4299 -1.0038 -1.1089
 7551TIP3   OH244143   4.549   5.610   4.872 -0.4021  0.5688 -0.1215
 7551TIP3    H144144   4.611   5.563   4.928 -1.6914  1.2214  1.9429
 7551TIP3    H244145   4.493   5.541   4.836  0.4418  0.1472 -0.6718
 7552TIP3   OH244146   2.489   6.554   3.668 -0.3164 -0.2115 -0.1714
 7552TIP3    H144147   2.468   6.632   3.720 -0.5328  0.9541 -1.9459
 7552TIP3    H244148   2.406   6.507   3.660 -0.9539  1.1301 -1.8772
 7553TIP3   OH244149   1.530   0.622   4.667 -0.0688  0.3390 -0.5948
 7553TIP3    H144150   1.466   0.674   4.620  0.0748  1.6233  0.5920
 7553TIP3    H244151   1.596   0.685   4.696  2.4867 -1.0580 -2.8775
 7554TIP3   OH244152   2.611   5.544  13.646  0.4614  0.5596 -0.0210
 7554TIP3    H144153   2.697   5.563  13.683  1.1089  0.4530 -1.4102
 7554TIP3    H244154   2.596   5.613  13.582 -0.4120  0.4690  0.0714
 7555TIP3   OH244155   0.545   5.012  14.188  0.2078  0.2111  0.4434
 7555TIP3    H144156   0.552   4.919  14.211  0.1426  0.2714  0.7036
 7555TIP3    H244157   0.605   5.056  14.248 -1.8844  0.6736  2.2858
 7556TIP3   OH244158   4.630   5.469   1.975  0.5533 -0.0808  0.2302
 7556TIP3    H144159   4.578   5.413   1.918 -0.2795  0.5964  0.3072
 7556TIP3    H244160   4.703   5.413   2.003  0.1002 -0.9138 -0.2134
 7557TIP3   OH244161   5.678   5.207  11.836  0.3588 -0.0926  0.2061
 7557TIP3    H144162   5.586   5.207  11.862  0.3578 -1.2143  0.2405
 7557TIP3    H244163   5.725   5.181  11.915  0.4665 -2.2394 -0.5198
 7558TIP3   OH244164   3.760   4.882  12.886  0.4527  0.2872  0.5371
 7558TIP3    H144165   3.793   4.819  12.822  2.7177  2.1397 -0.2496
 7558TIP3    H244166   3.835   4.899  12.944 -0.6734  0.8594  1.8998
 7559TIP3   OH244167   3.375   3.366  10.971 -0.2332 -0.0312 -0.0752
 7559TIP3    H144168   3.371   3.385  11.064 -0.2642 -0.8168  0.0946
 7559TIP3    H244169   3.284   3.361  10.943 -0.2213  0.4709 -0.2070
 7560TIP3   OH244170   3.871   6.550   2.880 -0.0099  0.1467 -0.0623
 7560TIP3    H144171   3.858   6.607   2.804 -0.8358 -2.1801 -1.7910
 7560TIP3    H244172   3.820   6.591   2.950 -0.7923  1.3614 -1.2976
 7561TIP3   OH244173   1.991   0.563   6.382 -0.3399 -0.5837 -0.3551
 7561TIP3    H144174   1.955   0.506   6.449  1.5931  0.4479  1.7029
 7561TIP3    H244175   2.022   0.640   6.430  0.5406  0.5245 -2.5336
 7562TIP3   OH244176   2.812   0.784  12.344  0.1141 -0.4237 -0.1874
 7562TIP3    H144177   2.744   0.815  12.404  1.1546  0.3810  0.6193
 7562TIP3    H244178   2.819   0.853  12.278  2.4505  1.2385  1.6238
 7563TIP3   OH244179   2.307   5.796   1.126 -0.5431  0.7804 -0.0108
 7563TIP3    H144180   2.225   5.747   1.120 -0.6294  0.8697  0.4066
 7563TIP3    H244181   2.376   5.729   1.124 -0.5662  0.7659 -1.5160
 7564TIP3   OH244182   6.155   0.312  13.597 -0.7412  0.1510 -0.2917
 7564TIP3    H144183   6.138   0.219  13.582  0.3430 -0.2840  1.0581
 7564TIP3    H244184   6.120   0.329  13.684  1.5835  0.2977  0.6758
 7565TIP3   OH244185   2.685   5.140  16.718 -0.2141 -0.0609 -0.0089
 7565TIP3    H144186   2.636   5.083  16.777 -1.4073  1.4126  0.4896
 7565TIP3    H244187   2.618   5.186  16.668  0.7671 -1.7650 -3.1049
 7566TIP3   OH244188   5.389   1.567   1.711 -0.5492  0.3979 -0.0664
 7566TIP3    H144189   5.438   1.624   1.771 -0.6035  1.6848 -1.2013
 7566TIP3    H244190   5.442   1.488   1.706  0.3032  0.9135  0.4045
 7567TIP3   OH244191   4.747   6.728  15.084  0.3395 -0.4195 -0.1369
 7567TIP3    H144192   4.705   6.808  15.051  2.8796  0.2886 -1.9355
 7567TIP3    H244193   4.779   6.752  15.171 -1.5781 -0.5360  0.6602
 7568TIP3   OH244194   0.849   6.511  12.526  0.3815  0.3317  0.1584
 7568TIP3    H144195   0.785   6.480  12.462 -0.9436  0.5853  1.3058
 7568TIP3    H244196   0.915   6.557  12.474 -0.2081 -0.1913 -1.0945
 7569TIP3   OH244197   4.729   5.497   6.031 -0.1241 -0.5012 -0.2372
 7569TIP3    H144198   4.777   5.415   6.043  0.0750 -0.1956  1.2032
 7569TIP3    H244199   4.682   5.510   6.113  1.9526  2.1704  0.6695
 7570TIP3   OH244200   1.137   5.515   3.182 -0.7776 -0.1123  0.3456
 7570TIP3    H144201   1.072   5.466   3.231 -0.3188 -0.1120  0.9668
 7570TIP3    H244202   1.213   5.456   3.176 -1.9640 -1.5730 -3.4407
 7571TIP3   OH244203   4.503   5.957   4.051 -0.0594  0.2464  0.0810
 7571TIP3    H144204   4.473   5.873   4.018  1.1460  0.3068 -1.2895
 7571TIP3    H244205   4.429   5.991   4.101 -1.2721 -0.7461 -0.9619
 7572TIP3   OH244206   1.107   0.300  16.408 -0.8990  0.2456  0.1421
 7572TIP3    H144207   1.030   0.251  16.380 -0.1664 -0.7637 -0.1661
 7572TIP3    H244208   1.181   0.251  16.371 -0.1656  2.2427 -1.2286
 7573TIP3   OH244209   4.369   3.382   4.217 -0.7686 -0.0577  0.5235
 7573TIP3    H144210   4.337   3.465   4.182 -1.6656 -1.1412 -1.3503
 7573TIP3    H244211   4.321   3.371   4.299 -2.3195  0.2464 -0.3076
 7574TIP3   OH244212   4.194   3.619  14.562  0.0308 -0.2550 -0.3147
 7574TIP3    H144213   4.151   3.622  14.647 -1.3354 -2.3111 -0.8799
 7574TIP3    H244214   4.125   3.639  14.499  0.5502 -0.7387 -1.0560
 7575TIP3   OH244215   0.208   1.308   6.349  0.3542 -0.3210  0.2169
 7575TIP3    H144216   0.253   1.224   6.340 -0.4937 -0.6331 -1.5979
 7575TIP3    H244217   0.144   1.293   6.418  0.7781 -0.9024  0.4942
 7576TIP3   OH244218   1.040   0.604   2.908 -0.0013  0.4752 -0.0363
 7576TIP3    H144219   0.996   0.688   2.899 -0.4961  0.1755 -0.5066
 7576TIP3    H244220   0.991   0.545   2.849  0.0915 -0.2316  0.5820
 7577TIP3   OH244221   4.782   3.910   4.730 -0.2215 -0.4314 -0.4781
 7577TIP3    H144222   4.731   3.990   4.743  0.6967 -0.1842  2.2828
 7577TIP3    H244223   4.850   3.913   4.798  1.0983 -2.5958 -1.5773
 7578TIP3   OH244224   2.039   5.898  16.202  0.3489  0.3202  0.0957
 7578TIP3    H144225   1.980   5.828  16.228  0.5781 -0.9649 -2.4862
 7578TIP3    H244226   1.993   5.944  16.132  0.8842  1.7457  0.6391
 7579TIP3   OH244227   2.283   4.998   0.068  0.1461  0.2153 -0.0564
 7579TIP3    H144228   2.377   4.989   0.083  0.0336 -1.7608 -0.1894
 7579TIP3    H244229   2.270   5.091   0.050  2.3459  0.2944 -1.7304
 7580TIP3   OH244230   0.228   1.888  11.964 -0.5899 -0.2269 -0.0173
 7580TIP3    H144231   0.313   1.913  12.001 -1.1030  2.1021 -0.2742
 7580TIP3    H244232   0.180   1.850  12.038  0.4473 -1.0388  0.2619
 7581TIP3   OH244233   3.737   0.537  17.120 -0.5344 -0.1818 -0.1227
 7581TIP3    H144234   3.674   0.466  17.113 -0.8034  0.2317 -2.6441
 7581TIP3    H244235   3.683   0.616  17.127 -0.3175  0.0701 -1.1252
 7582TIP3   OH244236   3.998   1.344   1.239  0.4028  0.0116  0.5172
 7582TIP3    H144237   3.991   1.259   1.196 -1.0655  0.6016 -0.4929
 7582TIP3    H244238   4.044   1.399   1.176 -2.0906  0.9857 -0.6281
 7583TIP3   OH244239   6.614   2.812   3.353  0.7601  0.5554  0.5095
 7583TIP3    H144240   6.610   2.855   3.438  0.3932 -1.1541  1.3916
 7583TIP3    H244241   6.595   2.882   3.290 -1.2342  1.4040  1.9604
 7584TIP3   OH244242   2.331   2.387   1.328  0.1385 -0.2707 -0.0428
 7584TIP3    H144243   2.271   2.409   1.399  0.1165  0.8230 -0.3737
 7584TIP3    H244244   2.335   2.467   1.275  0.1342 -1.0674 -1.2899
 7585TIP3   OH244245   6.674   4.861   5.835 -0.4034  0.1825 -0.5155
 7585TIP3    H144246   6.729   4.930   5.872 -0.4729  0.2624 -0.5642
 7585TIP3    H244247   6.636   4.817   5.911  1.9430 -1.7164 -0.2796
 7586TIP3   OH244248   4.554   6.072  16.699 -0.1212 -0.2371  0.0170
 7586TIP3    H144249   4.465   6.039  16.716 -0.7200  1.0670 -0.4284
 7586TIP3    H244250   4.571   6.131  16.772  0.6401 -0.9444  0.4213
 7587TIP3   OH244251   0.142   0.340  16.340  0.6520 -0.1534  0.0788
 7587TIP3    H144252   0.223   0.342  16.391  0.4866  2.1096  0.3653
 7587TIP3    H244253   0.141   0.424  16.293 -2.1616  0.5872  1.1902
 7588TIP3   OH244254   0.307   0.160   3.577  0.4907  0.5597 -0.2085
 7588TIP3    H144255   0.296   0.181   3.670 -0.2646  2.2273 -0.6354
 7588TIP3    H244256   0.269   0.235   3.531 -0.2063 -0.7628 -1.8812
 7589TIP3   OH244257   3.902   2.241   2.508 -0.6635 -0.1102 -0.5266
 7589TIP3    H144258   3.980   2.188   2.521 -0.5245  0.0495 -0.7105
 7589TIP3    H244259   3.831   2.189   2.547 -0.3737  0.0302  0.2054
 7590TIP3   OH244260   5.548   2.954  14.657 -0.0036 -0.2143 -0.5433
 7590TIP3    H144261   5.604   2.888  14.617 -0.6577 -0.5668 -0.9103
 7590TIP3    H244262   5.571   3.035  14.611 -0.2148 -0.4727 -1.1189
 7591TIP3   OH244263   2.545   6.567   4.394 -0.6668 -0.7034  0.4114
 7591TIP3    H144264   2.525   6.481   4.431 -2.2914  0.2914  2.0027
 7591TIP3    H244265   2.468   6.621   4.415  0.4404  1.2239 -0.2403
 7592TIP3   OH244266   6.196   6.544   1.393 -0.2794 -0.5927 -0.2727
 7592TIP3    H144267   6.105   6.525   1.414 -0.3591  0.1195  0.0651
 7592TIP3    H244268   6.233   6.578   1.475  0.1994 -0.5598 -0.4962
 7593TIP3   OH244269   2.863   1.188  16.471  0.4470  0.3240 -0.6384
 7593TIP3    H144270   2.903   1.135  16.539 -0.1740  1.1442  0.3875
 7593TIP3    H244271   2.926   1.258  16.454  0.0839  0.7960 -0.0521
 7594TIP3   OH244272   2.592   2.364   4.638 -0.2970 -0.4175 -0.5838
 7594TIP3    H144273   2.560   2.299   4.575 -3.6109  0.1496  0.3551
 7594TIP3    H244274   2.556   2.447   4.607 -1.5059 -0.0333  1.6325
 7595TIP3   OH244275   0.041   0.758   5.740  0.2636 -0.0176 -0.4185
 7595TIP3    H144276   0.060   0.682   5.794 -1.5408  0.6575  1.2697
 7595TIP3    H244277   0.087   0.830   5.783  0.6891  0.1353 -1.1137
 7596TIP3   OH244278   3.710   0.968  14.763 -0.1868 -0.4475  0.9577
 7596TIP3    H144279   3.723   0.888  14.813  1.8203  0.0126  1.2435
 7596TIP3    H244280   3.720   1.039  14.827 -0.7673  0.0713  0.4914
 7597TIP3   OH244281   2.257   6.538  11.656 -0.2096  0.0244 -0.3618
 7597TIP3    H144282   2.290   6.628  11.654  0.1653 -0.1176 -1.5970
 7597TIP3    H244283   2.326   6.487  11.613 -0.7805 -0.7245 -0.3974
 7598TIP3   OH244284   2.967   4.225   6.322  0.0128 -0.4853  0.5925
 7598TIP3    H144285   3.029   4.287   6.360 -0.3937  0.5516 -0.3612
 7598TIP3    H244286   2.901   4.280   6.281 -0.7932 -1.5699  0.3908
 7599TIP3   OH244287   0.821   3.309  16.743  0.3494  0.3322 -0.3801
 7599TIP3    H144288   0.911   3.340  16.740  0.0025  1.4426  0.2202
 7599TIP3    H244289   0.807   3.269  16.657  1.4485  0.0049 -0.4202
 7600TIP3   OH244290   3.174   6.134   1.791  0.1715  0.0347 -0.3256
 7600TIP3    H144291   3.136   6.178   1.867  0.0944  0.5461 -0.6517
 7600TIP3    H244292   3.110   6.066   1.768 -0.6708  1.0230 -0.9910
 7601TIP3   OH244293   4.520   3.075   3.199  0.7691 -0.2331  0.5543
 7601TIP3    H144294   4.610   3.101   3.219  1.0779  1.1284 -2.1134
 7601TIP3    H244295   4.468   3.153   3.217 -0.1176 -1.2547  2.8777
 7602TIP3   OH244296   2.655   1.614  14.323  0.2838  0.2159 -0.0992
 7602TIP3    H144297   2.635   1.534  14.275 -0.1416  0.4968 -0.4011
 7602TIP3    H244298   2.608   1.604  14.406  1.2711 -0.4068  0.4037
 7603TIP3   OH244299   1.073   3.412  16.779 -0.0392  0.3281  0.2314
 7603TIP3    H144300   1.099   3.466  16.854 -2.6279  0.9850  0.7373
 7603TIP3    H244301   1.074   3.472  16.705  4.2196 -0.6893 -0.7949
 7604TIP3   OH244302   3.490   4.244  13.623  0.0359 -0.1967 -0.0816
 7604TIP3    H144303   3.440   4.271  13.546 -1.1551  0.3770  0.8651
 7604TIP3    H244304   3.441   4.169  13.657  0.2355 -0.0860  0.4480
 7605TIP3   OH244305   0.545   6.560  11.510  0.7890  0.1304  0.4177
 7605TIP3    H144306   0.482   6.630  11.527 -0.3474 -0.8273  0.3346
 7605TIP3    H244307   0.546   6.551  11.415 -0.2785 -0.9777  0.4784
 7606TIP3   OH244308   5.113   2.365  11.888 -0.0651  0.1588  0.4795
 7606TIP3    H144309   5.098   2.308  11.813 -3.3876  0.2714  0.9072
 7606TIP3    H244310   5.132   2.451  11.850  0.0142 -0.1617 -0.2021
 7607TIP3   OH244311   1.651   5.236   3.850  0.2733 -0.2425 -0.3441
 7607TIP3    H144312   1.704   5.156   3.848  0.5821 -0.0376 -0.6712
 7607TIP3    H244313   1.622   5.247   3.759  0.9352  0.4711 -0.4753
 7608TIP3   OH244314   5.711   0.695   0.154  0.3396 -0.6845 -0.4895
 7608TIP3    H144315   5.642   0.670   0.093  1.0642 -0.2626 -1.5111
 7608TIP3    H244316   5.753   0.612   0.178  0.3345 -0.8097 -0.9080
 7609TIP3   OH244317   1.441   5.598  16.638  0.2081  0.1834 -0.5062
 7609TIP3    H144318   1.468   5.631  16.552  0.8794 -0.7861 -0.6846
 7609TIP3    H244319   1.434   5.503  16.626  1.5771 -0.1194  0.8453
 7610TIP3   OH244320   2.846   3.945   6.449  0.0375 -0.1561 -0.3313
 7610TIP3    H144321   2.775   3.999   6.413 -0.5569 -0.0756  0.9009
 7610TIP3    H244322   2.809   3.857   6.455 -0.6592  0.2287  2.0377
 7611TIP3   OH244323   5.659   4.883  14.839 -0.2916  0.0721  0.1521
 7611TIP3    H144324   5.659   4.809  14.779  1.0306 -0.0748  0.3195
 7611TIP3    H244325   5.653   4.844  14.926 -2.3594  0.2879  0.1674
 7612TIP3   OH244326   3.078   2.316  16.278  0.1530 -0.6239  0.8104
 7612TIP3    H144327   3.115   2.396  16.316 -0.8308  0.4239 -0.3201
 7612TIP3    H244328   3.133   2.297  16.202 -0.1079 -0.5267  0.5938
 7613TIP3   OH244329   5.083   4.205  14.338  0.3537 -0.9407 -0.1374
 7613TIP3    H144330   5.143   4.130  14.341 -0.5790 -1.6734  1.5020
 7613TIP3    H244331   5.110   4.260  14.412 -0.1979 -0.6427 -0.1548
 7614TIP3   OH244332   5.515   2.545  16.742 -0.2750  0.1988 -0.0164
 7614TIP3    H144333   5.421   2.561  16.735 -0.4157 -0.2619  0.6194
 7614TIP3    H244334   5.528   2.461  16.698  0.2829  1.4485 -2.3997
 7615TIP3   OH244335   2.646   2.162  14.915  0.0207  0.9730  0.1727
 7615TIP3    H144336   2.605   2.120  14.839  1.1487  1.4234 -0.6949
 7615TIP3    H244337   2.587   2.235  14.936 -0.2127  0.9434 -0.3604
 7616TIP3   OH244338   4.875   1.648   1.192  0.4035  0.3795  0.2944
 7616TIP3    H144339   4.821   1.713   1.237 -0.7818  0.3275 -0.9762
 7616TIP3    H244340   4.864   1.669   1.099  0.6210 -1.1666 -0.0995
 7617TIP3   OH244341   4.938   4.686  13.277  0.3627 -0.4090 -0.2633
 7617TIP3    H144342   5.021   4.730  13.259  1.1941 -2.0612 -0.6679
 7617TIP3    H244343   4.877   4.721  13.212  1.6277 -1.5345 -2.1514
 7618TIP3   OH244344   6.401   5.565  15.896  0.4608  0.2835  0.2171
 7618TIP3    H144345   6.313   5.560  15.857  1.3945  0.7335 -2.1562
 7618TIP3    H244346   6.400   5.500  15.966 -1.6553  0.0389  0.0414
 7619TIP3   OH244347   6.676   5.949  11.089  0.6936 -0.3471  0.3661
 7619TIP3    H144348   6.756   6.001  11.100  1.4604 -1.8458  2.4302
 7619TIP3    H244349   6.701   5.878  11.029  0.4288  0.0681 -0.2501
 7620TIP3   OH244350   3.215   1.586  11.150  0.2178 -0.0554  0.0479
 7620TIP3    H144351   3.220   1.541  11.234  2.1089 -2.8883 -1.3762
 7620TIP3    H244352   3.151   1.535  11.100  0.0370  0.8070 -0.6129
 7621TIP3   OH244353   1.005   6.003   3.278 -0.3762  0.3905 -0.5731
 7621TIP3    H144354   0.937   6.044   3.224 -2.0189 -0.4811  0.7294
 7621TIP3    H244355   1.001   5.910   3.256 -0.8533  0.0655  0.7426
 7622TIP3   OH244356   6.069   5.491  10.843 -0.2409 -0.8166 -0.3999
 7622TIP3    H144357   6.126   5.426  10.802  0.4207 -0.7539  0.4027
 7622TIP3    H244358   5.992   5.494  10.786  0.9547 -0.1777 -2.0628
 7623TIP3   OH244359   6.798   3.971  11.282  0.1736 -0.1952  0.4656
 7623TIP3    H144360   6.733   3.987  11.350 -0.7532  1.9540 -0.8355
 7623TIP3    H244361   6.882   3.996  11.321  0.6237 -4.2217  2.6217
 7624TIP3   OH244362   2.496   4.052  15.970 -0.1838 -0.3079 -0.1092
 7624TIP3    H144363   2.445   4.124  15.934 -0.9341 -0.1951  1.1174
 7624TIP3    H244364   2.472   3.977  15.916 -2.4657 -0.4803  0.9958
 7625TIP3   OH244365   3.261   6.487   4.061  0.1429 -0.5588 -0.1497
 7625TIP3    H144366   3.329   6.488   4.128 -1.1605 -0.2142  1.2303
 7625TIP3    H244367   3.269   6.572   4.017 -0.1438 -0.0121  0.8245
 7626TIP3   OH244368   3.852   0.109  15.223  0.5234 -0.0877  0.3033
 7626TIP3    H144369   3.815   0.114  15.311  1.5579 -0.1618  0.7511
 7626TIP3    H244370   3.945   0.093  15.236  0.3750 -2.2790 -0.8294
 7627TIP3   OH244371   2.163   5.715   3.184  0.5584  0.3333  0.0093
 7627TIP3    H144372   2.172   5.658   3.108  3.2173  1.2672 -0.4882
 7627TIP3    H244373   2.220   5.676   3.250 -0.7442  0.2293  1.0992
 7628TIP3   OH244374   0.625   4.758   2.602 -0.4826  0.6471  0.1387
 7628TIP3    H144375   0.701   4.785   2.653 -0.3705 -0.0597  0.3449
 7628TIP3    H244376   0.659   4.745   2.513  0.2330 -2.1884  0.7191
 7629TIP3   OH244377   6.553   3.715  13.713  0.2682  0.2736  0.0192
 7629TIP3    H144378   6.602   3.635  13.733  0.2188  0.4297  0.8058
 7629TIP3    H244379   6.535   3.710  13.619  2.3769  0.5461 -0.4478
 7630TIP3   OH244380   3.005   1.158  11.376 -0.2272 -0.6800 -0.3094
 7630TIP3    H144381   2.916   1.155  11.412  0.2885 -1.7484  0.9519
 7630TIP3    H244382   3.044   1.074  11.401  0.7741 -0.7033 -1.8442
 7631TIP3   OH244383   3.563   2.467  13.551 -0.0995 -1.2592 -0.3965
 7631TIP3    H144384   3.474   2.494  13.570 -0.9048 -3.5062 -0.6622
 7631TIP3    H244385   3.555   2.406  13.478  1.6301 -1.6481 -0.3161
 7632TIP3   OH244386   0.265   6.621   4.779  0.3286  0.1969  0.1704
 7632TIP3    H144387   0.285   6.651   4.868  1.8118  0.3437 -0.1853
 7632TIP3    H244388   0.342   6.647   4.727 -0.1560 -0.6040 -0.9868
 7633TIP3   OH244389   5.062   3.530  10.832  0.4908  0.0952  0.4132
 7633TIP3    H144390   5.112   3.457  10.793  0.8694  0.7655 -0.4025
 7633TIP3    H244391   5.057   3.509  10.925 -1.9731 -2.4693 -0.1753
 7634TIP3   OH244392   2.472   4.116   3.465 -0.1491 -0.2118  0.0124
 7634TIP3    H144393   2.525   4.080   3.395  0.2493 -0.1482  0.2793
 7634TIP3    H244394   2.392   4.146   3.422 -0.0287 -0.4394 -0.3671
 7635TIP3   OH244395   4.571   5.107  12.620 -0.0652  0.0896 -0.2079
 7635TIP3    H144396   4.634   5.157  12.672 -0.3374  2.3377 -1.8876
 7635TIP3    H244397   4.616   5.091  12.537 -0.5093 -1.2931 -0.2085
 7636TIP3   OH244398   4.303   2.454   3.890  0.2127 -0.1982  0.1099
 7636TIP3    H144399   4.342   2.383   3.940 -0.9921 -1.2131 -0.3221
 7636TIP3    H244400   4.274   2.413   3.809 -1.1214  0.6316  0.1309
 7637TIP3   OH244401   3.419   5.717  12.439 -0.0606  0.5246  0.1362
 7637TIP3    H144402   3.413   5.806  12.404 -0.3091  0.7462  0.7304
 7637TIP3    H244403   3.332   5.698  12.473  0.6611  1.1171  2.5045
 7638TIP3   OH244404   3.424   1.317   0.462  0.2105 -0.0112 -0.3208
 7638TIP3    H144405   3.353   1.254   0.475 -0.2641  0.7230  0.9034
 7638TIP3    H244406   3.476   1.312   0.543  1.0771  0.0548 -0.8564
 7639TIP3   OH244407   5.123   5.717   3.674  0.1947 -0.4901 -0.1544
 7639TIP3    H144408   5.130   5.748   3.583 -2.6134  0.4099 -0.1695
 7639TIP3    H244409   5.071   5.784   3.718  0.6471 -1.4135  1.8970
 7640TIP3   OH244410   6.021   2.943  13.374  0.1782 -0.6935 -0.0550
 7640TIP3    H144411   6.065   2.891  13.307  0.5778 -3.6722  2.2964
 7640TIP3    H244412   5.945   2.890  13.399 -0.8393  1.0792  0.7578
 7641TIP3   OH244413   2.331   2.257  14.359  0.7270 -0.3609  0.6407
 7641TIP3    H144414   2.417   2.268  14.400 -0.0862  3.2055  1.6900
 7641TIP3    H244415   2.344   2.285  14.268  0.6770  0.1725  0.7974
 7642TIP3   OH244416   3.602   2.670  12.810  0.4975 -0.2124 -0.6784
 7642TIP3    H144417   3.626   2.580  12.792  0.2232 -0.4605  0.1615
 7642TIP3    H244418   3.606   2.714  12.724 -0.0330 -1.1662 -1.2047
 7643TIP3   OH244419   5.754   5.112   2.979  0.0894 -0.4975  0.3238
 7643TIP3    H144420   5.829   5.057   3.003  0.4899 -0.9361 -1.7642
 7643TIP3    H244421   5.702   5.059   2.920  0.3399  1.2281 -1.5592
 7644TIP3   OH244422   2.333   0.319  17.271 -0.0106  0.3412  0.6670
 7644TIP3    H144423   2.260   0.258  17.258 -0.9815  1.3273  1.3592
 7644TIP3    H244424   2.352   0.353  17.184  0.5800 -0.9711  0.2619
 7645TIP3   OH244425   2.470   0.931   4.605  0.3928  0.0752 -0.1534
 7645TIP3    H144426   2.564   0.912   4.609  0.4237  0.2610  0.0207
 7645TIP3    H244427   2.457   0.968   4.518  0.5233  0.2563 -0.0990
 7646TIP3   OH244428   3.690   1.588  10.582  0.0148 -0.3842  0.3114
 7646TIP3    H144429   3.664   1.511  10.531  0.0811 -1.0216  1.2086
 7646TIP3    H244430   3.613   1.644  10.583 -0.4923 -1.0703  0.7801
 7647TIP3   OH244431   2.353   2.065  12.207  0.4569  0.5465  0.2644
 7647TIP3    H144432   2.314   2.132  12.263 -2.1584 -0.8236  0.2256
 7647TIP3    H244433   2.280   2.029  12.158  1.7589 -2.2708  0.2115
 7648TIP3   OH244434   3.302   5.785  11.416  0.2084  0.2613 -0.0331
 7648TIP3    H144435   3.373   5.841  11.447 -0.7419  1.1307  0.6580
 7648TIP3    H244436   3.223   5.837  11.430 -0.7724 -1.4265  1.1111
 7649TIP3   OH244437   0.544   4.823   1.462  0.2147  0.5854  0.0671
 7649TIP3    H144438   0.512   4.906   1.428  2.6772  2.0885  1.1155
 7649TIP3    H244439   0.610   4.848   1.527  0.6774 -2.2047  0.7885
 7650TIP3   OH244440   1.116   4.924  15.992 -0.4166  0.1259 -0.4838
 7650TIP3    H144441   1.138   5.016  16.002 -1.0425  0.6093 -2.8435
 7650TIP3    H244442   1.035   4.912  16.041  0.0357  0.6421  0.4075
 7651TIP3   OH244443   6.585   2.062  12.718 -0.6801  0.0362 -0.0770
 7651TIP3    H144444   6.497   2.099  12.721 -0.2472  1.0621  0.4635
 7651TIP3    H244445   6.587   2.012  12.636 -1.8381 -0.2097  0.0290
 7652TIP3   OH244446   0.308   4.559   3.801 -0.2025 -0.2118  0.9480
 7652TIP3    H144447   0.346   4.503   3.869  0.8214 -1.5433 -0.6501
 7652TIP3    H244448   0.308   4.505   3.722  2.1458  2.4173 -1.0626
 7653TIP3   OH244449   4.831   1.690   3.500  0.4683  0.6145  0.1983
 7653TIP3    H144450   4.840   1.621   3.434 -0.5476  1.9061 -1.3525
 7653TIP3    H244451   4.879   1.657   3.576  1.4104 -1.0645 -1.0704
 7654TIP3   OH244452   1.578   2.481   5.916 -0.5520 -0.1748  0.1154
 7654TIP3    H144453   1.552   2.539   5.845 -2.2851 -0.4650  0.4711
 7654TIP3    H244454   1.550   2.526   5.996  1.0387 -0.0258  0.6265
 7655TIP3   OH244455   5.347   6.573  15.562 -0.0981  0.2068 -0.6729
 7655TIP3    H144456   5.352   6.638  15.491  1.1168  0.4210 -0.4187
 7655TIP3    H244457   5.383   6.618  15.638 -1.4024 -0.0178  0.1014
 7656TIP3   OH244458   4.736   5.714  15.155  0.6094  0.2411 -0.3990
 7656TIP3    H144459   4.699   5.798  15.183 -1.5378 -0.6042 -0.4686
 7656TIP3    H244460   4.674   5.681  15.090  1.2156 -1.5486 -0.1221
 7657TIP3   OH244461   3.902   6.242   3.611 -0.0265 -0.0307  0.0938
 7657TIP3    H144462   3.873   6.302   3.680 -1.2863  0.5786 -0.9086
 7657TIP3    H244463   3.917   6.299   3.535 -1.0753 -0.9326 -0.8326
 7658TIP3   OH244464   6.336   1.876   0.903  0.1034 -0.1071  0.2954
 7658TIP3    H144465   6.423   1.837   0.907  0.0819 -0.0596  1.5295
 7658TIP3    H244466   6.283   1.823   0.963  0.1513  1.9773  2.3182
 7659TIP3   OH244467   3.490   0.323   5.174  0.0194  0.1597 -0.0886
 7659TIP3    H144468   3.568   0.273   5.199  1.5888  1.0236 -2.8058
 7659TIP3    H244469   3.417   0.271   5.205  1.6570 -1.1670  1.7586
 7660TIP3   OH244470   4.568   3.364  13.458  0.2849  0.0020  0.0810
 7660TIP3    H144471   4.478   3.343  13.481 -0.3599  2.6920  0.3696
 7660TIP3    H244472   4.571   3.354  13.362 -1.1855  2.5208 -0.3016
 7661TIP3   OH244473   2.399   0.072  14.029 -0.2755  0.3096  0.3390
 7661TIP3    H144474   2.361   0.158  14.052 -4.3972 -1.0625 -0.3791
 7661TIP3    H244475   2.369   0.014  14.099 -0.1546 -1.0634 -0.7105
 7662TIP3   OH244476   6.414   0.837   3.803 -0.2129 -0.1421  0.0626
 7662TIP3    H144477   6.442   0.908   3.745  0.2343  0.7307  1.3090
 7662TIP3    H244478   6.326   0.814   3.773  0.4525 -0.5511 -1.7161
 7663TIP3   OH244479   5.195   4.575  11.271  0.3979 -0.2117 -0.2018
 7663TIP3    H144480   5.246   4.548  11.347 -0.1097 -1.2413 -0.2185
 7663TIP3    H244481   5.249   4.642  11.229  0.5248  0.6591  1.2602
 7664TIP3   OH244482   4.086   4.870  12.337  0.2751 -0.1465  0.4189
 7664TIP3    H144483   4.047   4.956  12.322  1.0834  0.2167  0.3087
 7664TIP3    H244484   4.030   4.829  12.402  0.3764  0.8300  1.1447
 7665TIP3   OH244485   2.371   0.265   4.184  0.2493  0.0719 -0.0382
 7665TIP3    H144486   2.462   0.240   4.168  0.1477 -0.5244  0.2506
 7665TIP3    H244487   2.353   0.232   4.273 -1.3907 -3.3773 -1.4466
 7666TIP3   OH244488   6.490   3.302  16.457  0.0824 -0.6439 -0.0700
 7666TIP3    H144489   6.477   3.351  16.538  0.4998 -1.7139  0.6685
 7666TIP3    H244490   6.534   3.222  16.485 -1.9282 -2.1446 -1.0159
 7667TIP3   OH244491   2.979   0.326   5.125 -0.1699 -0.1971 -0.1344
 7667TIP3    H144492   2.912   0.363   5.182  0.3771 -1.0152  1.0759
 7667TIP3    H244493   3.036   0.399   5.104  0.3300 -0.1214  1.4024
 7668TIP3   OH244494   5.421   1.923  16.042 -0.1105  0.3556  0.5886
 7668TIP3    H144495   5.464   1.912  16.127 -0.0066  1.7052  0.7297
 7668TIP3    H244496   5.493   1.928  15.980 -0.1913 -3.2514 -0.0101
 7669TIP3   OH244497   1.895   1.602  17.241  0.6093  0.5505  0.0967
 7669TIP3    H144498   1.973   1.609  17.187  1.4768 -1.9881  0.8765
 7669TIP3    H244499   1.866   1.511  17.231 -0.3589  0.5364  2.2988
 7670TIP3   OH244500   5.097   1.594  14.980 -0.3290 -0.0358 -0.0127
 7670TIP3    H144501   5.026   1.644  14.940 -0.9301  0.7764  1.9327
 7670TIP3    H244502   5.177   1.631  14.941 -0.8287  1.6363  0.4408
 7671TIP3   OH244503   6.667   4.457  11.976 -0.1699 -0.3838 -0.5294
 7671TIP3    H144504   6.608   4.441  12.050  0.8411  1.3717  0.7681
 7671TIP3    H244505   6.710   4.373  11.961 -1.6087 -1.2048 -0.2566
 7672TIP3   OH244506   3.302   5.061  16.767 -0.4881  0.2960  0.7067
 7672TIP3    H144507   3.276   5.012  16.689 -0.5636  0.0185  0.9059
 7672TIP3    H244508   3.279   5.152  16.747 -1.1770  0.1212  0.6872
 7673TIP3   OH244509   4.307   0.475  12.484 -0.5918  0.1708  0.5743
 7673TIP3    H144510   4.226   0.438  12.518 -0.0866 -0.7323  0.8522
 7673TIP3    H244511   4.288   0.568  12.470 -1.4726  0.1022  1.2456
 7674TIP3   OH244512   4.975   4.606   1.624  0.3285 -0.3453 -0.5451
 7674TIP3    H144513   5.062   4.645   1.630  1.0391 -1.7850 -0.8443
 7674TIP3    H244514   4.968   4.580   1.532  0.5959 -2.3620 -0.0410
 7675TIP3   OH244515   2.266   2.196  16.017 -0.2730  0.1758 -0.3001
 7675TIP3    H144516   2.288   2.276  15.970 -0.7069  0.4155 -0.1058
 7675TIP3    H244517   2.347   2.170  16.061  0.0135  0.1980 -0.8099
 7676TIP3   OH244518   5.199   5.905   1.036  0.4195 -0.2085 -0.3759
 7676TIP3    H144519   5.194   5.818   0.997 -0.6107 -0.8864  1.1633
 7676TIP3    H244520   5.227   5.962   0.965  1.1869 -1.8061 -1.4023
 7677TIP3   OH244521   0.023   2.488   3.978 -0.4088 -0.2852 -0.1680
 7677TIP3    H144522   0.117   2.470   3.989 -0.2843  0.7565  0.5214
 7677TIP3    H244523   0.009   2.481   3.883  0.5685  0.4996 -0.3872
 7678TIP3   OH244524   0.853   5.195   0.378  0.6752 -0.3418 -0.1450
 7678TIP3    H144525   0.767   5.152   0.387  1.1574 -1.1076  1.0583
 7678TIP3    H244526   0.902   5.136   0.321  1.2548 -1.3243  1.3089
 7679TIP3   OH244527   4.089   5.578  16.294  0.1501  0.1285 -0.1691
 7679TIP3    H144528   4.124   5.607  16.210  0.1171  1.2282  0.1936
 7679TIP3    H244529   4.006   5.624  16.303  0.3721  0.3716  0.6716
 7680TIP3   OH244530   3.419   0.412   1.559 -0.1387 -0.0722  0.1859
 7680TIP3    H144531   3.427   0.426   1.653 -0.4598 -0.3321  0.2522
 7680TIP3    H244532   3.328   0.386   1.545  0.2857 -1.5789  0.0140
 7681TIP3   OH244533   1.620   5.505   3.037 -0.6207  0.0703 -0.2058
 7681TIP3    H144534   1.538   5.555   3.038 -1.9562 -2.0025  0.3443
 7681TIP3    H244535   1.640   5.494   2.945 -0.1512  1.7908 -0.3384
 7682TIP3   OH244536   6.243   4.222   1.812  0.1380 -0.6140  0.0639
 7682TIP3    H144537   6.203   4.193   1.730  0.8530  1.8059 -1.2369
 7682TIP3    H244538   6.189   4.181   1.880 -2.4664 -0.2035 -1.5995
 7683TIP3   OH244539   4.831   3.725  13.471  0.1482  0.4152 -0.0009
 7683TIP3    H144540   4.768   3.791  13.443  0.0153  0.8230  1.2141
 7683TIP3    H244541   4.845   3.743  13.564  1.4535 -0.1632 -0.0618
 7684TIP3   OH244542   2.451   5.460   6.679  0.4943 -0.0343  0.3296
 7684TIP3    H144543   2.486   5.376   6.709  0.7385 -0.7101 -1.6419
 7684TIP3    H244544   2.358   5.444   6.667  0.5439 -0.0503 -0.0612
 7685TIP3   OH244545   4.786   6.002  14.744 -0.4743 -0.3693 -0.1043
 7685TIP3    H144546   4.792   6.064  14.817 -0.6009 -1.0742  0.5118
 7685TIP3    H244547   4.853   6.032  14.682 -1.5301  1.2915 -0.5276
 7686TIP3   OH244548   6.594   4.733   3.444  0.0069  0.3335  0.1944
 7686TIP3    H144549   6.507   4.745   3.483  0.6764  0.6655  1.6349
 7686TIP3    H244550   6.576   4.718   3.351 -1.5537  1.0204  0.3515
 7687TIP3   OH244551   0.617   5.557  12.405 -0.6099 -0.2794  0.6581
 7687TIP3    H144552   0.625   5.590  12.315  1.9695 -1.3016  0.4314
 7687TIP3    H244553   0.524   5.535  12.414 -0.9702 -0.0581 -1.7165
 7688TIP3   OH244554   5.358   6.141  12.030 -0.3994  0.0400  0.4890
 7688TIP3    H144555   5.304   6.177  11.960 -0.7179  1.3367  1.3533
 7688TIP3    H244556   5.363   6.048  12.012  0.4169  0.4741 -1.8558
 7689TIP3   OH244557   3.615   5.918  14.065 -0.0161  0.1012  0.2931
 7689TIP3    H144558   3.623   5.959  13.979  1.1563 -0.9105 -0.1146
 7689TIP3    H244559   3.700   5.934  14.107  1.1778 -3.1948 -0.5370
 7690TIP3   OH244560   1.760   0.299   3.061  0.0542 -0.0157 -0.1284
 7690TIP3    H144561   1.741   0.218   3.110  3.3719 -0.8607  0.0024
 7690TIP3    H244562   1.774   0.270   2.971  0.8266  0.4541 -0.1686
 7691TIP3   OH244563   6.192   6.157  17.054 -0.6550 -0.3566  0.0952
 7691TIP3    H144564   6.225   6.157  17.144  1.9091 -0.7262 -0.7511
 7691TIP3    H244565   6.168   6.248  17.037  2.1423  0.4900  0.1415
 7692TIP3   OH244566   2.612   6.793  13.571 -0.5063 -0.1692 -0.2674
 7692TIP3    H144567   2.577   6.752  13.650  0.4546  0.1500  0.3241
 7692TIP3    H244568   2.635   6.720  13.514 -2.9153 -0.4118 -1.0602
 7693TIP3   OH244569   4.345   4.043  16.172  0.0343  0.5076  0.9545
 7693TIP3    H144570   4.264   3.995  16.193 -0.1986  0.3682 -0.1864
 7693TIP3    H244571   4.323   4.135  16.187 -0.0942  0.4116  1.3731
 7694TIP3   OH244572   5.958   5.964   3.406 -0.3173  0.7997 -0.2490
 7694TIP3    H144573   6.037   5.957   3.353  0.2356  0.2510  0.6401
 7694TIP3    H244574   5.895   5.905   3.364  0.1244  0.3512 -0.2774
 7695TIP3   OH244575   4.583   5.158   5.258 -0.5350  0.3727  0.3013
 7695TIP3    H144576   4.573   5.237   5.205 -3.1902 -1.2659 -1.8535
 7695TIP3    H244577   4.512   5.164   5.323  0.1457  0.3803  1.0683
 7696TIP3   OH244578   2.692   1.091  15.467 -0.2013 -0.2778 -0.6557
 7696TIP3    H144579   2.625   1.158  15.480 -0.2524 -0.2039 -1.2547
 7696TIP3    H244580   2.651   1.027  15.409 -0.6812 -1.6216  1.0676
 7697TIP3   OH244581   0.809   4.092  16.181  0.1821 -0.7224  0.5054
 7697TIP3    H144582   0.746   4.136  16.123  0.0085 -1.3374  0.2253
 7697TIP3    H244583   0.886   4.150  16.180 -0.1119 -0.3292  0.2861
 7698TIP3   OH244584   2.423   4.759   4.835  0.6396 -0.0048  1.0428
 7698TIP3    H144585   2.381   4.814   4.901  1.5413  0.3824  1.3049
 7698TIP3    H244586   2.498   4.810   4.805  0.4264 -0.3219 -0.0523
 7699TIP3   OH244587   2.043   3.011  15.679  0.3100 -0.1462  0.0668
 7699TIP3    H144588   2.071   3.051  15.597 -0.1965  0.5401  0.2231
 7699TIP3    H244589   2.125   2.981  15.720  0.6166  0.0280 -0.4159
 7700TIP3   OH244590   3.791   1.723   3.622  0.2167  0.0634  0.1407
 7700TIP3    H144591   3.849   1.779   3.675 -1.9476  1.4761  1.1432
 7700TIP3    H244592   3.754   1.783   3.557 -0.0150 -0.8538 -0.5903
 7701TIP3   OH244593   0.606   3.037   4.801  0.2999 -0.6187  0.0716
 7701TIP3    H144594   0.672   2.989   4.751  0.7275  1.4498 -1.4517
 7701TIP3    H244595   0.656   3.090   4.863 -0.0648 -0.6933  0.4350
 7702TIP3   OH244596   2.683   3.933   6.155 -0.0591 -0.1474  0.7589
 7702TIP3    H144597   2.659   4.006   6.212 -2.0857 -0.0265 -0.1428
 7702TIP3    H244598   2.769   3.957   6.120 -0.0687  1.1444  1.5469
 7703TIP3   OH244599   4.655   3.055  11.347 -0.2930 -0.2523 -0.4340
 7703TIP3    H144600   4.612   2.978  11.383  1.6546 -1.5936 -0.8374
 7703TIP3    H244601   4.733   3.067  11.401  0.9933 -0.3841 -2.1810
 7704TIP3   OH244602   1.549   1.095  16.980  0.4009  0.6484 -0.0064
 7704TIP3    H144603   1.496   1.127  16.907 -1.3968 -0.8720  0.5495
 7704TIP3    H244604   1.500   1.121  17.058  0.0174 -1.4198  0.5075
 7705TIP3   OH244605   0.206   3.894   4.362  0.4189 -0.1665 -0.1423
 7705TIP3    H144606   0.278   3.838   4.333 -0.0048 -0.3446 -0.8820
 7705TIP3    H244607   0.235   3.983   4.344 -0.2009 -0.3051 -2.0641
 7706TIP3   OH244608   2.399   5.614   1.670 -0.4634  0.1299 -0.3953
 7706TIP3    H144609   2.409   5.520   1.653  0.5798 -0.0166  0.8646
 7706TIP3    H244610   2.305   5.626   1.683 -0.5320 -0.8709  0.1216
 7707TIP3   OH244611   2.846   0.383  12.369  0.1510 -0.4375  0.5255
 7707TIP3    H144612   2.937   0.409  12.356  0.6354 -1.6460  1.3108
 7707TIP3    H244613   2.804   0.461  12.406  1.0166 -0.0616  0.7378
 7708TIP3   OH244614   0.194   6.358  11.265  0.2779  0.4335 -0.0428
 7708TIP3    H144615   0.239   6.285  11.223  1.3649  0.2782  1.3335
 7708TIP3    H244616   0.131   6.388  11.199  0.5162 -1.0774 -1.0079
 7709TIP3   OH244617   5.094   1.050  12.553 -0.5820 -0.1303 -0.4164
 7709TIP3    H144618   5.115   1.141  12.530 -3.8677  0.6136 -0.9804
 7709TIP3    H244619   5.101   1.048  12.649  0.1838  0.5003 -0.4461
 7710TIP3   OH244620   4.549   6.127   0.977  0.7405  0.0911  0.4411
 7710TIP3    H144621   4.598   6.127   0.895 -0.1997 -0.3033 -0.1380
 7710TIP3    H244622   4.554   6.218   1.008 -2.0207  1.2427 -2.0209
 7711TIP3   OH244623   0.680   3.790  15.237  0.0035  0.3011 -0.1672
 7711TIP3    H144624   0.700   3.861  15.299 -1.5359 -0.1588  0.9303
 7711TIP3    H244625   0.705   3.710  15.284  1.6655  0.0473 -1.3690
 7712TIP3   OH244626   4.129   5.171  16.036 -0.4699  0.1546 -0.1774
 7712TIP3    H144627   4.109   5.232  16.107 -0.3364 -0.3465  0.2935
 7712TIP3    H244628   4.204   5.210  15.992 -1.3063  1.1048 -0.8202
 7713TIP3   OH244629   0.751   4.174  13.928 -0.2670 -0.5148  0.0101
 7713TIP3    H144630   0.728   4.082  13.914 -0.8266 -0.5351  0.9782
 7713TIP3    H244631   0.841   4.182  13.895 -0.0788 -1.4924  0.2718
 7714TIP3   OH244632   3.499   2.951   3.463  0.1969 -0.0930  0.0604
 7714TIP3    H144633   3.493   2.891   3.388  1.7332  0.4980 -0.5843
 7714TIP3    H244634   3.415   2.941   3.508  0.0810 -2.1156 -0.4755
 7715TIP3   OH244635   1.925   5.616  12.772  0.5941  0.1070 -0.2060
 7715TIP3    H144636   1.860   5.612  12.843  0.3317  0.8602 -0.3910
 7715TIP3    H244637   1.999   5.565  12.805  1.8863  3.1671  2.1287
 7716TIP3   OH244638   3.513   3.439  15.287  0.2841  0.3657  0.0692
 7716TIP3    H144639   3.458   3.504  15.330  0.4571  1.4307 -1.2602
 7716TIP3    H244640   3.509   3.363  15.345 -1.4505  0.8845  0.7016
 7717TIP3   OH244641   2.520   3.910  13.133 -0.3346  0.7969  0.3714
 7717TIP3    H144642   2.599   3.884  13.085  0.3149  0.2929  1.6798
 7717TIP3    H244643   2.448   3.875  13.080  0.3574  0.3652 -0.3047
 7718TIP3   OH244644   6.256   1.608   4.657 -0.9594 -0.0624 -0.3998
 7718TIP3    H144645   6.266   1.553   4.579 -4.1154 -1.7441  0.1778
 7718TIP3    H244646   6.281   1.551   4.730 -0.3622  0.6672 -0.0254
 7719TIP3   OH244647   4.395   1.731  13.460 -0.1635  0.4010  0.5212
 7719TIP3    H144648   4.375   1.820  13.432 -1.9607 -0.3187 -0.7250
 7719TIP3    H244649   4.414   1.685  13.378 -0.5159 -0.6213  0.9953
 7720TIP3   OH244650   0.300   4.959  12.712  0.2840  0.5293  0.7521
 7720TIP3    H144651   0.392   4.985  12.716  1.3360 -2.3219 -1.4948
 7720TIP3    H244652   0.301   4.866  12.690 -3.1901 -0.2751  3.0992
 7721TIP3   OH244653   0.237   0.821   4.389 -0.5924 -0.7190 -0.1457
 7721TIP3    H144654   0.146   0.830   4.360 -0.1729 -0.0573 -1.3559
 7721TIP3    H244655   0.232   0.776   4.473 -1.9833 -1.5546 -0.6474
 7722TIP3   OH244656   2.878   1.900  11.793 -0.1776  0.0524 -0.2266
 7722TIP3    H144657   2.821   1.860  11.858 -0.8411 -0.2867 -0.9900
 7722TIP3    H244658   2.909   1.981  11.834 -0.9881  0.0977  0.3177
 7723TIP3   OH244659   3.976   2.080  13.184  0.0861 -0.2966  0.4530
 7723TIP3    H144660   3.993   2.098  13.091  0.1800 -0.4294  0.4448
 7723TIP3    H244661   3.934   1.994  13.185 -0.2168 -0.1500  0.5067
 7724TIP3   OH244662   0.986   4.332   0.936 -0.1855  0.1929  0.2466
 7724TIP3    H144663   0.973   4.246   0.976 -0.4621  1.0444  2.1321
 7724TIP3    H244664   0.925   4.389   0.983  0.5196  1.5653 -0.4389
 7725TIP3   OH244665   6.598   3.921   1.418 -0.0640  0.3411 -0.0130
 7725TIP3    H144666   6.676   3.974   1.437 -1.1947  2.4290 -0.8747
 7725TIP3    H244667   6.613   3.888   1.329  0.8681 -1.2950  0.7092
 7726TIP3   OH244668   3.864   5.254  10.485 -0.4441  0.0468 -0.5089
 7726TIP3    H144669   3.803   5.277  10.555 -0.7510  0.6045 -0.9470
 7726TIP3    H244670   3.829   5.297  10.408  1.0396  1.2306 -0.5750
 7727TIP3   OH244671   4.647   6.171   4.933 -0.3369  0.1303 -0.7687
 7727TIP3    H144672   4.734   6.209   4.939 -0.3196  0.1966 -1.4081
 7727TIP3    H244673   4.662   6.081   4.902 -0.4075 -0.2763  0.3172
 7728TIP3   OH244674   5.676   5.526  17.036 -0.1052 -0.0002 -0.0113
 7728TIP3    H144675   5.742   5.567  17.091  0.2339  1.7627 -1.6303
 7728TIP3    H244676   5.725   5.475  16.972 -0.4649 -1.2504  0.6654
 7729TIP3   OH244677   3.059   2.683   1.632 -0.5981  0.5495  0.2256
 7729TIP3    H144678   2.990   2.738   1.595 -0.1790  2.3068  1.8820
 7729TIP3    H244679   3.036   2.676   1.725  0.5417 -0.2804  0.4609
 7730TIP3   OH244680   2.724   0.161   1.199 -0.9844 -0.2318  0.0287
 7730TIP3    H144681   2.674   0.239   1.223 -3.2083 -1.5436  0.0329
 7730TIP3    H244682   2.702   0.097   1.267  0.7015 -0.9023 -0.0258
 7731TIP3   OH244683   1.962   0.380   0.945  0.3207 -0.2543  0.5588
 7731TIP3    H144684   1.967   0.291   0.912 -0.3137 -0.7839  1.8543
 7731TIP3    H244685   1.968   0.371   1.040 -1.1521  0.9587  0.8026
 7732TIP3   OH244686   6.096   6.554  14.489 -0.6345 -0.0552  0.4858
 7732TIP3    H144687   6.092   6.473  14.540 -1.0344  0.2004  0.8609
 7732TIP3    H244688   6.185   6.555  14.454 -1.4604 -2.2294 -2.0915
 7733TIP3   OH244689   3.486   5.358  11.533  0.0025  0.2253  0.2265
 7733TIP3    H144690   3.517   5.384  11.447  2.7641  1.7235  1.5140
 7733TIP3    H244691   3.535   5.279  11.554  0.6656  0.8294  1.0539
 7734TIP3   OH244692   4.664   3.492  14.086  0.3281  0.3111 -0.3054
 7734TIP3    H144693   4.600   3.561  14.075 -0.0516  0.0752  0.3626
 7734TIP3    H244694   4.719   3.521  14.159 -1.1746 -1.0562  1.4350
 7735TIP3   OH244695   4.824   4.090  15.851  0.2845 -0.2778  0.4769
 7735TIP3    H144696   4.733   4.087  15.880  0.6617 -0.9609  1.6402
 7735TIP3    H244697   4.818   4.105  15.756 -0.9881  1.1148  0.7363
 7736TIP3   OH244698   2.229   5.965   0.097  0.2226 -0.2724  0.4765
 7736TIP3    H144699   2.270   5.889   0.057  1.8597  0.2080  1.1691
 7736TIP3    H244700   2.172   5.929   0.165  0.2758 -0.9003  0.1927
 7737TIP3   OH244701   4.046   0.930  15.942  0.8262 -0.0507 -0.0112
 7737TIP3    H144702   4.114   0.919  15.875  0.5866  2.1246 -0.6938
 7737TIP3    H244703   4.082   0.890  16.020  2.2437 -0.3189 -0.7758
 7738TIP3   OH244704   0.706   1.364   0.912  0.3868  0.2543  0.0637
 7738TIP3    H144705   0.665   1.295   0.962 -0.5294  0.4151 -0.4393
 7738TIP3    H244706   0.639   1.433   0.906 -0.0905 -0.3318 -2.5546
 7739TIP3   OH244707   5.882   5.344  13.183 -0.1454  0.1180  0.0365
 7739TIP3    H144708   5.940   5.268  13.183  1.3728  1.2123 -0.6786
 7739TIP3    H244709   5.833   5.337  13.101  0.4716  0.2401 -0.3508
 7740TIP3   OH244710   5.605   4.031  13.618 -0.1273 -0.4568 -0.7163
 7740TIP3    H144711   5.535   4.084  13.580 -0.7375  0.5801  1.6955
 7740TIP3    H244712   5.575   4.012  13.707  1.8102 -1.6504 -0.2669
 7741TIP3   OH244713   4.043   2.481   2.670  0.4636 -0.3029  0.0859
 7741TIP3    H144714   4.110   2.444   2.611  1.8016  0.4025  1.1141
 7741TIP3    H244715   4.077   2.568   2.692 -0.7594  0.0236  0.7211
 7742TIP3   OH244716   1.029   5.215   5.311  0.0305 -0.5595 -0.0709
 7742TIP3    H144717   1.002   5.166   5.389 -1.1379  1.0231  0.5783
 7742TIP3    H244718   0.948   5.250   5.275  0.6364 -0.6509 -1.6084
 7743TIP3   OH244719   5.690   0.824  11.893  0.5525  0.2712  0.6096
 7743TIP3    H144720   5.693   0.919  11.907 -0.4589  0.1889  1.4956
 7743TIP3    H244721   5.616   0.811  11.834  0.2321 -0.0186  1.0654
 7744TIP3   OH244722   1.789   5.580   1.410 -0.0319  0.1297  0.3481
 7744TIP3    H144723   1.732   5.649   1.444  0.7788  0.6687  0.6665
 7744TIP3    H244724   1.731   5.521   1.363 -0.8689  0.5665  0.8130
 7745TIP3   OH244725   4.410   4.395   4.680  0.2733 -0.0380  0.4577
 7745TIP3    H144726   4.327   4.348   4.687  0.0907  0.3944  1.2899
 7745TIP3    H244727   4.434   4.415   4.770  0.9427  0.4299  0.1823
 7746TIP3   OH244728   1.505   3.435  13.709  0.9285  0.3644 -0.3228
 7746TIP3    H144729   1.507   3.343  13.686 -0.3071  0.5820 -1.4820
 7746TIP3    H244730   1.533   3.439  13.800 -3.5851 -1.7851  1.4737
 7747TIP3   OH244731   2.331   4.626  13.114  0.0274  0.5942  0.1184
 7747TIP3    H144732   2.330   4.616  13.019 -2.3748  1.4829 -0.0174
 7747TIP3    H244733   2.384   4.704  13.130  2.0160 -0.5936 -0.2829
 7748TIP3   OH244734   4.289   3.443  12.254 -0.1373 -0.4824  0.2771
 7748TIP3    H144735   4.342   3.402  12.322 -0.6406 -0.0256  0.9645
 7748TIP3    H244736   4.350   3.497  12.205 -0.0450  0.4648  1.3969
 7749TIP3   OH244737   2.590   4.313   1.010  0.3445 -0.1868 -0.1008
 7749TIP3    H144738   2.525   4.356   0.955  0.6096  0.0635 -0.2166
 7749TIP3    H244739   2.661   4.289   0.950  0.6623  0.1422  0.1421
 7750TIP3   OH244740   4.485   2.072   6.355 -0.3074 -0.0152 -0.1156
 7750TIP3    H144741   4.391   2.090   6.344 -1.0326 -3.1109  0.1733
 7750TIP3    H244742   4.496   1.982   6.324  2.9612  0.8370 -1.8514
 7751TIP3   OH244743   1.122   0.356   0.005  0.5436  0.7924 -0.0070
 7751TIP3    H144744   1.163   0.424  -0.049  3.9971 -1.0023  0.0259
 7751TIP3    H244745   1.147   0.274  -0.037  0.4312 -0.5720  2.4007
 7752TIP3   OH244746   3.403   1.552   5.298 -0.3456  0.3829  0.3138
 7752TIP3    H144747   3.401   1.459   5.274  2.3222 -0.0099  1.3069
 7752TIP3    H244748   3.311   1.578   5.300 -1.1347 -2.0166 -0.7436
 7753TIP3   OH244749   1.454   2.938  13.036 -0.2818 -1.0001 -0.5793
 7753TIP3    H144750   1.371   2.976  13.062  0.4714 -0.7076  1.6079
 7753TIP3    H244751   1.435   2.890  12.956 -2.0237  1.0104 -1.4753
 7754TIP3   OH244752   1.361   2.299  14.493  0.1050  0.5602  0.6016
 7754TIP3    H144753   1.323   2.211  14.498 -0.6492  0.7378 -1.2866
 7754TIP3    H244754   1.449   2.286  14.460 -0.2720  0.5494 -0.4282
 7755TIP3   OH244755   3.850   0.103  10.862  0.1083 -0.1085 -0.4890
 7755TIP3    H144756   3.901   0.108  10.781  0.2305 -1.0216 -0.4864
 7755TIP3    H244757   3.760   0.120  10.835  0.4351  1.9590 -0.4261
 7756TIP3   OH244758   0.178   1.918  16.152  0.2920 -0.5579 -0.1829
 7756TIP3    H144759   0.229   1.870  16.087  0.4795  1.4515 -1.6515
 7756TIP3    H244760   0.099   1.946  16.105 -0.7183 -1.0131  1.1698
 7757TIP3   OH244761   5.874   0.651  13.946  0.3444 -0.5976 -0.9060
 7757TIP3    H144762   5.953   0.705  13.932 -0.5306  0.7987 -0.6912
 7757TIP3    H244763   5.805   0.697  13.897 -0.8354 -0.4915  0.7797
 7758TIP3   OH244764   3.129   5.581   0.599  0.0618  0.4178  0.1632
 7758TIP3    H144765   3.064   5.649   0.587 -1.6533 -1.2200 -0.3414
 7758TIP3    H244766   3.155   5.587   0.691  1.0376  2.6067 -0.1903
 7759TIP3   OH244767   4.676   1.665  17.259 -0.1615 -0.0739 -0.1989
 7759TIP3    H144768   4.691   1.750  17.218  2.9872 -0.3826  0.0938
 7759TIP3    H244769   4.626   1.685  17.338 -2.3835  1.0419 -1.7855
 7760TIP3   OH244770   1.484   6.663   0.580  0.5335  0.2732  0.0208
 7760TIP3    H144771   1.475   6.715   0.499  0.1347  0.2444  0.0459
 7760TIP3    H244772   1.473   6.727   0.650  1.2432  0.3627  0.0568
 7761TIP3   OH244773   5.220   5.734   1.395 -0.4812 -0.8297  0.1526
 7761TIP3    H144774   5.182   5.649   1.414  0.3649 -0.9832  1.2466
 7761TIP3    H244775   5.307   5.732   1.437  0.3586 -0.1475 -1.4564
 7762TIP3   OH244776   6.026   3.755   3.141  0.0177 -0.0982 -0.2606
 7762TIP3    H144777   5.947   3.760   3.087  2.1221 -0.1223 -3.6727
 7762TIP3    H244778   6.065   3.842   3.136  0.7743 -0.3819  0.3648
 7763TIP3   OH244779   5.525   3.991   2.254 -0.6889  0.5399 -0.8523
 7763TIP3    H144780   5.554   4.081   2.238 -2.1939  1.0600 -0.7995
 7763TIP3    H244781   5.580   3.937   2.198  2.0857  1.1909  1.0281
 7764TIP3   OH244782   5.508   6.713   1.453 -0.1154 -0.2798  0.3140
 7764TIP3    H144783   5.430   6.768   1.458 -0.3277 -0.5188 -0.3917
 7764TIP3    H244784   5.567   6.760   1.394 -0.4595 -0.9938 -0.6278
 7765TIP3   OH244785   6.480   1.605   6.224  0.0211 -0.3140 -0.2602
 7765TIP3    H144786   6.473   1.693   6.261  2.8844 -0.6536  1.3643
 7765TIP3    H244787   6.497   1.620   6.131 -0.9810  0.7903 -0.2862
 7766TIP3   OH244788   3.920   3.539  16.035  0.0483 -0.2401 -0.4436
 7766TIP3    H144789   3.935   3.537  15.940  0.0174 -1.5308 -0.4416
 7766TIP3    H244790   3.839   3.589  16.046  0.5141  0.6710 -1.0155
 7767TIP3   OH244791   3.784   0.706   6.466 -0.2645  0.2155  0.1084
 7767TIP3    H144792   3.842   0.724   6.540 -0.8661  1.8190  0.2421
 7767TIP3    H244793   3.716   0.649   6.501 -0.0775  0.2775  0.5724
 7768TIP3   OH244794   6.306   6.371  11.331 -0.1837 -0.4237  0.4158
 7768TIP3    H144795   6.371   6.301  11.344 -1.5259 -1.4376  2.1363
 7768TIP3    H244796   6.256   6.342  11.255  0.4049 -0.4119  0.0174
 7769TIP3   OH244797   3.561   4.741  13.336  0.0683  0.0003 -0.5743
 7769TIP3    H144798   3.594   4.665  13.288  1.3628  0.6562 -0.7722
 7769TIP3    H244799   3.635   4.802  13.337 -0.3940  0.5776  1.0374
 7770TIP3   OH244800   1.992   1.600  16.020  0.2479 -0.7051  0.5272
 7770TIP3    H144801   2.031   1.633  16.101  2.5473  0.7502 -1.0300
 7770TIP3    H244802   2.023   1.509  16.014 -1.3601 -1.4081  2.0453
 7771TIP3   OH244803   5.562   4.452   5.014  0.4813 -0.0236  0.2854
 7771TIP3    H144804   5.568   4.381   4.950 -0.1656  1.7089 -1.8155
 7771TIP3    H244805   5.468   4.469   5.022  0.5347 -0.3814  1.9436
 7772TIP3   OH244806   4.268   0.523   1.111 -0.8337 -0.5456  0.1597
 7772TIP3    H144807   4.214   0.472   1.172  0.6928 -1.8674  0.4682
 7772TIP3    H244808   4.318   0.457   1.063 -0.8505  0.5609 -1.4368
 7773TIP3   OH244809   1.089   2.917  16.476  0.0373 -0.4243 -0.3651
 7773TIP3    H144810   1.000   2.926  16.441  0.0563  0.3743 -0.2075
 7773TIP3    H244811   1.114   3.005  16.504 -0.6679 -1.2131  3.3765
 7774TIP3   OH244812   6.017   4.134  11.421 -0.0209 -0.0988 -0.0474
 7774TIP3    H144813   6.076   4.059  11.428 -1.0911 -0.7786  3.2281
 7774TIP3    H244814   5.932   4.095  11.403 -0.6049  0.2735  1.8003
 7775TIP3   OH244815   4.482   2.434  13.496  0.2331 -0.5383  0.0125
 7775TIP3    H144816   4.470   2.425  13.590  2.0152 -0.2464  0.3088
 7775TIP3    H244817   4.509   2.347  13.467  0.7085 -0.3730 -0.0453
 7776TIP3   OH244818   3.283   0.811   6.189 -0.3295 -0.4097 -0.4386
 7776TIP3    H144819   3.299   0.854   6.272 -0.3111  0.8369 -1.0682
 7776TIP3    H244820   3.199   0.846   6.159  0.7518  0.9662 -2.0292
 7777TIP3   OH244821   5.311   6.787  16.286  0.1723 -0.6007  0.1618
 7777TIP3    H144822   5.340   6.701  16.317 -0.8712  0.2055  3.8806
 7777TIP3    H244823   5.232   6.805  16.336  0.7349  2.8213  0.0602
 7778TIP3   OH244824   5.371   6.106   3.413  0.2858  0.4944 -0.4925
 7778TIP3    H144825   5.311   6.096   3.486 -0.1128 -0.9711 -0.9903
 7778TIP3    H244826   5.329   6.170   3.355  0.5325  1.5466  0.4425
 7779TIP3   OH244827   4.534   0.305   2.264 -0.0427  0.3724  0.6075
 7779TIP3    H144828   4.582   0.386   2.281  0.6799  0.0142  0.3447
 7779TIP3    H244829   4.465   0.303   2.330 -0.4694  1.5136  0.2175
 7780TIP3   OH244830   2.164   3.461  15.023 -0.1884 -0.2707 -0.3053
 7780TIP3    H144831   2.118   3.511  15.092  1.5340  0.9511  0.0382
 7780TIP3    H244832   2.253   3.450  15.058  0.2243 -1.1713 -1.6024
 7781TIP3   OH244833   2.959   4.205  11.782 -0.5224 -0.8234  0.1421
 7781TIP3    H144834   2.986   4.195  11.691  3.1605 -0.1821  1.0155
 7781TIP3    H244835   2.959   4.299  11.796  2.3135 -0.9393  1.5613
 7782TIP3   OH244836   0.858   4.490  17.156 -0.0977  0.3554  0.8292
 7782TIP3    H144837   0.813   4.436  17.220  0.5512  0.9469  1.8184
 7782TIP3    H244838   0.928   4.532  17.205  1.7527 -0.7636 -0.7061
 7783TIP3   OH244839   3.106   0.493  11.303  0.2484 -0.4123 -0.0370
 7783TIP3    H144840   3.190   0.453  11.327  1.4734  1.3405 -1.1798
 7783TIP3    H244841   3.066   0.515  11.387  1.0744 -0.9739  0.5274
 7784TIP3   OH244842   4.251   4.797   0.884 -0.5886  0.2072 -0.0448
 7784TIP3    H144843   4.199   4.842   0.817 -0.8051 -4.2526 -3.2616
 7784TIP3    H244844   4.190   4.736   0.924  0.6855 -0.4891  0.8982
 7785TIP3   OH244845   1.651   1.234  12.607 -0.3071 -0.1094  0.6665
 7785TIP3    H144846   1.687   1.314  12.645  1.6796 -0.6368  0.0494
 7785TIP3    H244847   1.596   1.197  12.675 -2.9795  2.7611  0.2817
 7786TIP3   OH244848   1.738   0.468  16.379  0.1415  0.0298  0.4204
 7786TIP3    H144849   1.705   0.540  16.325  0.4660 -0.1138  0.0314
 7786TIP3    H244850   1.769   0.511  16.459  1.8286  0.5296 -0.4621
 7787TIP3   OH244851   1.702   2.533  16.871  0.0578  0.1107 -0.4193
 7787TIP3    H144852   1.797   2.534  16.879  0.0929 -0.1221 -0.7743
 7787TIP3    H244853   1.682   2.607  16.813  0.0551 -0.0873 -0.6714
 7788TIP3   OH244854   4.995   4.089  16.304 -0.1575  0.4584  0.4106
 7788TIP3    H144855   4.961   4.161  16.250 -0.4647  0.6886  0.9052
 7788TIP3    H244856   4.950   4.099  16.388  0.6580  0.3882  0.8676
 7789TIP3   OH244857   0.791   3.629   2.745  0.6216  0.0040  0.9370
 7789TIP3    H144858   0.724   3.560   2.743  2.2097 -1.5951  1.1723
 7789TIP3    H244859   0.771   3.679   2.824 -0.5549 -0.1644  0.7656
 7790TIP3   OH244860   1.694   5.402   4.166 -0.2907 -0.9813  0.0346
 7790TIP3    H144861   1.634   5.354   4.222  0.5922 -0.5103  1.4357
 7790TIP3    H244862   1.722   5.477   4.219  1.7028 -1.3131 -0.4488
 7791TIP3   OH244863   3.956   3.837   3.846  0.0228  0.2439 -0.7987
 7791TIP3    H144864   3.907   3.895   3.905  0.9182 -1.2107  1.4932
 7791TIP3    H244865   3.888   3.794   3.794 -0.8147  1.4466 -0.7403
 7792TIP3   OH244866   5.683   4.288   5.256 -0.0931 -0.1695 -0.0419
 7792TIP3    H144867   5.623   4.328   5.193 -0.3938  1.1587  1.0416
 7792TIP3    H244868   5.750   4.354   5.270 -0.2696 -0.2533  1.3520
 7793TIP3   OH244869   6.075   2.920  13.108 -0.1048  0.2745 -0.4199
 7793TIP3    H144870   6.161   2.911  13.067  0.2757  2.2827 -0.1153
 7793TIP3    H244871   6.036   2.997  13.066 -0.7867  0.7929  1.1143
 7794TIP3   OH244872   1.162   2.210  15.818 -0.1394  0.6515  0.0975
 7794TIP3    H144873   1.163   2.147  15.746  1.1183  1.5917 -0.7638
 7794TIP3    H244874   1.203   2.164  15.891 -0.2919  0.0942 -0.1590
 7795TIP3   OH244875   4.207   1.654   5.436  0.1189  0.0251 -0.2368
 7795TIP3    H144876   4.287   1.692   5.472  1.3566 -0.0283 -2.7228
 7795TIP3    H244877   4.185   1.711   5.362 -0.2207 -1.8407 -1.6333
 7796TIP3   OH244878   1.414   3.091   0.808 -0.4935 -0.0240 -0.5050
 7796TIP3    H144879   1.382   3.177   0.781  0.9800  0.3941 -1.0333
 7796TIP3    H244880   1.365   3.071   0.888  0.5517  2.2437  0.7912
 7797TIP3   OH244881   6.615   4.852  16.595 -0.6973  0.1022  0.2242
 7797TIP3    H144882   6.666   4.918  16.640 -0.5522  0.2690 -0.1802
 7797TIP3    H244883   6.533   4.896  16.572 -0.4327  0.2658 -0.4133
 7798TIP3   OH244884   0.727   1.975   0.388 -0.7038  0.0305  0.1296
 7798TIP3    H144885   0.797   1.935   0.440 -2.0085 -0.5119  1.5469
 7798TIP3    H244886   0.654   1.914   0.396 -1.4141  0.6759 -1.1655
 7799TIP3   OH244887   5.817   4.612   2.290  0.3727 -0.5173 -0.0305
 7799TIP3    H144888   5.860   4.601   2.374 -0.5927 -0.4009  0.4916
 7799TIP3    H244889   5.724   4.615   2.311  0.1976  1.6181 -0.8646
 7800TIP3   OH244890   6.032   5.166  10.855 -0.6192  0.4982 -0.2957
 7800TIP3    H144891   5.981   5.141  10.932 -2.1445  0.4768 -1.2639
 7800TIP3    H244892   5.967   5.177  10.786  0.6953  0.5988 -1.5695
 7801TIP3   OH244893   0.069   1.322   2.706  0.3640  0.2237 -0.0015
 7801TIP3    H144894   0.093   1.392   2.645 -1.4317  0.3450 -0.6176
 7801TIP3    H244895   0.014   1.364   2.771  0.7248 -0.2843  0.6424
 7802TIP3   OH244896   1.130   0.078  11.799 -0.2826 -0.2000  0.2503
 7802TIP3    H144897   1.131   0.024  11.720  0.1245 -1.2944  0.9783
 7802TIP3    H244898   1.065   0.037  11.856 -0.0337  0.1230  0.7806
 7803TIP3   OH244899   2.852   6.570   1.693 -0.1888 -0.3536  0.3615
 7803TIP3    H144900   2.911   6.629   1.741  1.0800 -1.7089  0.5634
 7803TIP3    H244901   2.911   6.512   1.644 -1.4029 -0.9716 -0.4191
 7804TIP3   OH244902   2.789   5.327   4.569  0.3074 -0.0081 -0.1143
 7804TIP3    H144903   2.734   5.252   4.545 -0.8932  0.6074  0.6051
 7804TIP3    H244904   2.757   5.399   4.516  0.2508  0.4139  0.4797
 7805TIP3   OH244905   0.818   6.629  13.803  0.1286  0.7559  0.1342
 7805TIP3    H144906   0.757   6.686  13.756 -0.9521 -0.2779  0.2416
 7805TIP3    H244907   0.840   6.678  13.882 -2.1201  0.4025  1.0775
 7806TIP3   OH244908   0.570   5.769   5.035  1.2740 -0.0832  0.0368
 7806TIP3    H144909   0.626   5.792   4.961  0.5347  0.6240 -0.3282
 7806TIP3    H244910   0.582   5.675   5.046 -0.7292 -0.8176 -2.8499
 7807TIP3   OH244911   1.885   5.299  14.007 -0.6990  0.4762 -0.0603
 7807TIP3    H144912   1.798   5.270  14.032 -1.5480  2.4587 -0.5262
 7807TIP3    H244913   1.895   5.271  13.916 -0.8075  0.1646  0.0237
 7808TIP3   OH244914   4.099   5.964   5.342  0.6621 -0.0904  0.1336
 7808TIP3    H144915   4.174   5.994   5.393  0.7642 -0.0935 -0.0149
 7808TIP3    H244916   4.055   5.902   5.399  0.6411  0.0862  0.3111
 7809TIP3   OH244917   1.749   1.180   5.322 -0.6074 -0.1065  0.6030
 7809TIP3    H144918   1.795   1.214   5.245  0.1559  0.6895  1.3842
 7809TIP3    H244919   1.806   1.203   5.395 -1.7069 -0.1344  1.4868
 7810TIP3   OH244920   4.704   4.914   0.189  0.2306 -0.6158 -0.2223
 7810TIP3    H144921   4.685   5.001   0.154  1.8095 -0.3265 -0.4154
 7810TIP3    H244922   4.631   4.860   0.159 -1.0872  0.7476  0.4047
 7811TIP3   OH244923   4.458   5.580   2.433 -0.1660 -0.3832 -0.1296
 7811TIP3    H144924   4.367   5.608   2.438  0.1385  0.8101 -0.6515
 7811TIP3    H244925   4.479   5.584   2.339  0.6957  0.3357  0.0783
 7812TIP3   OH244926   0.069   2.833  13.485 -0.6245 -0.2231 -0.4043
 7812TIP3    H144927   0.124   2.844  13.562 -0.6323 -0.5445 -0.3510
 7812TIP3    H244928   0.012   2.910  13.484 -2.6984 -1.6111  1.5905
 7813TIP3   OH244929   4.301   0.673   2.795 -0.1210  0.7937 -0.7891
 7813TIP3    H144930   4.395   0.657   2.801 -0.2657  0.2931  0.6348
 7813TIP3    H244931   4.294   0.766   2.772  0.7258  0.9958 -0.3015
 7814TIP3   OH244932   1.966   5.115  15.530  0.0801  0.1162 -0.2095
 7814TIP3    H144933   2.028   5.119  15.602  1.0081 -1.9998 -0.8010
 7814TIP3    H244934   1.982   5.195  15.480  1.6497  0.1096  0.2229
 7815TIP3   OH244935   2.540   2.473   1.585 -0.9461  0.1459  0.1560
 7815TIP3    H144936   2.622   2.446   1.626 -1.7031  0.1933  1.7778
 7815TIP3    H244937   2.490   2.392   1.575 -1.0834  0.2416  0.0705
 7816TIP3   OH244938   0.080   0.270  13.387 -0.0975 -0.1448  0.0129
 7816TIP3    H144939   0.150   0.315  13.434 -0.8379  1.7637 -0.6253
 7816TIP3    H244940   0.062   0.192  13.439  0.1667  1.0788  2.0491
 7817TIP3   OH244941   2.226   2.615  13.917 -0.4095  0.2736  0.4024
 7817TIP3    H144942   2.248   2.551  13.849 -0.6821  1.0127 -0.3887
 7817TIP3    H244943   2.310   2.654  13.941 -0.2240 -0.4521  0.9746
 7818TIP3   OH244944   5.658   0.442   2.571 -0.6533 -0.2868  0.1502
 7818TIP3    H144945   5.749   0.412   2.571 -0.4801  0.0693  2.7822
 7818TIP3    H244946   5.608   0.368   2.604 -1.2381 -0.1603 -0.4200
 7819TIP3   OH244947   2.722   4.987   1.388 -0.4010  0.3058 -0.9941
 7819TIP3    H144948   2.781   4.920   1.421  0.1828  0.8765 -0.8540
 7819TIP3    H244949   2.757   5.069   1.423 -0.8185  0.7337 -1.5607
 7820TIP3   OH244950   5.960   3.876   5.740 -0.0815  0.3218 -0.1008
 7820TIP3    H144951   5.893   3.864   5.672 -0.6374  0.3146  0.4391
 7820TIP3    H244952   5.914   3.923   5.810  0.3514 -0.1007  0.4720
 7821TIP3   OH244953   0.109   0.076   1.382 -0.5881 -0.2368 -0.2271
 7821TIP3    H144954   0.116   0.101   1.474  1.7474 -0.9953 -0.1566
 7821TIP3    H244955   0.167   0.136   1.336  0.8434 -1.9522 -0.7500
 7822TIP3   OH244956   3.937   0.574   3.172  0.3342  0.1169  0.0698
 7822TIP3    H144957   3.875   0.581   3.099  0.4124 -0.3144 -0.0416
 7822TIP3    H244958   4.015   0.620   3.142  0.2836  0.1395 -0.0261
 7823TIP3   OH244959   0.778   4.202   2.989 -0.2006  0.5812 -0.0847
 7823TIP3    H144960   0.730   4.251   2.922 -1.1638 -0.2011  0.0040
 7823TIP3    H244961   0.773   4.257   3.067 -1.6227  0.2049  0.1250
 7824TIP3   OH244962   3.105   3.030  16.044  0.0315 -0.5379 -0.7706
 7824TIP3    H144963   3.150   2.946  16.055 -0.3401 -0.8636 -1.6254
 7824TIP3    H244964   3.156   3.091  16.096  0.2845 -1.3022 -0.0951
 7825TIP3   OH244965   4.416   2.905  15.372 -0.3961  0.0310 -0.2466
 7825TIP3    H144966   4.343   2.843  15.365 -1.7395  1.6476 -1.1865
 7825TIP3    H244967   4.424   2.943  15.284  1.4761  0.0388 -0.1138
 7826TIP3   OH244968   4.705   2.809  16.666  0.1877  0.8896 -0.1562
 7826TIP3    H144969   4.783   2.800  16.721  0.7438  1.6155 -0.8078
 7826TIP3    H244970   4.679   2.901  16.675 -0.5394  0.6822 -0.0321
 7827TIP3   OH244971   0.662   3.154  15.232  0.3324  0.3478 -0.4353
 7827TIP3    H144972   0.722   3.102  15.286  0.4852 -0.2441 -1.1556
 7827TIP3    H244973   0.576   3.141  15.272  0.3365 -0.6346 -0.7204
 7828TIP3   OH244974   0.700   4.601   1.459 -0.3345 -0.1042 -0.2241
 7828TIP3    H144975   0.655   4.678   1.426  3.1921  1.2127 -2.5736
 7828TIP3    H244976   0.744   4.564   1.382  0.5794 -2.6517  1.4018
 7829TIP3   OH244977   4.425   2.961  12.578  0.1103 -1.2204 -0.8449
 7829TIP3    H144978   4.357   2.931  12.518 -0.2723 -0.6805 -0.6915
 7829TIP3    H244979   4.452   2.882  12.625 -0.6742 -1.3844 -0.6475
 7830TIP3   OH244980   2.503   2.831  16.050 -0.3719  0.1667 -0.2078
 7830TIP3    H144981   2.459   2.746  16.057 -1.0701  0.5568  0.3155
 7830TIP3    H244982   2.464   2.884  16.120  1.5855  0.2675  0.8811
 7831TIP3   OH244983   5.137   1.939   0.352 -0.0207  0.7161 -0.0713
 7831TIP3    H144984   5.211   1.878   0.361 -0.6199 -0.0422 -0.2091
 7831TIP3    H244985   5.155   1.986   0.270 -0.3033 -0.3288 -0.7506
 7832TIP3   OH244986   0.136   3.648   1.240 -0.8843 -0.3214  0.3084
 7832TIP3    H144987   0.160   3.564   1.279  0.0127 -1.3979 -2.3220
 7832TIP3    H244988   0.052   3.631   1.198  0.3164 -0.6564 -2.1303
 7833TIP3   OH244989   6.082   5.695   2.674 -0.0149 -0.0040 -0.5493
 7833TIP3    H144990   5.990   5.685   2.647 -0.4690  0.1337  0.8786
 7833TIP3    H244991   6.132   5.681   2.594 -1.3214  0.8282 -1.5448
 7834TIP3   OH244992   0.489   5.081   2.988  0.8460  0.6671 -0.2684
 7834TIP3    H144993   0.585   5.085   2.992  0.9257  1.4350 -2.2132
 7834TIP3    H244994   0.470   5.022   2.916 -0.1860  0.0790  0.4562
 7835TIP3   OH244995   3.831   5.099   3.665  0.1735  0.3545  0.2335
 7835TIP3    H144996   3.860   5.090   3.574  0.9112 -2.1043  0.6410
 7835TIP3    H244997   3.845   5.192   3.685  1.2744  0.6789 -1.7261
 7836TIP3   OH244998   5.664   3.367   4.648  0.7098  0.7131 -0.0818
 7836TIP3    H144999   5.670   3.288   4.594 -0.9647  0.1771  0.4552
 7836TIP3    H245000   5.586   3.353   4.703  1.5210  1.8632  1.4510
 7837TIP3   OH245001   0.341   0.390  13.006 -0.3518 -0.4998  0.3241
 7837TIP3    H145002   0.390   0.434  13.075 -0.6078 -1.0189  0.8557
 7837TIP3    H245003   0.322   0.303  13.043 -1.5127 -0.3728  0.0739
 7838TIP3   OH245004   2.656   2.159  14.222  0.3089  0.1758  0.2089
 7838TIP3    H145005   2.721   2.167  14.291  0.2338 -0.2126  0.3278
 7838TIP3    H245006   2.616   2.246  14.216  0.6555  0.3450  0.3113
 7839TIP3   OH245007   1.623   2.373  17.194 -0.1281 -0.5267 -0.4782
 7839TIP3    H145008   1.636   2.383  17.288  0.9416  0.2218 -0.6912
 7839TIP3    H245009   1.553   2.435  17.172  0.3705  0.0901 -0.3475
 7840TIP3   OH245010   6.074   0.665  15.418 -0.0680  0.2348  0.1513
 7840TIP3    H145011   6.086   0.754  15.449 -2.0282  1.0106 -1.0857
 7840TIP3    H245012   5.991   0.637  15.457  1.0855 -1.5490  1.5020
 7841TIP3   OH245013   5.336   3.697   5.925  0.4152  0.4148  0.1922
 7841TIP3    H145014   5.328   3.766   5.859 -0.2163  1.4253  1.2982
 7841TIP3    H245015   5.290   3.730   6.002 -0.8943 -1.7169  0.4084
 7842TIP3   OH245016   3.650   4.677  11.210 -0.2493 -0.4228  0.3896
 7842TIP3    H145017   3.564   4.674  11.251 -0.3289 -1.4866  0.1810
 7842TIP3    H245018   3.707   4.629  11.270 -0.4635 -2.4154 -0.9023
 7843TIP3   OH245019   4.984   1.165   2.540 -0.7802  0.1010  0.2713
 7843TIP3    H145020   4.908   1.189   2.594 -0.3875 -0.3501  1.0492
 7843TIP3    H245021   5.009   1.246   2.496 -2.1979  0.0861 -0.6369
 7844TIP3   OH245022   1.477   5.189  15.368  0.8222  0.3477  0.4681
 7844TIP3    H145023   1.420   5.251  15.323  1.2678  0.5594  0.1794
 7844TIP3    H245024   1.418   5.133  15.418  0.4962  2.7608  3.0512
 7845TIP3   OH245025   6.633   3.511  16.313 -0.3817  0.5262 -0.5030
 7845TIP3    H145026   6.593   3.439  16.362  1.2449  0.8954  1.5199
 7845TIP3    H245027   6.564   3.576  16.305 -1.5803 -0.8022 -1.4745
 7846TIP3   OH245028   5.742   1.394  12.382  0.0121  0.4817 -0.0700
 7846TIP3    H145029   5.825   1.355  12.351 -0.7493 -1.0419 -0.3005
 7846TIP3    H245030   5.674   1.341  12.340 -1.0796  1.0976  0.8715
 7847TIP3   OH245031   2.818   5.621  13.831 -0.2336  0.0649  0.6687
 7847TIP3    H145032   2.912   5.605  13.825 -0.5951 -2.3486  0.4502
 7847TIP3    H245033   2.790   5.571  13.908 -1.3683  0.6836  0.6898
 7848TIP3   OH245034   0.922   2.057  10.528 -0.4966  0.1627  0.3433
 7848TIP3    H145035   0.836   2.015  10.528 -0.2893 -0.2604  1.0031
 7848TIP3    H245036   0.982   1.990  10.498 -0.2682  0.2025  0.7126
 7849TIP3   OH245037   2.406   4.879  12.069 -0.4279  0.3939 -0.2921
 7849TIP3    H145038   2.476   4.818  12.092 -0.5800  0.3898  0.1666
 7849TIP3    H245039   2.353   4.832  12.004 -0.4754  0.0877 -0.0320
 7850TIP3   OH245040   6.422   4.629  14.312  0.5069 -0.4328 -0.9191
 7850TIP3    H145041   6.452   4.719  14.316 -2.3782  0.5970  0.8581
 7850TIP3    H245042   6.437   4.594  14.400 -1.7092 -0.4235 -0.4872
 7851TIP3   OH245043   5.619   5.386  15.000  0.3940  0.1713  0.2287
 7851TIP3    H145044   5.540   5.372  15.052 -0.5154  1.6237 -0.6980
 7851TIP3    H245045   5.659   5.464  15.038  0.7720  0.0953 -0.0141
 7852TIP3   OH245046   6.721   2.081  13.922  0.3625  0.5227  0.2127
 7852TIP3    H145047   6.722   2.176  13.932  0.1471  0.4731  0.7455
 7852TIP3    H245048   6.630   2.056  13.936 -0.0559  0.4512 -2.2630
 7853TIP3   OH245049   2.865   1.546   5.999 -0.1249 -0.1307 -0.0580
 7853TIP3    H145050   2.936   1.538   6.062 -0.3227 -0.1037  0.1678
 7853TIP3    H245051   2.805   1.474   6.020 -0.2899 -0.0028 -0.0865
 7854TIP3   OH245052   5.608   1.048  16.712  0.3469 -0.0297  0.3387
 7854TIP3    H145053   5.523   1.020  16.748 -0.2287  0.2381 -0.7633
 7854TIP3    H245054   5.658   1.076  16.788  0.0580 -1.7599  1.2072
 7855TIP3   OH245055   5.077   5.601  12.853 -0.4467 -0.4131 -0.1084
 7855TIP3    H145056   5.115   5.620  12.767  1.0458 -2.6542 -0.0265
 7855TIP3    H245057   5.153   5.589  12.911 -1.3558 -1.4978  0.9178
 7856TIP3   OH245058   2.742   4.547   0.251  0.6067 -0.2457 -0.4193
 7856TIP3    H145059   2.761   4.454   0.240 -1.6566 -0.9076  0.5603
 7856TIP3    H245060   2.647   4.553   0.245  0.7033  2.0986 -0.8439
 7857TIP3   OH245061   6.015   1.095  13.867  0.2795  0.1545 -0.1032
 7857TIP3    H145062   6.019   1.111  13.961 -0.4648  1.4192 -0.2710
 7857TIP3    H245063   6.028   1.181  13.827  1.9474 -0.5587 -1.2226
 7858TIP3   OH245064   0.603   5.003  15.430 -0.0937  0.0615  0.1117
 7858TIP3    H145065   0.582   4.930  15.371 -2.0601  0.3134  0.4370
 7858TIP3    H245066   0.596   5.081  15.375 -0.7472  0.2017  0.3846
 7859TIP3   OH245067   0.323   4.892  15.419  0.4836 -0.3971  0.3706
 7859TIP3    H145068   0.375   4.908  15.340 -0.9734  1.2432 -0.3154
 7859TIP3    H245069   0.270   4.815  15.398 -1.7469  1.4512 -1.3366
 7860TIP3   OH245070   4.805   6.049  13.764 -0.5413 -0.8504 -0.2565
 7860TIP3    H145071   4.765   6.126  13.803 -2.2120 -0.8734 -1.8041
 7860TIP3    H245072   4.810   5.985  13.836 -3.4385 -0.8782  0.0359
 7861TIP3   OH245073   5.393   0.251   0.131 -0.1760  0.7801 -0.1060
 7861TIP3    H145074   5.365   0.274   0.219  1.1413  2.2386 -0.0125
 7861TIP3    H245075   5.481   0.288   0.123 -1.1718  2.9152 -2.8614
 7862TIP3   OH245076   6.726   1.472   4.841  0.3323  0.0787  0.2542
 7862TIP3    H145077   6.670   1.529   4.789 -0.0692 -0.0218  0.5668
 7862TIP3    H245078   6.738   1.520   4.924  0.4883 -0.0228  0.2910
 7863TIP3   OH245079   2.081   0.812  13.116  0.0900  0.0383  0.0174
 7863TIP3    H145080   1.988   0.789  13.108  0.4219 -0.8966 -1.7650
 7863TIP3    H245081   2.114   0.807  13.026  1.3487  2.7447  0.2140
 7864TIP3   OH245082   2.823   0.992  12.712  0.1594  0.6721  0.5719
 7864TIP3    H145083   2.790   0.987  12.802 -0.1039 -2.7153  0.4012
 7864TIP3    H245084   2.745   0.996  12.658  0.2314  0.1125  0.4218
 7865TIP3   OH245085   0.794   3.204  16.461 -0.2603 -0.1415  0.3843
 7865TIP3    H145086   0.888   3.212  16.450 -0.5310  1.8517 -1.0783
 7865TIP3    H245087   0.761   3.183  16.373 -1.2337 -0.0390  0.7106
 7866TIP3   OH245088   0.656   6.345  11.639 -0.2108 -0.2389 -0.2983
 7866TIP3    H145089   0.626   6.339  11.730 -0.7548  0.6089 -0.4156
 7866TIP3    H245090   0.615   6.425  11.605 -0.0645 -0.5773 -1.3065
 7867TIP3   OH245091   0.484   5.903   1.497 -0.3462 -0.1611 -0.4843
 7867TIP3    H145092   0.448   5.838   1.558 -1.4837 -0.5211 -1.4988
 7867TIP3    H245093   0.429   5.896   1.419 -0.4331  1.9691 -0.6758
 7868TIP3   OH245094   0.283   6.059  15.632 -0.4208 -0.0285 -0.3861
 7868TIP3    H145095   0.323   6.061  15.719  1.5023  0.8071 -1.2376
 7868TIP3    H245096   0.190   6.048  15.649 -0.0975  0.1021  1.7745
 7869TIP3   OH245097   6.176   6.281   3.023 -0.4211 -0.7281  0.4342
 7869TIP3    H145098   6.132   6.196   3.031 -1.5483 -0.1257  0.8836
 7869TIP3    H245099   6.207   6.284   2.933  0.4604 -1.9927  0.6689
 7870TIP3   OH245100   0.760   3.108   1.048 -0.1233 -0.3209  0.2443
 7870TIP3    H145101   0.838   3.051   1.043  0.9648  1.0069  1.2625
 7870TIP3    H245102   0.716   3.080   1.128  0.0408 -0.1844  0.3830
 7871TIP3   OH245103   5.797   4.851  10.773 -0.2112  0.0210  0.1774
 7871TIP3    H145104   5.761   4.940  10.769  0.6346  0.4449  1.4053
 7871TIP3    H245105   5.748   4.809  10.844 -0.8954 -0.6480 -0.6735
 7872TIP3   OH245106   1.695   4.427  14.191 -0.4960 -0.2916  0.1994
 7872TIP3    H145107   1.607   4.463  14.176 -0.5796 -0.7172 -0.3609
 7872TIP3    H245108   1.729   4.411  14.103  1.0095  1.8854  0.3040
 7873TIP3   OH245109   3.450   1.913   4.165  0.4997 -0.7106  0.2416
 7873TIP3    H145110   3.537   1.903   4.204  0.8341  1.6377  0.2469
 7873TIP3    H245111   3.466   1.953   4.080 -0.3446 -4.3082 -1.7944
 7874TIP3   OH245112   2.526   1.863   2.053  0.4610  0.2543 -0.4584
 7874TIP3    H145113   2.612   1.847   2.091  1.1392  1.6769 -1.3163
 7874TIP3    H245114   2.464   1.825   2.116  1.6046  1.1063  1.2381
 7875TIP3   OH245115   4.367   0.707   4.030  0.0479 -0.3123  0.2577
 7875TIP3    H145116   4.309   0.640   4.067 -1.2807  1.6113  1.8796
 7875TIP3    H245117   4.412   0.745   4.105 -1.6105  2.7020 -0.1101
 7876TIP3   OH245118   3.977   1.081   1.133  0.2525  0.1368 -0.0754
 7876TIP3    H145119   4.043   1.030   1.086  0.2420  0.3308 -0.3051
 7876TIP3    H245120   3.974   1.042   1.220  0.7911  0.2365 -0.0075
 7877TIP3   OH245121   5.947   2.990   1.364  0.2392 -0.2892  0.0051
 7877TIP3    H145122   5.872   2.993   1.304 -0.8706 -3.2192  1.0568
 7877TIP3    H245123   5.910   3.007   1.450  1.1252 -0.0636  0.3532
 7878TIP3   OH245124   2.329   3.051   0.456 -0.0001  0.2016  0.2668
 7878TIP3    H145125   2.364   2.992   0.389  0.1528  1.4453 -0.7784
 7878TIP3    H245126   2.234   3.043   0.449  0.0220 -0.2145  0.4107
 7879TIP3   OH245127   3.539   3.889  11.303 -0.0783  0.4003 -0.2840
 7879TIP3    H145128   3.618   3.836  11.288 -0.0900 -0.0565  1.1270
 7879TIP3    H245129   3.534   3.898  11.398 -2.6010 -0.9215 -0.2148
 7880TIP3   OH245130   1.432   4.910  12.409 -0.0145  0.6155 -0.9032
 7880TIP3    H145131   1.398   4.985  12.359  0.5427  1.5181  0.0220
 7880TIP3    H245132   1.511   4.944  12.452  0.1098 -0.4356 -0.2663
 7881TIP3   OH245133   3.164   4.137  12.811 -0.2904  0.1565 -0.3873
 7881TIP3    H145134   3.184   4.150  12.903  2.4996 -0.5295 -0.8220
 7881TIP3    H245135   3.173   4.223  12.771 -1.7638  0.5059 -0.0227
 7882TIP3   OH245136   4.331   1.285   1.211  0.2962  0.0964  0.3655
 7882TIP3    H145137   4.264   1.335   1.166  1.6707 -0.4596 -2.5163
 7882TIP3    H245138   4.321   1.309   1.303 -1.6157  2.6075 -0.3870
 7883TIP3   OH245139   3.259   4.751   4.288  0.1799 -0.1848 -0.2142
 7883TIP3    H145140   3.232   4.690   4.220 -0.3454  1.3282 -1.4193
 7883TIP3    H245141   3.200   4.825   4.279  1.4867  0.9922  0.4631
 7884TIP3   OH245142   3.097   6.698  14.834 -0.2024 -0.3240  0.3268
 7884TIP3    H145143   3.191   6.692  14.852 -0.0484  0.1447 -0.2790
 7884TIP3    H245144   3.086   6.655  14.749 -0.4412  0.1118  0.1321
 7885TIP3   OH245145   6.592   0.419  13.762  0.3614 -0.4688 -0.1054
 7885TIP3    H145146   6.581   0.458  13.675  0.7889 -0.5622 -0.2006
 7885TIP3    H245147   6.573   0.326  13.750 -0.7300 -0.2911  0.1348
 7886TIP3   OH245148   2.866   5.879  14.155 -0.0591  0.4121  0.1476
 7886TIP3    H145149   2.863   5.974  14.152  0.2103  0.4146 -0.0864
 7886TIP3    H245150   2.919   5.854  14.079 -0.4986  0.0551 -0.0484
 7887TIP3   OH245151   2.319   5.480   0.037  0.0801  0.3949 -0.2334
 7887TIP3    H145152   2.229   5.449   0.026 -0.0960  0.8662 -0.1504
 7887TIP3    H245153   2.369   5.401   0.056 -0.1580  0.0028 -1.2026
 7888TIP3   OH245154   0.792   3.994  13.489 -0.0463  0.1905  0.3675
 7888TIP3    H145155   0.846   4.072  13.502  1.1267 -0.6015  0.4571
 7888TIP3    H245156   0.856   3.924  13.473 -1.1196 -0.4686 -1.2119
 7889TIP3   OH245157   3.344   1.201  16.924 -0.0808 -0.1151 -0.4495
 7889TIP3    H145158   3.362   1.120  16.970 -0.0512  0.5909  0.8148
 7889TIP3    H245159   3.420   1.257  16.941 -0.9833  0.9127  0.4349
 7890TIP3   OH245160   4.998   2.520  12.074  0.3817  0.3535  0.2797
 7890TIP3    H145161   5.028   2.458  12.008  0.5659 -0.6997  1.3101
 7890TIP3    H245162   4.977   2.466  12.150 -1.0913  1.3831  0.6579
 7891TIP3   OH245163   5.096   1.820  17.286  0.4797 -0.1853 -0.1951
 7891TIP3    H145164   5.102   1.729  17.316  2.2611  0.0845  0.3864
 7891TIP3    H245165   5.026   1.819  17.221  1.0107 -2.1515 -0.8085
 7892TIP3   OH245166   5.379   5.630  10.506 -0.0278  0.1800  0.1553
 7892TIP3    H145167   5.398   5.617  10.599  1.3656 -0.8417 -0.2325
 7892TIP3    H245168   5.306   5.692  10.504  0.1307  0.4574  1.9118
 7893TIP3   OH245169   1.664   2.925  13.254 -0.3955 -0.6258  0.0719
 7893TIP3    H145170   1.744   2.975  13.237 -1.0057  0.1862 -0.4658
 7893TIP3    H245171   1.620   2.921  13.170 -0.5650 -1.7341  0.2019
 7894TIP3   OH245172   3.485   1.614  16.857  0.1994  0.5047  0.1584
 7894TIP3    H145173   3.451   1.618  16.768  1.8906 -0.3392 -0.5789
 7894TIP3    H245174   3.540   1.692  16.865  1.5010 -0.3320 -0.2254
 7895TIP3   OH245175   4.239   5.682   1.852  0.5619 -0.3636 -0.5542
 7895TIP3    H145176   4.172   5.749   1.851 -0.0312 -0.9574 -1.2387
 7895TIP3    H245177   4.290   5.697   1.772  0.2891 -0.8583 -0.8248
 7896TIP3   OH245178   3.935   6.078  15.683  0.5116 -0.0847  0.5011
 7896TIP3    H145179   3.893   6.032  15.756 -0.1426  0.4158  0.4490
 7896TIP3    H245180   3.967   6.159  15.721  1.1964 -0.3412  0.4775
 7897TIP3   OH245181   4.402   1.010   0.042 -0.0599 -0.1864 -0.1245
 7897TIP3    H145182   4.356   0.941   0.090 -1.3193  1.0676  0.5721
 7897TIP3    H245183   4.402   1.085   0.103  2.4704  0.0613 -0.3017
 7898TIP3   OH245184   4.334   0.945   2.798 -0.7036 -0.3609 -0.4048
 7898TIP3    H145185   4.290   0.947   2.883 -5.6002  0.1499 -2.5796
 7898TIP3    H245186   4.361   1.036   2.783 -0.5625 -0.2898  0.2534
 7899TIP3   OH245187   2.188   5.036  15.805  0.0345 -0.3586  0.5808
 7899TIP3    H145188   2.273   5.011  15.841  0.6648 -0.3358 -0.8262
 7899TIP3    H245189   2.205   5.119  15.760 -1.1707  0.6439  1.8885
 7900TIP3   OH245190   6.298   1.312   2.065  0.1979 -0.4907  0.0943
 7900TIP3    H145191   6.324   1.224   2.091  3.1036  0.3779  0.5692
 7900TIP3    H245192   6.257   1.349   2.143  0.6313 -0.8461  0.4980
 7901TIP3   OH245193   0.221   1.522  15.781  0.1150 -0.2531  0.3424
 7901TIP3    H145194   0.162   1.579  15.731  2.6358  1.0674 -1.3218
 7901TIP3    H245195   0.197   1.434  15.752 -1.1255  0.2345 -0.1957
 7902TIP3   OH245196   1.184   6.078   0.840  0.2169  0.3838 -0.2299
 7902TIP3    H145197   1.195   6.012   0.772 -0.0477 -1.9003  1.8100
 7902TIP3    H245198   1.128   6.144   0.800 -2.2429 -2.2180 -1.4720
 7903TIP3   OH245199   5.956   2.407   5.841  0.5733  0.4615 -0.9582
 7903TIP3    H145200   5.892   2.387   5.910  0.5328 -1.7721 -1.5683
 7903TIP3    H245201   6.001   2.486   5.873 -0.0831  0.0566  1.1573
 7904TIP3   OH245202   1.264   2.531  16.252 -0.4321  0.2807 -0.0706
 7904TIP3    H145203   1.318   2.499  16.180  1.4198  0.5312  1.1401
 7904TIP3    H245204   1.186   2.476  16.249 -0.5403  0.4518 -2.3916
 7905TIP3   OH245205   3.894   5.192   0.015  0.1271  0.2754  0.4887
 7905TIP3    H145206   3.846   5.207   0.096  1.0564 -0.9468  1.2902
 7905TIP3    H245207   3.951   5.118   0.033 -1.0283 -1.3220 -1.8991
 7906TIP3   OH245208   4.432   5.367   5.109 -0.2474  0.7527 -0.1377
 7906TIP3    H145209   4.352   5.417   5.095  0.1866  1.5556  0.2063
 7906TIP3    H245210   4.503   5.425   5.081  0.1568 -0.5572 -2.0848
 7907TIP3   OH245211   1.358   2.027  11.075 -0.6486 -0.3994 -0.3597
 7907TIP3    H145212   1.273   2.012  11.033 -0.7899 -0.6475  0.0089
 7907TIP3    H245213   1.370   1.951  11.132 -1.0165  0.5099  0.9698
 7908TIP3   OH245214   2.705   1.099   4.209  0.5559  0.1082  0.1165
 7908TIP3    H145215   2.684   1.023   4.155 -1.3627  0.5081  0.2317
 7908TIP3    H245216   2.730   1.167   4.146 -0.1260  0.0941 -0.1878
 7909TIP3   OH245217   5.136   4.846  17.149 -0.6728 -0.1278 -0.1424
 7909TIP3    H145218   5.064   4.854  17.086 -0.9299 -0.7250  0.0686
 7909TIP3    H245219   5.202   4.907  17.117 -1.5099  0.8902  0.0072
 7910TIP3   OH245220   1.005   1.944  15.761 -0.3649 -0.3632  0.5591
 7910TIP3    H145221   0.974   1.967  15.849  1.4208  0.7434  0.9523
 7910TIP3    H245222   1.099   1.930  15.772  0.2079  1.4277 -1.4199
 7911TIP3   OH245223   0.933   3.023   6.674 -0.4554 -0.2007 -0.6034
 7911TIP3    H145224   0.869   3.093   6.659 -0.4282 -0.5306 -2.5447
 7911TIP3    H245225   0.929   2.970   6.594  1.0056 -1.2279 -0.0338
 7912TIP3   OH245226   2.920   4.038  13.515  0.7882  0.5223  0.0060
 7912TIP3    H145227   2.914   4.093  13.593 -0.2995  0.8847 -0.3117
 7912TIP3    H245228   2.942   3.951  13.549 -1.0767  0.3441  0.8957
 7913TIP3   OH245229   0.009   6.109  14.418 -0.0793  0.5146  0.6548
 7913TIP3    H145230   0.083   6.053  14.442  0.2016  0.3712 -0.4740
 7913TIP3    H245231  -0.002   6.167  14.493  0.7998  0.1440  1.0918
 7914TIP3   OH245232   3.138   3.473   1.359 -0.0639  0.6388  0.0247
 7914TIP3    H145233   3.064   3.493   1.415  1.1738  0.8067  1.6865
 7914TIP3    H245234   3.127   3.530   1.283 -0.0933  2.9223  1.6254
 7915TIP3   OH245235   1.362   3.695  16.758  0.2036  0.4323  0.4688
 7915TIP3    H145236   1.437   3.686  16.817 -1.0046  0.4339  2.0649
 7915TIP3    H245237   1.287   3.668  16.810 -0.5891 -2.9178 -2.1015
 7916TIP3   OH245238   1.004   4.674   5.005 -0.2556 -0.6764  0.1535
 7916TIP3    H145239   0.993   4.629   5.088 -0.4123 -0.1154  0.4428
 7916TIP3    H245240   1.095   4.659   4.981 -0.1186 -0.5601  0.5925
 7917TIP3   OH245241   0.255   0.062  16.884 -0.1610 -0.1606 -0.3039
 7917TIP3    H145242   0.241   0.057  16.979 -0.8784 -0.7876 -0.4252
 7917TIP3    H245243   0.166   0.060  16.847  0.0129  2.0578 -0.9391
 7918TIP3   OH245244   1.537   2.180  10.474  0.2006 -0.2937  0.6569
 7918TIP3    H145245   1.445   2.183  10.498 -0.1307 -0.5438 -0.5180
 7918TIP3    H245246   1.584   2.168  10.557 -0.9637 -2.6244  1.0558
 7919TIP3   OH245247   2.866   1.726   5.483 -0.0889 -0.0549  0.5879
 7919TIP3    H145248   2.778   1.749   5.512 -0.4783  0.5350 -0.9710
 7919TIP3    H245249   2.891   1.653   5.540 -1.3329  0.1616  1.4627
 7920TIP3   OH245250   1.391   0.122  11.878 -0.2739 -0.4642  0.1796
 7920TIP3    H145251   1.309   0.156  11.840  0.6755  2.5414  0.4950
 7920TIP3    H245252   1.455   0.191  11.860  1.8410 -2.0454  1.2795
 7921TIP3   OH245253   2.572   1.028  11.189  0.1893 -0.0421 -0.4529
 7921TIP3    H145254   2.637   1.035  11.259  1.1167  0.0578 -1.2992
 7921TIP3    H245255   2.623   1.008  11.111 -0.7377  0.6206 -1.2547
 7922TIP3   OH245256   2.481   3.682   4.601  0.2033  0.5124 -0.4697
 7922TIP3    H145257   2.563   3.656   4.558  0.7651 -0.6867  1.2109
 7922TIP3    H245258   2.415   3.625   4.563  0.9007 -1.3698  0.9745
 7923TIP3   OH245259   4.967   0.187  17.021  0.6529 -0.2469  0.3925
 7923TIP3    H145260   4.930   0.239  16.949 -2.4402  0.1661  2.0812
 7923TIP3    H245261   4.996   0.252  17.084 -1.8082 -0.4167  1.8345
 7924TIP3   OH245262   2.572   1.292  11.776  0.8276 -0.0382 -0.0232
 7924TIP3    H145263   2.490   1.343  11.779  1.0041  0.2796 -0.4769
 7924TIP3    H245264   2.551   1.217  11.720  0.8583  0.0663 -0.1758
 7925TIP3   OH245265   0.502   2.948   0.277  0.6478  0.5600  0.6108
 7925TIP3    H145266   0.412   2.979   0.286 -0.1665 -1.7158  1.1094
 7925TIP3    H245267   0.508   2.874   0.337  2.8493  0.5886  0.5222
 7926TIP3   OH245268   2.929   0.778  13.361  0.2364 -0.4369  0.1308
 7926TIP3    H145269   3.000   0.826  13.404  0.1542  0.1366 -0.3501
 7926TIP3    H245270   2.857   0.781  13.423 -0.0480  0.8281 -0.2295
 7927TIP3   OH245271   3.813   0.890  11.146 -0.4041 -0.0661  0.3051
 7927TIP3    H145272   3.737   0.861  11.096  0.0640 -1.9657  0.6237
 7927TIP3    H245273   3.884   0.892  11.082 -0.4519  0.5276  0.2638
 7928TIP3   OH245274   3.394   4.664   5.560  0.8455 -0.1756  0.8353
 7928TIP3    H145275   3.358   4.579   5.534  2.2760 -0.4799 -0.2622
 7928TIP3    H245276   3.346   4.686   5.640  0.1771 -1.8335  0.9465
 7929TIP3   OH245277   1.001   3.007   3.685  0.0539 -0.5084  0.0620
 7929TIP3    H145278   1.074   2.989   3.627  0.0472  1.0809 -0.4865
 7929TIP3    H245279   1.031   3.079   3.740  0.2757 -2.3066  2.4840
 7930TIP3   OH245280   5.546   5.176  17.131 -0.2317  0.1641  0.4787
 7930TIP3    H145281   5.538   5.222  17.047  1.3664 -0.2921  0.0414
 7930TIP3    H245282   5.490   5.098  17.120 -0.5969  0.4729  0.1078
 7931TIP3   OH245283   0.200   2.132  15.336 -0.5353  0.3750  0.4490
 7931TIP3    H145284   0.135   2.108  15.270  0.7902 -0.1656 -0.7091
 7931TIP3    H245285   0.252   2.201  15.294  0.9343 -0.6435  0.5280
 7932TIP3   OH245286   3.831   6.517   0.650 -0.3367  0.0304  0.3381
 7932TIP3    H145287   3.835   6.430   0.690 -1.9221 -0.3624 -0.2785
 7932TIP3    H245288   3.798   6.574   0.719  1.6859  0.4161  1.0741
 7933TIP3   OH245289   1.237   2.008  16.063 -0.0141  0.4687  0.2838
 7933TIP3    H145290   1.317   1.964  16.090 -0.2143  0.8242  1.5182
 7933TIP3    H245291   1.190   2.024  16.145 -0.9979  0.9262 -0.3585
 7934TIP3   OH245292   5.538   2.502   5.093  0.5408 -0.6840 -0.0908
 7934TIP3    H145293   5.592   2.549   5.030  1.4481  0.7161  1.6219
 7934TIP3    H245294   5.558   2.410   5.079  0.8081 -0.4112 -1.7058
 7935TIP3   OH245295   4.323   6.380  11.506 -0.1774  0.0573 -0.9295
 7935TIP3    H145296   4.288   6.329  11.579  0.8584  1.7567  0.8376
 7935TIP3    H245297   4.256   6.372  11.437 -2.8028  1.0135  1.3305
 7936TIP3   OH245298   1.003   6.553   5.160 -0.0482 -0.8132 -0.0296
 7936TIP3    H145299   1.096   6.551   5.139 -0.4160 -0.4521 -1.8271
 7936TIP3    H245300   0.980   6.646   5.163 -0.6777 -0.9019 -1.3109
 7937TIP3   OH245301   0.116   5.564  17.133 -0.0040  0.1379 -0.1857
 7937TIP3    H145302   0.089   5.519  17.053 -1.7590  0.2732  0.2763
 7937TIP3    H245303   0.057   5.639  17.140  0.4126  0.3870  0.9935
 7938TIP3   OH245304   5.945   5.778  10.434  0.1611 -0.3670  0.8393
 7938TIP3    H145305   5.968   5.843  10.500 -0.6604 -0.4403  1.2208
 7938TIP3    H245306   5.893   5.827  10.370  0.4298 -0.4255  0.5784
 7939TIP3   OH245307   2.659   5.894   2.135 -0.0383 -0.2256  0.4200
 7939TIP3    H145308   2.660   5.799   2.146  0.3726 -0.2674  0.0497
 7939TIP3    H245309   2.696   5.908   2.048 -0.0862  0.2734  0.4806
 7940TIP3   OH245310   3.647   3.571   0.342 -0.4396 -0.0854 -0.1541
 7940TIP3    H145311   3.640   3.665   0.322  2.8910  0.5368  0.9490
 7940TIP3    H245312   3.718   3.539   0.287  0.1886 -1.3241  1.2825
 7941TIP3   OH245313   3.477   6.612   5.755 -0.5898  0.3865  0.0572
 7941TIP3    H145314   3.508   6.604   5.665 -0.1281 -0.3564  0.2707
 7941TIP3    H245315   3.484   6.705   5.775 -0.9135  0.5886 -0.7506
 7942TIP3   OH245316   2.487   4.015  13.912 -0.2080  0.1687 -0.1508
 7942TIP3    H145317   2.531   3.935  13.883  1.1765  0.9277 -0.2433
 7942TIP3    H245318   2.472   4.064  13.831 -3.9445 -1.2660 -0.5500
 7943TIP3   OH245319   1.130   2.166   0.157 -0.2681  0.0760  0.0044
 7943TIP3    H145320   1.089   2.252   0.169 -1.9045 -0.8460  1.4786
 7943TIP3    H245321   1.188   2.157   0.233  1.7114  0.7997 -1.3630
 7944TIP3   OH245322   5.102   4.012  12.736  0.0729 -0.8459  0.0070
 7944TIP3    H145323   5.117   4.098  12.697  1.6075 -0.1908  1.8550
 7944TIP3    H245324   5.036   4.027  12.804 -0.7213 -1.4377 -0.6248
 7945TIP3   OH245325   0.625   2.491   3.935 -0.2561 -0.3548  0.1015
 7945TIP3    H145326   0.621   2.545   4.014 -1.8081 -0.1217 -0.1074
 7945TIP3    H245327   0.653   2.552   3.866  1.0033 -0.5363  0.4423
 7946TIP3   OH245328   0.469   6.372  12.528  0.2607  0.3531 -0.1945
 7946TIP3    H145329   0.476   6.466  12.543  1.3150  0.6387 -2.0814
 7946TIP3    H245330   0.536   6.354  12.461  0.3146 -1.8010  0.3671
 7947TIP3   OH245331   4.122   4.777  15.796  0.3278 -0.8127 -0.2285
 7947TIP3    H145332   4.080   4.860  15.773 -0.8742 -1.4535 -0.4637
 7947TIP3    H245333   4.200   4.802  15.845  0.7460  0.4820 -1.4949
 7948TIP3   OH245334   5.751   4.634  13.557  0.8073  0.1252  0.0598
 7948TIP3    H145335   5.672   4.581  13.563 -0.0238  1.2587 -0.3641
 7948TIP3    H245336   5.725   4.709  13.502  1.8953  1.0126  0.7147
 7949TIP3   OH245337   5.889   5.729   3.916 -0.0105 -0.0173  0.1986
 7949TIP3    H145338   5.870   5.787   3.842 -2.0727 -1.3461 -0.4069
 7949TIP3    H245339   5.871   5.782   3.993 -0.0819  0.7020 -0.3047
 7950TIP3   OH245340   4.848   2.487  16.560 -0.1233 -0.1385  0.0945
 7950TIP3    H145341   4.857   2.421  16.629  1.1396 -2.7257 -2.3493
 7950TIP3    H245342   4.753   2.502  16.554 -0.5183 -2.1536  0.4065
 7951TIP3   OH245343   5.537   1.785   0.172  0.3542  0.5012  0.4048
 7951TIP3    H145344   5.524   1.794   0.266 -1.2160 -0.9958  0.3674
 7951TIP3    H245345   5.632   1.792   0.160  0.7649 -1.0424  2.3079
 7952TIP3   OH245346   5.465   0.641  12.721 -0.4463  0.0458 -0.1834
 7952TIP3    H145347   5.512   0.608  12.644 -1.0836 -2.2680  0.3380
 7952TIP3    H245348   5.375   0.611  12.709 -0.6187 -0.1222  1.3179
 7953TIP3   OH245349   6.146   4.269  12.179 -0.0845 -0.5521 -0.3690
 7953TIP3    H145350   6.085   4.195  12.180 -0.1873 -0.4749 -0.6969
 7953TIP3    H245351   6.207   4.248  12.108  0.2205 -0.5877 -0.0985
 7954TIP3   OH245352   0.812   2.175   6.832 -0.5056 -0.2118  0.4782
 7954TIP3    H145353   0.728   2.170   6.784 -0.2333 -0.6944  0.0301
 7954TIP3    H245354   0.812   2.261   6.872 -1.6492 -0.5548  1.2790
 7955TIP3   OH245355   4.942   1.892  17.033  0.0082 -0.1787  0.4487
 7955TIP3    H145356   5.020   1.946  17.021  1.0687 -1.2032  2.3165
 7955TIP3    H245357   4.963   1.810  16.989  0.3336 -0.7373  1.6118
 7956TIP3   OH245358   1.173   1.531  13.458 -0.1366  0.5006 -0.0183
 7956TIP3    H145359   1.128   1.595  13.514 -0.9992 -0.2382  0.1355
 7956TIP3    H245360   1.266   1.555  13.466 -0.1875  0.1891  2.0368
 7957TIP3   OH245361   1.811   6.329  12.508  0.1219 -0.0473  0.2897
 7957TIP3    H145362   1.845   6.418  12.503  0.2614 -0.1033  0.2400
 7957TIP3    H245363   1.728   6.338  12.554 -0.6580  0.3278 -1.1415
 7958TIP3   OH245364   2.015   1.025  14.103 -0.2698 -0.0088 -0.2375
 7958TIP3    H145365   2.074   1.007  14.030 -2.3705 -0.7225 -1.8615
 7958TIP3    H245366   1.939   1.067  14.062 -0.9962  0.7051  1.7281
 7959TIP3   OH245367   6.575   1.513   2.594 -0.3367 -0.3929 -0.9860
 7959TIP3    H145368   6.487   1.477   2.597 -0.2586 -0.5770 -0.8380
 7959TIP3    H245369   6.620   1.474   2.669 -0.6382  1.0650 -0.0026
 7960TIP3   OH245370   5.321   1.798  12.603 -0.5952 -0.4472 -0.6163
 7960TIP3    H145371   5.312   1.893  12.601  0.3583 -0.3406 -0.4422
 7960TIP3    H245372   5.251   1.768  12.661 -1.5838  0.0496 -1.5355
 7961TIP3   OH245373   0.689   1.691  11.368 -0.1880 -0.7160 -0.0237
 7961TIP3    H145374   0.652   1.629  11.432  0.0236  1.6746  2.6212
 7961TIP3    H245375   0.623   1.760  11.361  0.8955  0.3098 -0.4062
 7962TIP3   OH245376   2.455   3.818   5.881 -0.1153  0.3730  0.4215
 7962TIP3    H145377   2.420   3.736   5.916 -2.0877 -0.2526 -2.6508
 7962TIP3    H245378   2.402   3.886   5.923 -1.3507 -0.2300 -0.1082
 7963TIP3   OH245379   6.756   2.191  15.182  0.3808  0.2561 -0.2438
 7963TIP3    H145380   6.761   2.152  15.095  0.7576  0.0791 -0.1440
 7963TIP3    H245381   6.683   2.253  15.176  1.0194  0.9704 -0.9813
 7964TIP3   OH245382   5.776   3.367  13.677  0.0313  0.5416 -0.2053
 7964TIP3    H145383   5.860   3.335  13.643 -1.7548 -2.1144 -2.6343
 7964TIP3    H245384   5.754   3.306  13.747 -0.3704  0.5331 -0.3384
 7965TIP3   OH245385   3.133   6.641  11.512  0.3674  0.0732  0.5067
 7965TIP3    H145386   3.207   6.640  11.451  1.3404  0.0134  1.6459
 7965TIP3    H245387   3.170   6.609  11.595 -0.7117  0.9415  1.3585
 7966TIP3   OH245388   0.164   3.896  14.329  0.1115  0.0839 -0.1826
 7966TIP3    H145389   0.114   3.931  14.256 -0.5171  0.2652  0.3272
 7966TIP3    H245390   0.202   3.815  14.296 -1.4938 -0.6878 -0.2386
 7967TIP3   OH245391   0.518   3.336  16.729  0.2379 -0.5721 -0.4205
 7967TIP3    H145392   0.499   3.399  16.659  0.7672 -0.7043 -0.6907
 7967TIP3    H245393   0.608   3.356  16.756  0.1702 -0.7699 -0.0403
 7968TIP3   OH245394   3.412   6.601  15.406 -0.0024  0.4480 -0.7467
 7968TIP3    H145395   3.394   6.529  15.345 -0.6393  1.5176 -1.8545
 7968TIP3    H245396   3.501   6.629  15.385  0.3075 -0.1091 -0.2028
 7969TIP3   OH245397   1.309   4.801  13.348  0.3236  0.2826 -0.1582
 7969TIP3    H145398   1.321   4.814  13.442 -1.1777  1.0674 -0.0438
 7969TIP3    H245399   1.240   4.735  13.341  0.4060  0.2496 -0.6966
 7970TIP3   OH245400   3.190   2.369   0.563 -0.3163  0.6208  0.4649
 7970TIP3    H145401   3.138   2.393   0.486  1.6594  1.0559 -0.7935
 7970TIP3    H245402   3.209   2.452   0.606  0.1113  0.5520  0.4091
 7971TIP3   OH245403   2.001   4.453  14.595 -0.7454 -0.1358  0.0859
 7971TIP3    H145404   1.978   4.424  14.507 -1.2022  2.9502 -0.9502
 7971TIP3    H245405   2.081   4.505  14.583 -0.9932  0.5987  1.4242
 7972TIP3   OH245406   3.764   5.800   4.261  0.1027 -0.1568  0.1630
 7972TIP3    H145407   3.716   5.809   4.344  1.2658 -0.8686  0.9325
 7972TIP3    H245408   3.836   5.741   4.281  0.6338 -0.0280 -1.2729
 7973TIP3   OH245409   1.773   2.617  17.231 -0.1228  0.3382 -0.3565
 7973TIP3    H145410   1.719   2.554  17.184  0.2934  1.2890 -2.2413
 7973TIP3    H245411   1.827   2.564  17.290 -0.2060 -1.0183 -1.4467
 7974TIP3   OH245412   4.688   3.231  12.945 -0.2707  0.3244  0.2015
 7974TIP3    H145413   4.643   3.265  12.868 -0.4575  0.3024  0.3009
 7974TIP3    H245414   4.781   3.233  12.921 -0.3032  0.6153  0.0934
 7975TIP3   OH245415   0.396   0.242   1.014 -0.0724 -0.6086 -0.2587
 7975TIP3    H145416   0.402   0.230   1.109  2.1270 -3.1215 -0.6054
 7975TIP3    H245417   0.435   0.163   0.977 -1.5872 -0.0851 -3.3077
 7976TIP3   OH245418   1.546   0.397  12.779  0.3992 -0.0033 -0.0409
 7976TIP3    H145419   1.623   0.385  12.723 -0.7452 -0.2206 -1.6656
 7976TIP3    H245420   1.472   0.388  12.719 -0.8939  0.5040  1.4144
 7977TIP3   OH245421   2.851   2.117  12.029 -0.3563  0.3803  0.3690
 7977TIP3    H145422   2.762   2.137  11.999 -0.3476 -0.5664 -0.3450
 7977TIP3    H245423   2.841   2.037  12.081 -0.0036  0.6091  0.7872
 7978TIP3   OH245424   3.220   1.927   3.288  0.3389 -0.5508 -0.5194
 7978TIP3    H145425   3.315   1.934   3.276  0.3038  1.8670  0.1135
 7978TIP3    H245426   3.206   1.940   3.382 -0.5555 -2.1723 -0.3970
 7979TIP3   OH245427   4.975   1.170  14.627 -0.1757 -0.3936  0.2327
 7979TIP3    H145428   5.068   1.182  14.644 -0.3929  1.3153  0.4019
 7979TIP3    H245429   4.937   1.152  14.713 -0.2246  0.6145  0.4309
 7980TIP3   OH245430   3.344   0.086   4.356  0.4554  0.0188 -0.1746
 7980TIP3    H145431   3.292   0.006   4.362  1.2702 -0.5204 -0.1588
 7980TIP3    H245432   3.346   0.119   4.446 -1.8296  1.3565 -0.5362
 7981TIP3   OH245433   2.484   1.193  14.578 -0.9899  0.4778 -0.2682
 7981TIP3    H145434   2.491   1.199  14.674 -3.8791  1.7884 -0.0327
 7981TIP3    H245435   2.532   1.114  14.555 -1.6041 -0.8027  2.4690
 7982TIP3   OH245436   2.225   1.345  16.917 -0.3524  0.3307  0.1048
 7982TIP3    H145437   2.152   1.283  16.910 -0.6895  0.6056  1.1266
 7982TIP3    H245438   2.209   1.393  16.998  1.1780  0.1104  0.5701
 7983TIP3   OH245439   4.941   4.361  12.733  0.2313 -0.3509 -0.5187
 7983TIP3    H145440   5.006   4.394  12.672  0.6011  1.9995  1.0248
 7983TIP3    H245441   4.877   4.431  12.740 -0.3522 -0.9988  0.9607
 7984TIP3   OH245442   1.420   0.618  13.222  0.3996  0.8898  0.3862
 7984TIP3    H145443   1.389   0.568  13.146 -1.1875  1.4503  0.6067
 7984TIP3    H245444   1.413   0.558  13.295 -0.1926  0.9874  0.4224
 7985TIP3   OH245445   4.503   6.366  14.234  0.3707 -0.0453  0.2182
 7985TIP3    H145446   4.550   6.303  14.180  0.7446  0.8442 -0.5154
 7985TIP3    H245447   4.571   6.407  14.288  0.0085 -0.8925  1.3655
 7986TIP3   OH245448   6.016   0.381   5.380 -0.0529  0.8364  0.3432
 7986TIP3    H145449   6.030   0.469   5.416  0.7571  0.7324  0.3038
 7986TIP3    H245450   6.055   0.385   5.292  0.0260  0.4259  0.3576
 7987TIP3   OH245451   6.803   3.792   0.459  0.8986  0.1291  0.6969
 7987TIP3    H145452   6.848   3.832   0.384  0.5979 -1.0912 -0.1558
 7987TIP3    H245453   6.733   3.854   0.480  1.3051  0.7362  0.3213
 7988TIP3   OH245454   5.938   6.322  15.461 -0.6348  0.7366 -0.2676
 7988TIP3    H145455   5.857   6.326  15.513  0.1564  1.9699  0.9521
 7988TIP3    H245456   5.939   6.404  15.413  0.1614  0.9865  0.1663
 7989TIP3   OH245457   3.376   1.854  15.295  0.1537 -0.5081  0.2463
 7989TIP3    H145458   3.289   1.894  15.291  0.3183 -0.2384 -2.6429
 7989TIP3    H245459   3.435   1.921  15.260  1.1140 -1.6325 -0.3565
 7990TIP3   OH245460   5.761   4.611  12.218  0.5059  0.1045 -0.0769
 7990TIP3    H145461   5.754   4.525  12.176  0.5338 -0.3767  0.8934
 7990TIP3    H245462   5.852   4.638  12.203  0.2069  0.4854 -1.3491
 7991TIP3   OH245463   3.723   3.840  10.757  0.3622 -0.0842  0.3654
 7991TIP3    H145464   3.713   3.915  10.698 -0.3756  0.5990  1.3265
 7991TIP3    H245465   3.654   3.779  10.732 -0.3180  0.4574  0.8593
 7992TIP3   OH245466   6.413   1.428  16.557 -0.2898  0.3773  0.0374
 7992TIP3    H145467   6.365   1.498  16.514 -2.0284 -2.1173 -2.4677
 7992TIP3    H245468   6.482   1.404  16.496  1.1273  0.6807  1.4390
 7993TIP3   OH245469   1.733   2.396   3.824 -0.7885  0.0432 -0.0900
 7993TIP3    H145470   1.710   2.489   3.814  0.8020  0.6849  1.5592
 7993TIP3    H245471   1.713   2.376   3.916  1.9230 -0.2448  0.5209
 7994TIP3   OH245472   3.856   5.683  13.814 -0.2469 -0.1037  0.3983
 7994TIP3    H145473   3.866   5.589  13.832  1.1134 -0.1381 -0.4098
 7994TIP3    H245474   3.926   5.724  13.865 -0.4216  0.4091  0.2224
 7995TIP3   OH245475   2.448   1.598  15.314 -0.2472 -0.0513  0.3000
 7995TIP3    H145476   2.514   1.631  15.253 -0.2883 -1.1774 -0.3894
 7995TIP3    H245477   2.394   1.540  15.261  0.9062 -2.6700  1.7872
 7996TIP3   OH245478   0.318   5.617  10.943  0.3540 -0.2982  0.1790
 7996TIP3    H145479   0.232   5.593  10.909  1.2307 -0.4186 -2.1178
 7996TIP3    H245480   0.373   5.541  10.924  1.8910  1.2801 -2.1601
 7997TIP3   OH245481   1.126   5.504   0.386 -0.1471 -0.1767  0.1248
 7997TIP3    H145482   1.193   5.470   0.445  0.3147  0.7243  0.1421
 7997TIP3    H245483   1.113   5.435   0.321 -0.2562 -0.9466  0.9530
 7998TIP3   OH245484   5.490   1.010   2.624 -0.2515 -0.1324  0.1454
 7998TIP3    H145485   5.431   0.952   2.576  0.9290 -0.9771 -0.3471
 7998TIP3    H245486   5.433   1.077   2.661 -1.6094 -1.3878  0.4074
 7999TIP3   OH245487   4.157   4.278   3.507  0.2118  0.5693  0.0262
 7999TIP3    H145488   4.193   4.367   3.512  1.4596  0.1052 -0.2504
 7999TIP3    H245489   4.202   4.239   3.432  2.0478 -1.3062  1.9800
 8000TIP3   OH245490   2.292   1.449   4.253 -0.6509  0.2816  0.0573
 8000TIP3    H145491   2.311   1.457   4.160  1.5966 -3.4839 -0.0103
 8000TIP3    H245492   2.371   1.482   4.297 -0.1692 -1.2209  0.4006
 8001TIP3   OH245493   4.697   4.059   0.608 -0.2779  0.1797  0.1969
 8001TIP3    H145494   4.634   4.046   0.537  0.1032 -1.3044  0.0885
 8001TIP3    H245495   4.660   4.010   0.682 -0.7979  1.9115  1.1359
 8002TIP3   OH245496   1.641   3.867   1.131  0.0226 -0.7697 -0.3560
 8002TIP3    H145497   1.609   3.790   1.178  1.1275 -1.9873 -1.5211
 8002TIP3    H245498   1.727   3.884   1.167 -0.4541  0.3439  0.3277
 8003TIP3   OH245499   5.147   6.242   5.442 -0.6653  0.2623 -0.3882
 8003TIP3    H145500   5.115   6.159   5.405 -1.8114  0.0577  1.0089
 8003TIP3    H245501   5.104   6.310   5.390  0.8066  0.0505 -2.0033
 8004TIP3   OH245502   2.767   1.356  13.715 -0.3137  0.3297  0.2283
 8004TIP3    H145503   2.750   1.346  13.809  2.0091 -0.3744  0.6348
 8004TIP3    H245504   2.763   1.267  13.681 -2.1154  0.6746 -0.5897
 8005TIP3   OH245505   0.497   1.540   6.247  0.0340 -0.3581 -0.2379
 8005TIP3    H145506   0.508   1.524   6.341 -2.6674 -1.5290 -0.0314
 8005TIP3    H245507   0.562   1.607   6.226  0.2078  0.4948  2.6170
 8006TIP3   OH245508   1.691   2.890   4.730 -0.0262 -0.5092  0.5359
 8006TIP3    H145509   1.711   2.981   4.705 -0.1907  0.3373  3.1907
 8006TIP3    H245510   1.608   2.872   4.687 -0.1609  0.7272  0.2212
 8007TIP3   OH245511   1.589   1.133   5.540  0.1315 -0.8767  0.0727
 8007TIP3    H145512   1.611   1.165   5.452  0.5688  2.1588  1.1699
 8007TIP3    H245513   1.550   1.047   5.525 -0.8323 -0.0171 -3.1716
 8008TIP3   OH245514   3.603   5.649  13.949 -0.4375  0.3747  0.7017
 8008TIP3    H145515   3.688   5.667  13.908  0.9532 -0.3787  3.0278
 8008TIP3    H245516   3.562   5.735  13.959  0.4761  0.8644  0.3633
 8009TIP3   OH245517   3.028   3.164  13.256 -0.3011  0.0920  0.3511
 8009TIP3    H145518   2.987   3.160  13.342  0.9116 -1.3721  0.9093
 8009TIP3    H245519   3.054   3.256  13.245 -2.2301  0.7148  0.6481
 8010TIP3   OH245520   1.106   2.053  14.290  0.3662 -0.5495  0.0395
 8010TIP3    H145521   1.130   2.086  14.376  0.2107 -0.8132  0.1864
 8010TIP3    H245522   1.189   2.032  14.248  0.7368  2.8259 -1.2371
 8011TIP3   OH245523   3.159   4.066  13.767 -0.4697 -0.5987  0.3216
 8011TIP3    H145524   3.240   4.021  13.746  0.3250 -0.3365  2.4927
 8011TIP3    H245525   3.137   4.115  13.688  0.4475 -2.1293 -0.9417
 8012TIP3   OH245526   0.021   4.057   1.457  0.4941  0.1921  0.2387
 8012TIP3    H145527   0.087   4.061   1.387  0.1910 -0.8305 -0.1180
 8012TIP3    H245528   0.049   4.125   1.519  1.2095  0.5856 -0.4848
 8013TIP3   OH245529   3.982   4.862  10.734 -0.1148 -0.1727  0.1150
 8013TIP3    H145530   4.010   4.954  10.726 -2.7791  0.7271  0.1254
 8013TIP3    H245531   3.988   4.843  10.828  2.5190 -0.8201 -0.0941
 8014TIP3   OH245532   1.476   6.094  12.006  0.4576  0.3131  0.3668
 8014TIP3    H145533   1.452   6.009  12.042  3.3035 -1.1524 -0.8627
 8014TIP3    H245534   1.482   6.079  11.912 -0.4772  2.3303 -0.0725
 8015TIP3   OH245535   0.482   1.581   4.540 -0.4781 -0.5587  0.1961
 8015TIP3    H145536   0.478   1.674   4.560 -0.8116 -0.2446 -1.2252
 8015TIP3    H245537   0.405   1.564   4.485 -0.2174 -1.5944  0.1171
 8016TIP3   OH245538   3.198   0.579  13.220  0.7018  0.3031 -0.5903
 8016TIP3    H145539   3.200   0.586  13.315 -0.0741 -1.8278 -0.3665
 8016TIP3    H245540   3.191   0.485  13.202  0.6395  0.6514 -2.7504
 8017TIP3   OH245541   1.405   3.885  14.329 -0.2637  0.4489  0.1326
 8017TIP3    H145542   1.391   3.806  14.382  0.2367  0.1566 -0.1573
 8017TIP3    H245543   1.467   3.937  14.380 -0.9666  0.8939  0.5549
 8018TIP3   OH245544   2.871   6.720   4.494  0.3827 -0.6992 -0.1505
 8018TIP3    H145545   2.869   6.634   4.536  0.4004  0.4032  2.2879
 8018TIP3    H245546   2.780   6.749   4.495  0.4755 -0.4029 -0.3172
 8019TIP3   OH245547   3.180   1.164  11.695  0.0047  0.0792  0.4438
 8019TIP3    H145548   3.170   1.252  11.733 -0.2695 -0.2383  1.1185
 8019TIP3    H245549   3.124   1.108  11.749  0.3065 -0.5413  0.1199
 8020TIP3   OH245550   0.507   5.869   3.632 -0.4401  0.4543 -0.0842
 8020TIP3    H145551   0.587   5.887   3.583 -1.5052 -1.3843 -2.7776
 8020TIP3    H245552   0.535   5.817   3.707  0.8402 -1.7453 -1.9340
 8021TIP3   OH245553   6.562   2.663   1.781 -0.0743  0.6503 -0.1598
 8021TIP3    H145554   6.612   2.708   1.714  0.0194  0.7091 -0.0511
 8021TIP3    H245555   6.600   2.575   1.784  2.1408  1.5727  2.0660
 8022TIP3   OH245556   5.443   4.504  16.838  0.3251  0.2097  0.6283
 8022TIP3    H145557   5.425   4.412  16.856 -0.7488  0.3255  0.2078
 8022TIP3    H245558   5.358   4.541  16.815  1.1559  0.6626 -2.0563
 8023TIP3   OH245559   5.552   4.341  14.650  0.1281  0.2364 -0.7855
 8023TIP3    H145560   5.528   4.355  14.741  0.6421 -1.8422 -0.2688
 8023TIP3    H245561   5.619   4.272  14.653 -0.4732 -0.5132 -2.7893
 8024TIP3   OH245562   0.569   0.240  14.081  0.3760 -0.0909 -0.1568
 8024TIP3    H145563   0.581   0.281  13.995  0.3774 -1.2745 -0.7296
 8024TIP3    H245564   0.503   0.295  14.124  0.6746  0.7545 -0.7448
 8025TIP3   OH245565   5.846   5.986   3.648 -0.3330  0.4571 -0.4700
 8025TIP3    H145566   5.752   5.982   3.630 -0.7243  0.9826  1.2853
 8025TIP3    H245567   5.887   5.955   3.567 -1.9699  1.5920 -1.8098
 8026TIP3   OH245568   3.407   3.681   4.719 -0.3247  0.4035 -0.7392
 8026TIP3    H145569   3.485   3.721   4.758  0.5683 -1.9724  0.1568
 8026TIP3    H245570   3.334   3.717   4.768  0.5062  0.2510  0.6633
 8027TIP3   OH245571   0.387   6.074  14.280  0.0355  0.6124  0.1597
 8027TIP3    H145572   0.466   6.039  14.240 -0.1282  0.2951  0.1138
 8027TIP3    H245573   0.362   6.148  14.225 -0.1355  0.2371 -0.2691
 8028TIP3   OH245574   6.597   6.112  16.895  0.2058  0.3503 -0.1724
 8028TIP3    H145575   6.617   6.041  16.834 -1.3427 -0.8430  0.6236
 8028TIP3    H245576   6.503   6.127  16.884  0.5953  2.6869 -0.6931
 8029TIP3   OH245577   1.069   2.022  15.149  0.2811 -0.1931  0.8497
 8029TIP3    H145578   1.161   2.021  15.123  0.9812  4.7109  2.1291
 8029TIP3    H245579   1.021   2.040  15.068  0.8594  0.6749  0.6895
 8030TIP3   OH245580   5.531   5.842  10.831 -0.3675 -0.3779 -0.1681
 8030TIP3    H145581   5.571   5.919  10.872 -1.2005  0.0339 -0.1046
 8030TIP3    H245582   5.444   5.837  10.871 -0.8804 -0.4759 -1.2715
 8031TIP3   OH245583   1.638   1.612   5.832 -0.0875  0.8866 -0.1049
 8031TIP3    H145584   1.615   1.601   5.925 -2.3401 -0.3555 -0.7225
 8031TIP3    H245585   1.731   1.593   5.828 -0.5439 -2.4433  1.4831
 8032TIP3   OH245586   5.054   5.210   4.542 -0.3021 -0.0760  0.0797
 8032TIP3    H145587   5.030   5.220   4.635 -0.8992 -1.2566  0.0649
 8032TIP3    H245588   5.144   5.241   4.537 -0.2124 -0.1458  1.0841
 8033TIP3   OH245589   2.208   3.509  12.864  0.4666 -0.9116 -0.4537
 8033TIP3    H145590   2.181   3.427  12.823  0.5791 -0.7563 -0.8350
 8033TIP3    H245591   2.263   3.552  12.799 -0.4482 -0.0402 -0.6660
 8034TIP3   OH245592   3.730   6.707  12.333  0.1868 -0.3033 -0.4620
 8034TIP3    H145593   3.711   6.736  12.245  1.3062 -0.8770 -0.9216
 8034TIP3    H245594   3.654   6.655  12.359 -1.0159  1.4709 -0.3174
 8035TIP3   OH245595   1.859   0.866  15.214  0.2239 -0.4453  0.4410
 8035TIP3    H145596   1.932   0.925  15.196 -0.4353 -0.1764 -1.5900
 8035TIP3    H245597   1.831   0.889  15.303  0.7126  1.5456  0.1326
 8036TIP3   OH245598   2.426   6.101  14.035  0.1588 -0.0328  0.2634
 8036TIP3    H145599   2.488   6.113  14.107  1.4988 -0.2874 -0.8220
 8036TIP3    H245600   2.441   6.176  13.978 -2.4250  1.3851  1.2575
 8037TIP3   OH245601   3.850   5.720  15.917 -0.2039  0.2267 -0.1540
 8037TIP3    H145602   3.850   5.646  15.978 -2.1702  1.2185  1.1459
 8037TIP3    H245603   3.937   5.717  15.876  0.0816 -2.2669  0.4738
 8038TIP3   OH245604   2.971   0.495   5.988 -0.0453  0.3409 -0.5693
 8038TIP3    H145605   2.967   0.558   5.917 -0.3303 -0.3929 -1.2163
 8038TIP3    H245606   3.052   0.516   6.035  0.3198  0.6115 -1.3184
 8039TIP3   OH245607   3.729   5.265   5.431  0.2303 -0.3634 -0.0968
 8039TIP3    H145608   3.771   5.280   5.346 -0.6191  1.5364 -0.2332
 8039TIP3    H245609   3.637   5.288   5.416 -0.0602 -0.6493  1.1734
 8040TIP3   OH245610   2.542   0.266   5.656  0.0304 -0.2137  0.6717
 8040TIP3    H145611   2.622   0.268   5.708  0.6111  1.2712 -0.1967
 8040TIP3    H245612   2.562   0.323   5.581 -0.5508 -2.6658 -1.4755
 8041TIP3   OH245613   2.238   1.633  14.220  0.4838  0.5583 -0.0827
 8041TIP3    H145614   2.266   1.546  14.190 -1.4828 -0.1072 -0.0952
 8041TIP3    H245615   2.255   1.632  14.315 -1.3833 -0.6518  0.2916
 8042TIP3   OH245616   0.137   1.657   3.789 -0.0340 -0.5631  0.0674
 8042TIP3    H145617   0.053   1.611   3.785 -0.8281  0.5963  1.9661
 8042TIP3    H245618   0.199   1.592   3.819 -0.7006 -0.9254  0.6869
 8043TIP3   OH245619   1.803   2.914   4.310 -0.1127  0.1849 -0.1958
 8043TIP3    H145620   1.890   2.938   4.340 -0.1353  0.2945 -0.2189
 8043TIP3    H245621   1.753   2.996   4.310 -0.5667 -0.0814  0.9971
 8044TIP3   OH245622   1.678   3.646   3.683  0.1145 -0.4501 -0.1360
 8044TIP3    H145623   1.771   3.628   3.675  0.0169 -1.2272  0.3667
 8044TIP3    H245624   1.649   3.662   3.593  0.6137 -0.8163 -0.3714
 8045TIP3   OH245625   5.566   2.116  16.847  0.0606 -0.6730 -1.2240
 8045TIP3    H145626   5.612   2.056  16.906  2.7723  1.8457 -0.4896
 8045TIP3    H245627   5.475   2.112  16.874  0.9534 -0.7500  2.2507
 8046TIP3   OH245628   3.124   5.092  15.865 -0.0475  0.1099  0.1931
 8046TIP3    H145629   3.146   5.120  15.776 -1.1712 -0.5371 -0.3114
 8046TIP3    H245630   3.028   5.084  15.865  0.0274 -1.0478  1.1153
 8047TIP3   OH245631   0.148   5.961  12.665 -0.4697 -0.0520  0.1488
 8047TIP3    H145632   0.122   6.002  12.582 -0.4721 -1.5052 -0.5910
 8047TIP3    H245633   0.072   5.909  12.691 -0.6212  0.7066  1.2952
 8048TIP3   OH245634   0.083   6.804  13.288  0.2015 -0.4063 -0.0883
 8048TIP3    H145635   0.090   6.790  13.194  0.3485 -0.3106 -0.0919
 8048TIP3    H245636   0.004   6.757  13.314 -0.7186  0.8619 -0.5136
 8049TIP3   OH245637   1.630   5.249   5.504  0.3427  0.0376  0.2832
 8049TIP3    H145638   1.704   5.293   5.544 -0.8242 -0.1513  2.8017
 8049TIP3    H245639   1.553   5.288   5.545 -0.9520 -0.5020 -1.4798
 8050TIP3   OH245640   1.609   3.266   2.122 -0.3386  0.4470 -0.1542
 8050TIP3    H145641   1.604   3.175   2.095 -1.9729  0.2849  0.5764
 8050TIP3    H245642   1.667   3.266   2.198  0.3669  0.1668 -0.6869
 8051TIP3   OH245643   2.694   3.639  17.114  0.3253  0.0383 -0.1973
 8051TIP3    H145644   2.712   3.577  17.044  1.6140 -2.3153  2.0581
 8051TIP3    H245645   2.599   3.652  17.112 -0.0213 -2.1893 -0.6590
 8052TIP3   OH245646   0.759   5.535  12.886 -0.2002  0.0467  0.3757
 8052TIP3    H145647   0.705   5.456  12.879  1.1997 -0.9945  0.7843
 8052TIP3    H245648   0.743   5.567  12.975  1.0821 -1.2294  1.1008
 8053TIP3   OH245649   3.930   3.116  13.875 -0.1041  0.3292  0.0283
 8053TIP3    H145650   3.875   3.131  13.952  0.5733  0.8311  0.4357
 8053TIP3    H245651   3.876   3.141  13.800 -0.9605 -0.6699  0.2907
 8054TIP3   OH245652   4.643   4.451  17.125 -0.0302  0.2457 -0.3407
 8054TIP3    H145653   4.653   4.415  17.037 -0.8280 -1.1521  0.1084
 8054TIP3    H245654   4.714   4.412  17.175 -1.2129 -1.2381  0.2802
 8055TIP3   OH245655   3.063   0.783   3.924 -0.6285  0.2748 -0.0312
 8055TIP3    H145656   3.151   0.748   3.907  0.6675  2.3989  1.8184
 8055TIP3    H245657   3.053   0.778   4.019 -2.3433  0.5315 -0.1758
 8056TIP3   OH245658   0.656   0.958  11.176 -0.2124 -0.4131  0.0155
 8056TIP3    H145659   0.686   0.938  11.265 -2.2871 -1.7649  0.4786
 8056TIP3    H245660   0.575   0.908  11.166 -2.0360  2.5431 -1.3388
 8057TIP3   OH245661   5.378   5.485  12.800 -0.5938  0.4964 -0.2307
 8057TIP3    H145662   5.374   5.395  12.834 -0.1290  0.8354  0.7839
 8057TIP3    H245663   5.338   5.480  12.713 -0.3767 -0.7303 -0.2814
 8058TIP3   OH245664   4.645   2.894   0.972 -0.0404 -0.1489  0.5911
 8058TIP3    H145665   4.720   2.928   1.020  0.5655 -1.3113  0.4998
 8058TIP3    H245666   4.590   2.853   1.039 -0.9827  1.3456  0.7617
 8059TIP3   OH245667   1.935   4.763   3.318  0.2827  0.1009 -0.7317
 8059TIP3    H145668   1.996   4.697   3.284 -0.3937 -1.1047  0.3134
 8059TIP3    H245669   1.866   4.712   3.361 -1.0419  1.4552 -1.1678
 8060TIP3   OH245670   5.889   0.821  11.074  0.0896 -0.2408  0.3413
 8060TIP3    H145671   5.853   0.816  10.986 -0.7934  0.7975  0.6132
 8060TIP3    H245672   5.828   0.770  11.128 -0.8173  1.1829  0.7352
 8061TIP3   OH245673   3.554   2.323   2.149  0.6721  0.1587  0.0300
 8061TIP3    H145674   3.494   2.306   2.221  0.3454 -3.0053 -0.8185
 8061TIP3    H245675   3.639   2.296   2.181  0.1745 -3.6453 -1.2939
 8062TIP3   OH245676   5.810   4.488   6.060  0.6207  0.2699  0.1389
 8062TIP3    H145677   5.895   4.503   6.100  1.7001 -4.7749  0.3964
 8062TIP3    H245678   5.762   4.435   6.124 -2.5831  2.4251 -0.2520
 8063TIP3   OH245679   2.559   0.173  16.605 -0.8542 -0.1173  0.0236
 8063TIP3    H145680   2.555   0.150  16.513 -3.4640  1.2929 -0.3106
 8063TIP3    H245681   2.589   0.264  16.606 -0.7761 -0.1411  0.6023
 8064TIP3   OH245682   5.428   6.676  12.447  0.0154  0.1442 -0.0279
 8064TIP3    H145683   5.456   6.640  12.531  1.8395 -1.3524 -1.2140
 8064TIP3    H245684   5.493   6.743  12.427 -0.3011  0.3522 -0.3670
 8065TIP3   OH245685   2.018   4.072   6.614 -0.3410 -0.3696  0.0789
 8065TIP3    H145686   1.997   4.131   6.542 -0.0157 -0.0939  0.2029
 8065TIP3    H245687   1.960   4.098   6.685  0.9220  0.9288  0.6924
 8066TIP3   OH245688   5.439   1.724  10.547  0.0268  0.7924 -0.3238
 8066TIP3    H145689   5.510   1.711  10.610  0.6142  0.6580 -1.0002
 8066TIP3    H245690   5.362   1.685  10.589  0.9661 -1.7585 -0.7934
 8067TIP3   OH245691   6.318   1.295   0.285  0.1906  0.1177 -0.3069
 8067TIP3    H145692   6.323   1.209   0.243 -0.5002  0.0353 -0.2235
 8067TIP3    H245693   6.225   1.316   0.286  0.3232  0.6985  0.0179
 8068TIP3   OH245694   1.814   6.736   5.312  0.0642  0.6635  0.0992
 8068TIP3    H145695   1.851   6.822   5.331 -0.3164  0.4824  1.8302
 8068TIP3    H245696   1.824   6.687   5.393 -1.0155 -0.4662 -0.4092
 8069TIP3   OH245697   1.198   1.411   5.823  0.1504 -0.1456  0.1272
 8069TIP3    H145698   1.227   1.498   5.850  0.8822 -0.1236 -0.6831
 8069TIP3    H245699   1.276   1.369   5.788 -0.5384 -0.5085 -1.0503
 8070TIP3   OH245700   6.737   5.363  17.005 -0.2901 -0.0524 -0.5292
 8070TIP3    H145701   6.658   5.392  17.050 -0.8880 -0.1539 -1.4782
 8070TIP3    H245702   6.720   5.382  16.913  0.8777  0.0991 -0.7249
 8071TIP3   OH245703   1.890   4.357   3.182  0.0920  0.1651 -0.1165
 8071TIP3    H145704   1.894   4.450   3.162 -0.6045 -0.0798 -1.4867
 8071TIP3    H245705   1.939   4.315   3.111  0.1306 -0.5372  0.3169
 8072TIP3   OH245706   1.527   0.789   5.787  0.3527  0.5589 -0.7766
 8072TIP3    H145707   1.531   0.884   5.794 -0.2082  0.4818  1.3986
 8072TIP3    H245708   1.496   0.760   5.873 -1.1537 -1.4988 -1.9267
 8073TIP3   OH245709   1.329   0.335  14.323  0.4186 -1.3140  0.2745
 8073TIP3    H145710   1.239   0.352  14.296  0.7212 -2.0678 -1.3368
 8073TIP3    H245711   1.381   0.347  14.243  1.6427 -1.7048  0.9792
 8074TIP3   OH245712   3.017   5.566  12.363 -0.5657 -0.4654 -0.3170
 8074TIP3    H145713   2.993   5.474  12.357  1.7123 -1.4049  2.5201
 8074TIP3    H245714   3.071   5.582  12.286  1.3943 -2.4153  0.5617
 8075TIP3   OH245715   4.771   4.069   6.276  0.4809  0.3904  0.1404
 8075TIP3    H145716   4.687   4.100   6.311 -0.7182  0.9452 -2.8881
 8075TIP3    H245717   4.799   4.138   6.216  1.2528 -1.3410 -1.6063
 8076TIP3   OH245718   6.121   4.213   2.099  0.0860  0.2940 -0.6295
 8076TIP3    H145719   6.072   4.268   2.160 -1.0375 -2.4787  1.1928
 8076TIP3    H245720   6.205   4.198   2.143 -1.0297 -2.3894  0.8901
 8077TIP3   OH245721   0.477   1.885   0.222  0.1337  0.2496  0.0856
 8077TIP3    H145722   0.464   1.791   0.209  1.7324  0.3226 -2.7530
 8077TIP3    H245723   0.572   1.898   0.213  0.3764  1.8432  3.3070
 8078TIP3   OH245724   4.874   6.308   2.468  0.0899 -0.2552 -0.2468
 8078TIP3    H145725   4.967   6.283   2.462  0.2462  0.4778 -1.0576
 8078TIP3    H245726   4.859   6.363   2.392 -0.8205  0.2723  0.2953
 8079TIP3   OH245727   6.128   2.337  17.055  0.0313 -0.4052 -0.0782
 8079TIP3    H145728   6.078   2.405  17.011  0.2809  0.4058  0.8653
 8079TIP3    H245729   6.064   2.291  17.110 -0.0383 -0.6248 -0.3377
 8080TIP3   OH245730   2.609   6.659  12.997 -0.3894  0.4034 -0.2342
 8080TIP3    H145731   2.672   6.637  12.928 -0.3152  1.0921 -0.3994
 8080TIP3    H245732   2.524   6.656  12.953 -1.1312 -4.7732  0.8788
 8081TIP3   OH245733   2.925   3.110  16.982  0.3401 -1.1684 -0.1903
 8081TIP3    H145734   2.924   3.015  16.970 -0.7635 -1.1562 -0.3648
 8081TIP3    H245735   2.835   3.131  17.009  0.8776 -0.3176  1.0451
 8082TIP3   OH245736   2.525   4.361  11.538  0.0756  0.4435 -0.7123
 8082TIP3    H145737   2.563   4.369  11.450  2.1725 -0.2266  0.0713
 8082TIP3    H245738   2.523   4.267  11.554  1.8133  0.6107  0.7766
 8083TIP3   OH245739   4.065   6.733  14.449  0.0251 -0.2699 -0.3068
 8083TIP3    H145740   4.104   6.788  14.517 -0.0731 -1.5698  0.8561
 8083TIP3    H245741   4.124   6.657  14.444 -0.3084 -0.4788 -1.2432
 8084TIP3   OH245742   4.980   4.919   4.851 -0.3220  0.3902  0.1649
 8084TIP3    H145743   4.993   4.984   4.782 -0.7081 -1.1119 -1.3947
 8084TIP3    H245744   4.887   4.896   4.844  0.3901 -2.4551 -1.3649
 8085TIP3   OH245745   3.118   6.644   4.991 -0.3809  0.2393 -0.5617
 8085TIP3    H145746   3.088   6.731   5.018 -1.5761 -0.2001 -0.3872
 8085TIP3    H245747   3.213   6.652   4.984 -0.0280  0.6563  2.9032
 8086TIP3   OH245748   1.465   6.482  15.703 -0.5862 -0.1969 -0.1897
 8086TIP3    H145749   1.479   6.481  15.798  1.4853  0.6243 -0.4137
 8086TIP3    H245750   1.537   6.429  15.668 -1.9068 -1.3304 -1.2821
 8087TIP3   OH245751   2.553   1.582   4.268 -0.0294  0.7037  0.1928
 8087TIP3    H145752   2.586   1.651   4.326 -0.5157  1.0761  0.0403
 8087TIP3    H245753   2.503   1.630   4.202 -0.0281  0.2298 -0.1539
 8088TIP3   OH245754   1.726   2.211   1.293  0.6032 -0.2908 -0.3509
 8088TIP3    H145755   1.694   2.288   1.247  2.3843  0.3498 -0.5834
 8088TIP3    H245756   1.701   2.138   1.237  0.2142  0.2349 -0.8782
 8089TIP3   OH245757   5.144   1.634   6.368  0.0873 -0.6720 -0.5721
 8089TIP3    H145758   5.171   1.699   6.432  1.2520 -0.5331 -1.1632
 8089TIP3    H245759   5.226   1.596   6.337 -0.4976 -1.3702 -1.3169
 8090TIP3   OH245760   2.810   4.812   3.120 -0.1944 -0.3262 -0.3118
 8090TIP3    H145761   2.877   4.880   3.132  1.0079 -1.8078  2.1483
 8090TIP3    H245762   2.731   4.849   3.159  0.7635 -0.6682  2.1749
 8091TIP3   OH245763   2.352   1.305  14.924  0.4703  0.4210  0.4897
 8091TIP3    H145764   2.409   1.229  14.910  0.4666  0.3275  0.9411
 8091TIP3    H245765   2.278   1.291  14.866  1.4914  1.1736 -1.0421
 8092TIP3   OH245766   2.544   0.664   3.646  0.2135 -0.4107 -0.2408
 8092TIP3    H145767   2.455   0.695   3.662  0.6253 -0.2870  2.0641
 8092TIP3    H245768   2.595   0.744   3.635  0.0929 -0.4818 -1.5387
 8093TIP3   OH245769   1.669   5.818   3.145  0.4206 -0.4130  0.1367
 8093TIP3    H145770   1.698   5.890   3.202 -0.5219  0.7384 -0.7861
 8093TIP3    H245771   1.573   5.820   3.152  0.3230 -0.6299 -1.0447
 8094TIP3   OH245772   4.329   1.358   2.308 -0.0168  0.2228 -0.1026
 8094TIP3    H145773   4.337   1.320   2.220  0.8698  0.0442  0.0512
 8094TIP3    H245774   4.367   1.293   2.366  4.7279  2.5286 -0.1205
 8095TIP3   OH245775   1.936   2.808   6.075 -0.1694 -0.6836 -0.2021
 8095TIP3    H145776   2.032   2.804   6.078 -0.2254 -2.7848  1.0888
 8095TIP3    H245777   1.908   2.762   6.155 -2.2573  0.8797  0.0324
 8096TIP3   OH245778   4.818   5.306  14.200 -0.0194  0.9215 -0.0611
 8096TIP3    H145779   4.814   5.339  14.290 -0.1637 -0.3015  0.4032
 8096TIP3    H245780   4.903   5.262  14.195  0.0031  1.0178 -0.5443
 8097TIP3   OH245781   2.487   6.073  13.548 -0.0834 -0.4680 -0.1284
 8097TIP3    H145782   2.558   6.063  13.612  0.5862  0.4208 -0.7152
 8097TIP3    H245783   2.408   6.083  13.601  0.5577  1.0161  0.6030
 8098TIP3   OH245784   4.965   5.426  13.214 -0.0908 -0.0594  0.4717
 8098TIP3    H145785   4.871   5.410  13.211 -0.3040  1.1709 -0.8221
 8098TIP3    H245786   5.000   5.381  13.137 -0.0453  1.6945 -0.5806
 8099TIP3   OH245787   0.337   3.095  16.013  0.7087 -0.1216 -0.5439
 8099TIP3    H145788   0.412   3.058  15.966  3.7721  2.3994  1.9475
 8099TIP3    H245789   0.352   3.070  16.105 -1.1410  1.0624  0.1263
 8100TIP3   OH245790   6.726   5.912   3.829  0.4462 -0.8008  0.3723
 8100TIP3    H145791   6.665   5.908   3.755  0.6242  1.2661  0.0396
 8100TIP3    H245792   6.761   6.002   3.826  1.6305 -1.1579  2.0440
 8101TIP3   OH245793   0.522   0.700  11.189 -0.9468  0.0778  0.3036
 8101TIP3    H145794   0.438   0.687  11.234 -0.8396 -0.4756  0.3456
 8101TIP3    H245795   0.579   0.736  11.257 -1.0293  0.0589  0.3841
 8102TIP3   OH245796   6.041   6.160  12.965  0.1073  0.7573 -0.0872
 8102TIP3    H145797   6.041   6.076  13.010 -0.2458  1.5091  1.3638
 8102TIP3    H245798   5.973   6.151  12.897 -0.3566  0.0834  0.4552
 8103TIP3   OH245799   6.571   5.615   6.256 -0.5701  0.3087 -0.1265
 8103TIP3    H145800   6.480   5.587   6.254 -0.4432 -0.1011 -0.2549
 8103TIP3    H245801   6.621   5.535   6.240 -0.1880  0.5272 -0.0319
 8104TIP3   OH245802   0.778   2.133  13.327 -0.6112 -1.2824  0.0955
 8104TIP3    H145803   0.797   2.065  13.262  0.0552 -1.7799  0.7825
 8104TIP3    H245804   0.729   2.199  13.279  0.0881 -1.5078 -0.9748
 8105TIP3   OH245805   2.271   4.061  13.284 -0.1693 -0.6001 -0.2214
 8105TIP3    H145806   2.326   4.080  13.208 -0.0717 -2.0637 -0.5533
 8105TIP3    H245807   2.211   4.135  13.289  2.4420  1.6199  0.8096
 8106TIP3   OH245808   6.205   1.995  17.149  0.8101  0.2422 -0.2347
 8106TIP3    H145809   6.229   1.902  17.147  2.2621  0.6071 -1.6700
 8106TIP3    H245810   6.154   2.004  17.229  1.6348 -1.5659  0.5649
 8107TIP3   OH245811   4.168   3.521   2.861  0.2917  0.1283  0.2749
 8107TIP3    H145812   4.192   3.571   2.939 -0.6930  0.1043  0.6071
 8107TIP3    H245813   4.110   3.579   2.813  1.2781  0.3372 -0.7125
 8108TIP3   OH245814   1.446   3.029  14.174 -0.3973 -0.7735 -0.1137
 8108TIP3    H145815   1.535   2.999  14.195  0.4670 -0.0030 -2.3899
 8108TIP3    H245816   1.445   3.120  14.204 -0.3084 -0.6864 -0.3746
 8109TIP3   OH245817   1.866   6.032   1.576  0.2642 -0.5827 -0.2905
 8109TIP3    H145818   1.914   5.983   1.643 -2.5777 -3.5319 -0.1883
 8109TIP3    H245819   1.921   6.026   1.498  0.9423 -2.2787  0.2656
 8110TIP3   OH245820   5.839   0.751  15.275 -0.4271  0.4299  0.8110
 8110TIP3    H145821   5.844   0.809  15.199 -0.8906  1.5211  1.6001
 8110TIP3    H245822   5.930   0.738  15.302  0.3220 -3.6520 -2.5747
 8111TIP3   OH245823   1.872   3.926   4.111  0.1922 -0.8384 -0.4534
 8111TIP3    H145824   1.867   4.013   4.072  1.9538 -0.6520 -0.3463
 8111TIP3    H245825   1.835   3.867   4.045 -0.7954 -0.0524 -0.6200
 8112TIP3   OH245826   5.756   1.114   5.732 -0.3128  0.1089 -0.0425
 8112TIP3    H145827   5.744   1.151   5.820 -1.2447 -0.0692 -0.0833
 8112TIP3    H245828   5.743   1.188   5.673 -0.2349  0.1136 -0.0543
 8113TIP3   OH245829   0.057   5.443   1.897 -0.2127 -0.1019 -0.0096
 8113TIP3    H145830   0.083   5.501   1.969 -0.5089  0.2898 -0.2143
 8113TIP3    H245831   0.109   5.364   1.910 -0.4811 -0.1515  0.8147
 8114TIP3   OH245832   2.327   4.716  11.856  0.0906  0.3576 -0.4268
 8114TIP3    H145833   2.342   4.625  11.829 -0.3023  0.6124 -1.5923
 8114TIP3    H245834   2.256   4.746  11.799  0.3613  1.4619 -0.2039
 8115TIP3   OH245835   1.935   4.387  13.036  0.3349 -0.1605  0.0160
 8115TIP3    H145836   1.996   4.389  12.962 -0.6364  1.6299 -0.7970
 8115TIP3    H245837   1.989   4.361  13.111  1.6521 -0.5935 -1.0477
 8116TIP3   OH245838   4.283   4.310  11.716  0.0594 -0.1214  0.6627
 8116TIP3    H145839   4.254   4.311  11.807 -2.0612 -0.7469  0.0598
 8116TIP3    H245840   4.363   4.258  11.716 -2.1522 -3.9653  1.6647
 8117TIP3   OH245841   2.829   3.554   5.650 -0.5709  0.1689 -0.4529
 8117TIP3    H145842   2.878   3.474   5.630 -0.3494 -0.4653  2.2597
 8117TIP3    H245843   2.878   3.624   5.605 -1.9787 -1.2540 -4.7564
 8118TIP3   OH245844   5.056   0.440  13.158 -0.0638  0.5180  0.3400
 8118TIP3    H145845   5.124   0.486  13.109  1.5881 -0.1821  1.8287
 8118TIP3    H245846   5.095   0.355  13.177 -1.4366  0.0403  1.0987
 8119TIP3   OH245847   3.899   3.577  11.519  0.3124 -0.2299 -0.0836
 8119TIP3    H145848   3.970   3.618  11.470  0.3073 -1.6871 -1.3429
 8119TIP3    H245849   3.939   3.501  11.560 -0.3547 -0.6412 -0.1921
 8120TIP3   OH245850   4.802   3.657   1.476  0.0641 -0.1223  0.3522
 8120TIP3    H145851   4.746   3.734   1.489  0.7091  0.3766  0.1910
 8120TIP3    H245852   4.740   3.585   1.464 -0.5990  0.6685 -1.3993
 8121TIP3   OH245853   2.737   3.022  11.636 -0.2024  0.1843 -0.2797
 8121TIP3    H145854   2.758   2.930  11.624  0.5102  0.1831  0.8097
 8121TIP3    H245855   2.696   3.049  11.553 -0.3490 -1.0752 -0.6325
 8122TIP3   OH245856   1.578   6.765   0.973  0.4991  0.0185  0.3508
 8122TIP3    H145857   1.625   6.830   0.920  0.9764  0.0219  0.7786
 8122TIP3    H245858   1.609   6.680   0.939 -0.5976 -0.0139 -0.6425
 8123TIP3   OH245859   2.727   5.904  13.244  0.4114  0.5698  0.0892
 8123TIP3    H145860   2.674   5.966  13.194  0.7503 -0.0787 -1.1493
 8123TIP3    H245861   2.740   5.945  13.329 -0.8932  1.3620 -0.0707
 8124TIP3   OH245862   5.109   3.128   1.156  0.1359 -0.0802 -0.1312
 8124TIP3    H145863   5.077   3.041   1.131 -1.1500  0.8255 -1.7845
 8124TIP3    H245864   5.192   3.110   1.201  1.0422 -2.0712 -2.3664
 8125TIP3   OH245865   2.083   1.080  16.701  0.1437 -0.3222 -0.7075
 8125TIP3    H145866   2.102   1.174  16.706  2.7367 -0.7823 -0.2458
 8125TIP3    H245867   2.107   1.055  16.612  0.6812 -0.7433 -0.4515
 8126TIP3   OH245868   1.068   1.756  17.186  0.1682  0.0063 -0.2780
 8126TIP3    H145869   1.063   1.677  17.240 -1.3068  0.2836  0.0507
 8126TIP3    H245870   1.130   1.734  17.116  2.4020 -0.2446  1.6637
 8127TIP3   OH245871   4.952   1.746  16.681  0.4738 -0.3002  0.9759
 8127TIP3    H145872   5.009   1.725  16.755  0.7094 -0.3238  0.7889
 8127TIP3    H245873   4.977   1.683  16.613  1.2010  0.5693  0.4048
 8128TIP3   OH245874   4.111   6.318   2.636 -0.4361 -0.3880 -0.4504
 8128TIP3    H145875   4.156   6.239   2.663  1.1032  0.8619  0.8241
 8128TIP3    H245876   4.052   6.338   2.709  0.2231  0.3828 -0.1103
 8129TIP3   OH245877   4.793   2.590   1.446 -0.2146 -0.5272  0.1616
 8129TIP3    H145878   4.876   2.542   1.444 -0.0621 -0.3383  1.2471
 8129TIP3    H245879   4.782   2.614   1.538 -0.5294  1.0779 -0.2585
 8130TIP3   OH245880   3.779   5.204  13.915 -0.1004 -0.0740 -0.3085
 8130TIP3    H145881   3.710   5.233  13.976  0.4647 -0.1794  0.3915
 8130TIP3    H245882   3.790   5.111  13.935  2.2937  0.5198  1.6965
 8131TIP3   OH245883   5.633   2.733  11.947 -0.0574 -0.6028  0.2451
 8131TIP3    H145884   5.695   2.805  11.942  0.3153 -0.9434 -0.0420
 8131TIP3    H245885   5.553   2.773  11.982 -0.5976  0.4416 -1.9881
 8132TIP3   OH245886   2.021   1.791  10.303  0.2995 -0.1717  0.3364
 8132TIP3    H145887   2.102   1.764  10.347  1.4090  2.6468  0.2792
 8132TIP3    H245888   2.000   1.876  10.343 -2.1110 -0.3688 -0.3574
 8133TIP3   OH245889   0.530   4.462   2.338  0.4773  0.0455 -0.2877
 8133TIP3    H145890   0.439   4.437   2.355  0.5975 -1.7444 -1.9066
 8133TIP3    H245891   0.581   4.386   2.368  1.2379  0.0671 -1.4739
 8134TIP3   OH245892   5.145   2.035   2.437 -0.9398 -0.8194 -0.2723
 8134TIP3    H145893   5.167   1.997   2.522 -3.0082 -1.3977  0.0681
 8134TIP3    H245894   5.164   1.966   2.374  0.7649 -0.3294 -0.3548
 8135TIP3   OH245895   6.673   0.869  14.503 -0.0188 -0.1777 -0.4709
 8135TIP3    H145896   6.601   0.902  14.449 -1.0608  0.0914  1.0511
 8135TIP3    H245897   6.650   0.778  14.521  0.0734 -0.1271 -0.0880
 8136TIP3   OH245898   2.382   6.325  11.037 -0.0033 -0.2236  0.4689
 8136TIP3    H145899   2.407   6.412  11.067 -0.1917  0.3110 -0.8622
 8136TIP3    H245900   2.453   6.268  11.066  1.6198  0.8559 -1.1506
 8137TIP3   OH245901   4.578   3.039  16.595  0.8320 -0.5264 -0.9362
 8137TIP3    H145902   4.551   3.125  16.626  2.5844  0.6175 -2.3965
 8137TIP3    H245903   4.503   3.007  16.544 -1.3845 -1.6718  2.6520
 8138TIP3   OH245904   0.171   6.046   5.209 -0.1112 -0.0597 -0.1707
 8138TIP3    H145905   0.250   5.993   5.221 -1.1201 -1.6646 -0.4118
 8138TIP3    H245906   0.177   6.077   5.118  0.2180 -0.2103 -0.2006
 8139TIP3   OH245907   2.012   0.863   0.539 -0.1252  0.0285 -0.3638
 8139TIP3    H145908   2.082   0.825   0.486  1.7390  1.2268  1.1116
 8139TIP3    H245909   2.024   0.826   0.626  0.0101  1.8070  0.4145
 8140TIP3   OH245910   6.627   2.669   2.420  0.4212 -0.3734 -0.2874
 8140TIP3    H145911   6.595   2.647   2.507 -1.4851 -0.9212 -1.0695
 8140TIP3    H245912   6.669   2.589   2.389  1.0272 -0.2044  0.0881
 8141TIP3   OH245913   6.305   1.713   3.517 -0.3772  0.0506 -0.2322
 8141TIP3    H145914   6.210   1.700   3.519 -0.3476 -0.1229  0.0174
 8141TIP3    H245915   6.336   1.652   3.449 -0.6794  1.6245 -1.8640
 8142TIP3   OH245916   4.113   3.042  17.141  0.0663 -0.0010 -0.7620
 8142TIP3    H145917   4.161   3.076  17.216  1.2457  1.7008 -2.1894
 8142TIP3    H245918   4.022   3.035  17.171  0.6101  0.0973  0.9686
 8143TIP3   OH245919   3.254   5.882  14.642 -0.9481  0.2742 -0.0299
 8143TIP3    H145920   3.211   5.959  14.679 -0.3446 -0.3184  2.0489
 8143TIP3    H245921   3.243   5.814  14.709  2.3742 -0.1806  0.2200
 8144TIP3   OH245922   0.688   5.614   1.867  0.0019  0.1370 -0.0944
 8144TIP3    H145923   0.688   5.563   1.785 -1.8426 -2.7250  1.5073
 8144TIP3    H245924   0.600   5.601   1.903  0.4160  2.1891  1.8727
 8145TIP3   OH245925   2.025   5.426   2.643 -0.1039 -0.0351  0.5708
 8145TIP3    H145926   1.979   5.440   2.726  1.2214 -2.7735  1.8889
 8145TIP3    H245927   1.956   5.403   2.580 -0.8449 -1.5785  1.8796
 8146TIP3   OH245928   1.895   2.971  12.810 -0.0742 -0.0746  0.3083
 8146TIP3    H145929   1.831   2.900  12.807  1.2115 -1.2605 -0.1152
 8146TIP3    H245930   1.966   2.942  12.753  0.0127  2.0592 -0.7537
 8147TIP3   OH245931   1.843   3.493   6.256  0.0173 -0.4219 -0.2678
 8147TIP3    H145932   1.874   3.424   6.314 -2.0090 -1.3889 -0.2730
 8147TIP3    H245933   1.754   3.512   6.286  0.1024  1.3540 -1.0254
 8148TIP3   OH245934   0.551   0.083   3.542  0.3298  0.0384 -0.4044
 8148TIP3    H145935   0.569   0.070   3.449 -0.3263 -1.6346 -0.3401
 8148TIP3    H245936   0.461   0.113   3.545  0.5252  0.6335 -0.3203
 8149TIP3   OH245937   6.155   5.906  11.999 -0.3443 -0.2626 -0.1085
 8149TIP3    H145938   6.104   5.983  11.977 -2.2015 -1.6138 -0.7654
 8149TIP3    H245939   6.159   5.907  12.095  0.2959  0.9987 -0.1236
 8150TIP3   OH245940   6.166   4.561  17.178  0.0648 -0.3065  0.1695
 8150TIP3    H145941   6.147   4.560  17.084 -1.6558 -0.2900  0.4903
 8150TIP3    H245942   6.204   4.475  17.196 -1.6343 -1.1588 -0.1736
 8151TIP3   OH245943   4.474   0.306   0.585  0.2915  0.7274  0.3846
 8151TIP3    H145944   4.409   0.277   0.520 -1.0139 -1.0077  2.3308
 8151TIP3    H245945   4.517   0.225   0.613  0.0795  1.2515  2.3767
 8152TIP3   OH245946   3.434   0.477  14.113 -0.2733  0.4912 -0.0532
 8152TIP3    H145947   3.385   0.440  14.040 -0.0797 -0.2760  0.1906
 8152TIP3    H245948   3.469   0.559  14.080  0.5571 -0.2690 -1.1223
 8153TIP3   OH245949   3.886   1.369  11.501  0.5216  0.8270  0.2697
 8153TIP3    H145950   3.827   1.387  11.574 -0.4335  0.4564 -0.3896
 8153TIP3    H245951   3.901   1.275  11.504 -0.7063  0.5677 -0.8580
 8154TIP3   OH245952   1.225   5.477   5.121  0.3051  0.1320  0.1370
 8154TIP3    H145953   1.273   5.547   5.076 -1.5364  1.2170 -0.2397
 8154TIP3    H245954   1.139   5.475   5.078  0.1331 -2.0566  0.4703
 8155TIP3   OH245955   2.191   3.281   3.787 -0.0134 -0.1732  0.2534
 8155TIP3    H145956   2.202   3.374   3.766 -1.1942  0.2250  1.2475
 8155TIP3    H245957   2.270   3.239   3.754  0.2803  1.0939 -0.7274
 8156TIP3   OH245958   3.039   0.701   1.447  0.4024 -0.7083  0.1303
 8156TIP3    H145959   3.051   0.771   1.512  1.5236  0.3210 -1.1164
 8156TIP3    H245960   2.946   0.707   1.423 -0.0120 -1.0487  1.5328
 8157TIP3   OH245961   3.546   1.364   6.193  0.3028 -0.4128  0.2103
 8157TIP3    H145962   3.473   1.421   6.170 -0.0851  0.5698  3.4183
 8157TIP3    H245963   3.507   1.278   6.206  0.2656 -0.5898 -0.9449
 8158TIP3   OH245964   2.290   1.018  12.550 -0.1307 -0.0712 -0.5301
 8158TIP3    H145965   2.239   1.026  12.631 -1.3334  1.5214 -1.3982
 8158TIP3    H245966   2.380   1.011  12.580 -0.5984 -0.1370  0.9729
 8159TIP3   OH245967   1.675   6.104   1.834 -0.1609 -0.2383 -0.5205
 8159TIP3    H145968   1.584   6.108   1.803  0.2799 -0.2799 -1.9018
 8159TIP3    H245969   1.723   6.068   1.760  0.5952 -2.8694  1.1044
 8160TIP3   OH245970   0.987   6.686  14.937 -0.4407 -0.0933 -0.1365
 8160TIP3    H145971   0.904   6.688  14.889 -0.7290  0.3033  0.3609
 8160TIP3    H245972   0.989   6.600  14.978 -1.6105  0.6103  1.5267
 8161TIP3   OH245973   0.209   3.342   5.905 -0.3327  0.4508  0.7177
 8161TIP3    H145974   0.239   3.363   5.817  2.2075  0.5893  1.5399
 8161TIP3    H245975   0.137   3.280   5.892  0.6107 -0.2728 -1.4079
 8162TIP3   OH245976   5.664   4.558  13.279 -0.2392  0.2078  0.1242
 8162TIP3    H145977   5.758   4.535  13.276 -0.1434  0.6479 -0.2647
 8162TIP3    H245978   5.658   4.640  13.231 -0.7592  0.4267  0.5606
 8163TIP3   OH245979   0.166   2.515   4.678  0.0036  0.2658 -0.1792
 8163TIP3    H145980   0.092   2.529   4.736  0.8693 -2.0927  1.6716
 8163TIP3    H245981   0.218   2.595   4.685 -1.3055  1.1353  0.0626
 8164TIP3   OH245982   5.214   2.476   3.581  0.3697  0.2137  0.0078
 8164TIP3    H145983   5.238   2.568   3.575 -0.2590  0.3395 -0.6908
 8164TIP3    H245984   5.199   2.448   3.491 -2.6616  0.3410  0.3453
 8165TIP3   OH245985   3.171   0.639  11.948  0.1237 -0.1113  0.1098
 8165TIP3    H145986   3.122   0.632  12.030 -0.2496 -0.0212 -0.1022
 8165TIP3    H245987   3.122   0.583  11.887 -0.9549  1.6226 -0.6925
 8166TIP3   OH245988   2.643   3.056   4.546 -0.2038 -0.6635  0.4285
 8166TIP3    H145989   2.570   3.118   4.545 -1.2659 -1.8665  0.2054
 8166TIP3    H245990   2.721   3.110   4.558 -0.9387  0.8386 -1.1845
 8167TIP3   OH245991   1.143   4.566   2.390  0.2531  0.1766  0.3571
 8167TIP3    H145992   1.180   4.574   2.302 -0.4245  1.2143  0.1486
 8167TIP3    H245993   1.190   4.492   2.429  0.4633 -0.4036 -0.9252
 8168TIP3   OH245994   0.891   6.549   6.239  0.0101 -0.4387 -0.2960
 8168TIP3    H145995   0.864   6.639   6.254  2.9476  0.6997 -1.0678
 8168TIP3    H245996   0.921   6.548   6.148  1.5263 -1.7279  0.1573
 8169TIP3   OH245997   0.193   5.214  14.924  0.2112 -0.0864  0.3586
 8169TIP3    H145998   0.100   5.229  14.905  0.4266  1.1921  0.2517
 8169TIP3    H245999   0.219   5.146  14.861 -1.2030 -2.2322  1.9505
 8170TIP3   OH246000   6.028   4.574   1.035 -0.4098 -0.2298 -0.3475
 8170TIP3    H146001   6.087   4.543   0.966  2.0523  1.8728  0.6348
 8170TIP3    H246002   5.997   4.494   1.078 -0.9735 -1.5352 -2.9467
 8171TIP3   OH246003   5.643   3.819   3.619 -0.1035 -0.1302  0.0467
 8171TIP3    H146004   5.658   3.760   3.544 -1.9727  0.0399 -0.5241
 8171TIP3    H246005   5.719   3.877   3.620 -0.1467  0.0193 -1.8875
 8172TIP3   OH246006   3.819   0.526  14.647  0.0938 -0.4715 -0.2564
 8172TIP3    H146007   3.848   0.437  14.666  0.1708 -0.1522  1.2343
 8172TIP3    H246008   3.888   0.582  14.682 -1.1423  0.2382  1.1440
 8173TIP3   OH246009   3.384   0.398  13.385  0.2266  0.1437 -0.1073
 8173TIP3    H146010   3.403   0.308  13.412 -0.1945 -0.6472 -2.2556
 8173TIP3    H246011   3.303   0.420  13.430  0.9421 -0.0738  1.3691
 8174TIP3   OH246012   0.556   3.572  11.367  0.3158  0.4125 -0.0284
 8174TIP3    H146013   0.481   3.561  11.426  0.4793  2.1784  0.5571
 8174TIP3    H246014   0.554   3.664  11.342  1.4706  0.1571 -1.1557
 8175TIP3   OH246015   5.404   5.043   3.781  0.6114 -1.0647  0.1573
 8175TIP3    H146016   5.390   5.107   3.711  1.4153 -1.4772 -0.3985
 8175TIP3    H246017   5.358   4.965   3.751  0.9880 -1.2540  0.0676
 8176TIP3   OH246018   1.444   4.941  11.677 -0.6139  0.3631  0.8314
 8176TIP3    H146019   1.415   4.901  11.759 -3.0058  0.1496 -0.0287
 8176TIP3    H246020   1.484   4.869  11.628 -1.4451 -0.1164  0.8301
 8177TIP3   OH246021   4.930   4.326  15.459  0.0297 -0.3668 -0.2551
 8177TIP3    H146022   4.917   4.237  15.490 -1.0147 -0.8782 -2.0896
 8177TIP3    H246023   4.961   4.317  15.369 -1.2903  1.1094 -0.9119
 8178TIP3   OH246024   5.713   3.671   3.398 -0.7001  0.2448 -0.0662
 8178TIP3    H146025   5.722   3.697   3.306 -0.1749  1.6240  0.3516
 8178TIP3    H246026   5.799   3.687   3.436 -0.2928 -2.2517  0.2566
 8179TIP3   OH246027   0.833   2.768  16.675  0.4819 -0.2899  0.2701
 8179TIP3    H146028   0.830   2.782  16.770 -1.8397  0.6345  0.1246
 8179TIP3    H246029   0.853   2.854  16.639 -0.6729 -0.1676 -0.1261
 8180TIP3   OH246030   4.114   0.085   4.166 -0.5541 -0.6156 -0.7744
 8180TIP3    H146031   4.072   0.101   4.081  0.0020  0.6524 -0.8364
 8180TIP3    H246032   4.074   0.149   4.225 -0.3190 -0.9067 -0.2952
 8181TIP3   OH246033   4.623   0.468   0.416  0.2899  0.3447  0.0246
 8181TIP3    H146034   4.568   0.452   0.493  0.8133  0.6244  0.4627
 8181TIP3    H246035   4.574   0.430   0.343 -0.1736  0.0031  0.5078
 8182TIP3   OH246036   4.710   5.755  12.444  0.1824  0.0491 -0.3207
 8182TIP3    H146037   4.685   5.686  12.505 -0.7318  1.4778  0.9888
 8182TIP3    H246038   4.680   5.836  12.485  1.5406  1.2856 -1.6242
 8183TIP3   OH246039   2.286   4.764   0.222 -0.7482  0.1958  0.2018
 8183TIP3    H146040   2.192   4.746   0.224 -0.6581 -0.5816 -0.9738
 8183TIP3    H246041   2.294   4.847   0.176 -0.9076  0.7714  1.2039
 8184TIP3   OH246042   2.698   4.983   2.173  0.3336 -0.0022  0.4420
 8184TIP3    H146043   2.625   4.935   2.133 -1.8343  3.2697  0.0732
 8184TIP3    H246044   2.656   5.053   2.223  3.2349  1.2135  1.3905
 8185TIP3   OH246045   6.723   5.812  12.692  0.7008 -0.1573 -0.7100
 8185TIP3    H146046   6.746   5.723  12.721 -4.4375 -1.0037  1.8644
 8185TIP3    H246047   6.704   5.803  12.599 -2.1415 -2.5999 -0.0481
 8186TIP3   OH246048   5.931   4.350   0.617  0.1451  0.2095 -0.7039
 8186TIP3    H146049   5.979   4.275   0.652  0.4641  0.8350  0.2052
 8186TIP3    H246050   5.984   4.426   0.640 -1.5655  0.9915  0.9153
 8187TIP3   OH246051   6.169   6.008  16.170  0.2429  0.4141  0.6676
 8187TIP3    H146052   6.127   5.992  16.255 -0.3467  0.8508  0.4622
 8187TIP3    H246053   6.229   5.934  16.159 -1.2544 -0.8207  0.4734
 8188TIP3   OH246054   2.705   0.315   5.314 -0.2277 -0.2794 -0.2502
 8188TIP3    H146055   2.744   0.367   5.245  1.0307  0.9046  1.2653
 8188TIP3    H246056   2.742   0.350   5.395 -3.1813 -0.2138  1.2301
 8189TIP3   OH246057   4.603   0.206   0.255  0.5602  0.6982  0.2818
 8189TIP3    H146058   4.509   0.195   0.272  0.5253  2.0251  1.1538
 8189TIP3    H246059   4.613   0.190   0.161 -0.0308 -2.3555  0.6278
 8190TIP3   OH246060   2.845   2.580   2.115 -0.1102  0.2553 -0.2315
 8190TIP3    H146061   2.898   2.611   2.041 -1.8830  0.8335 -1.3193
 8190TIP3    H246062   2.798   2.657   2.145 -1.8220 -0.6034 -0.5899
 8191TIP3   OH246063   4.669   5.476   1.650  0.2008  0.0622 -0.5186
 8191TIP3    H146064   4.624   5.464   1.567 -2.2937  0.2260  0.7245
 8191TIP3    H246065   4.762   5.465   1.629 -0.4757 -1.9029 -2.9248
 8192TIP3   OH246066   5.316   1.481   2.304 -0.7518 -0.5096  0.3896
 8192TIP3    H146067   5.264   1.539   2.248  1.1215 -0.3852 -1.3540
 8192TIP3    H246068   5.377   1.540   2.348 -0.8915 -0.8423  1.0336
 8193TIP3   OH246069   5.586   4.256   2.275 -0.1604 -0.0318 -0.2482
 8193TIP3    H146070   5.521   4.325   2.265 -0.0697  0.1056  0.0999
 8193TIP3    H246071   5.605   4.254   2.369 -1.3656 -1.6421 -0.0147
 8194TIP3   OH246072   1.726   3.408  15.105 -0.6423  0.4706 -0.2461
 8194TIP3    H146073   1.638   3.373  15.116 -0.0253 -0.3595  3.7456
 8194TIP3    H246074   1.772   3.342  15.053 -1.4384 -1.1146  0.9768
 8195TIP3   OH246075   1.155   0.219   5.570  0.6289  0.2807 -0.0755
 8195TIP3    H146076   1.206   0.188   5.495 -1.5240 -0.6313 -1.2527
 8195TIP3    H246077   1.086   0.154   5.580 -0.3557  1.4863  1.4173
 8196TIP3   OH246078   4.226   4.521   1.387  0.4241  0.6869 -0.4449
 8196TIP3    H146079   4.218   4.515   1.482 -0.0366  2.8987 -0.2783
 8196TIP3    H246080   4.195   4.437   1.354 -2.4044  0.9420  1.2327
 8197TIP3   OH246081   2.481   1.249   3.636  0.3580 -0.0581  0.2208
 8197TIP3    H146082   2.530   1.277   3.714  2.1348  0.6336 -1.0688
 8197TIP3    H246083   2.433   1.327   3.609 -2.5747 -1.0380  2.1525
 8198TIP3   OH246084   6.179   2.640   3.007  0.8835  0.0259  0.4600
 8198TIP3    H146085   6.106   2.701   3.004  0.7717  0.0644  2.4183
 8198TIP3    H246086   6.247   2.687   3.056  1.7257 -0.5135 -0.1641
 8199TIP3   OH246087   0.177   6.242   2.031  0.0288 -0.1836 -0.0350
 8199TIP3    H146088   0.184   6.158   1.985  1.0761  0.3495 -0.8953
 8199TIP3    H246089   0.107   6.228   2.095  0.5466 -1.8828  0.2274
 8200TIP3   OH246090   4.466   0.797   5.878  0.4630  0.2017 -0.1005
 8200TIP3    H146091   4.494   0.788   5.787 -0.0282 -1.6908 -0.1017
 8200TIP3    H246092   4.530   0.749   5.929 -1.2596 -2.0029  0.1354
 8201TIP3   OH246093   2.926   5.621  15.565  0.1357  0.1828 -0.1374
 8201TIP3    H146094   2.872   5.562  15.512  0.7413 -1.0580  0.5941
 8201TIP3    H246095   3.015   5.605  15.534  0.2554  1.1351 -0.3112
 8202TIP3   OH246096   2.196   3.531  17.103 -0.0835  0.2367 -0.0858
 8202TIP3    H146097   2.116   3.492  17.137 -0.1425  1.9262  1.9234
 8202TIP3    H246098   2.217   3.479  17.026 -2.1259 -1.3612  0.3415
 8203TIP3   OH246099   1.776   4.401  15.566  0.5859  0.6364  0.3450
 8203TIP3    H146100   1.761   4.308  15.584 -0.8418  0.6794 -0.4258
 8203TIP3    H246101   1.852   4.403  15.508  0.2677 -0.1179 -0.1165
 8204TIP3   OH246102   2.633   5.147   2.599 -0.0514  0.0071 -0.1363
 8204TIP3    H146103   2.607   5.140   2.691  0.5561  0.2649  0.0599
 8204TIP3    H246104   2.720   5.106   2.595 -0.2788 -0.4423 -0.6951
 8205TIP3   OH246105   5.117   6.223   0.251  0.5824  0.1219  0.0316
 8205TIP3    H146106   5.069   6.298   0.215  1.2271  0.1643 -0.7709
 8205TIP3    H246107   5.209   6.242   0.232  0.7764 -0.7570  0.0399
 8206TIP3   OH246108   5.257   4.038   2.277  0.5054  0.4101  0.0684
 8206TIP3    H146109   5.241   3.994   2.361  1.4685  0.8708  0.5062
 8206TIP3    H246110   5.347   4.014   2.254  0.1664  0.0825 -0.9717
 8207TIP3   OH246111   1.694   5.006  14.604 -0.3794 -0.1306 -0.2326
 8207TIP3    H146112   1.697   4.972  14.693 -1.2723 -0.2423 -0.2429
 8207TIP3    H246113   1.609   4.980  14.570 -0.3921  0.6370 -0.8374
 8208TIP3   OH246114   6.315   0.329  16.311  0.2407  0.4502 -0.1784
 8208TIP3    H146115   6.273   0.243  16.309 -0.8068  0.9688 -1.8328
 8208TIP3    H246116   6.245   0.391  16.294  0.7070  1.8096  2.3466
 8209TIP3   OH246117   3.139   2.383  16.818  0.1850 -0.2617 -0.2159
 8209TIP3    H146118   3.136   2.288  16.814  0.3057 -0.4080  2.1063
 8209TIP3    H246119   3.049   2.411  16.802  0.2521 -0.6966 -1.4640
 8210TIP3   OH246120   2.793   5.966  16.439 -0.5108  0.5774  0.1595
 8210TIP3    H146121   2.866   5.923  16.395 -0.5140  1.1079 -0.3804
 8210TIP3    H246122   2.719   5.907  16.424 -1.5750  2.6190 -4.3214
 8211TIP3   OH246123   2.880   5.401  16.562  0.3014 -0.4854  0.0892
 8211TIP3    H146124   2.902   5.451  16.640  2.7911 -0.4452 -0.5508
 8211TIP3    H246125   2.823   5.331  16.593 -1.5080  1.4005  1.3413
 8212TIP3   OH246126   3.734   1.314  11.242 -0.5292  0.6458  0.1180
 8212TIP3    H146127   3.768   1.306  11.152  2.1027  0.5677  1.0408
 8212TIP3    H246128   3.795   1.373  11.285 -0.4854 -0.9677  2.4317
 8213TIP3   OH246129   1.348   0.711   5.136  0.5610 -0.2449  0.0775
 8213TIP3    H146130   1.296   0.775   5.088 -0.3839  0.3858  1.8552
 8213TIP3    H246131   1.430   0.757   5.156  0.5546 -0.1641 -0.0836
 8214TIP3   OH246132   5.906   0.526   1.420 -0.5454 -0.5058  0.4221
 8214TIP3    H146133   5.839   0.593   1.414 -0.8370 -0.8447 -0.3020
 8214TIP3    H246134   5.984   0.567   1.381 -0.9725 -0.8764 -0.8775
 8215TIP3   OH246135   5.074   3.053  15.667 -0.3192 -0.0426  0.6402
 8215TIP3    H146136   5.117   2.968  15.668 -0.0045  0.0977 -0.0192
 8215TIP3    H246137   5.133   3.111  15.715  0.8947  0.4370 -1.3140
 8216TIP3   OH246138   5.805   1.268  15.652  0.3894  0.1785 -0.1151
 8216TIP3    H146139   5.768   1.356  15.659  0.0174  0.0613 -0.5073
 8216TIP3    H246140   5.847   1.267  15.565  2.4990  0.7390  0.8343
 8217TIP3   OH246141   1.488   0.143   0.165  0.7661  0.1284  0.4389
 8217TIP3    H146142   1.514   0.215   0.108 -0.9347 -0.9302 -1.8568
 8217TIP3    H246143   1.540   0.069   0.135  1.1393 -0.0598  1.5148
 8218TIP3   OH246144   3.949   2.080   4.769 -0.2366  0.1316 -1.0459
 8218TIP3    H146145   3.962   2.153   4.829  0.3778 -1.8315  1.4058
 8218TIP3    H246146   3.996   2.106   4.689  1.5252  1.6845  0.3893
 8219TIP3   OH246147   0.433   6.785   0.099 -0.0742  0.1799  0.1076
 8219TIP3    H146148   0.436   6.706   0.153 -0.0653  0.2345  0.1869
 8219TIP3    H246149   0.497   6.768   0.029  1.0652  0.7310  0.9759
 8220TIP3   OH246150   1.951   3.640   3.696 -0.0373 -0.0058 -0.1044
 8220TIP3    H146151   2.033   3.653   3.649 -0.4706 -1.1422 -1.2490
 8220TIP3    H246152   1.940   3.719   3.749  0.0727  1.7496 -2.5391
 8221TIP3   OH246153   0.456   3.860   6.346 -0.2624 -0.1694  0.0268
 8221TIP3    H146154   0.441   3.786   6.406 -0.2105  1.0589  1.6219
 8221TIP3    H246155   0.550   3.878   6.353 -0.5557  1.1447  1.0504
 8222TIP3   OH246156   2.026   4.982  12.077  0.6954  0.3497 -0.2643
 8222TIP3    H146157   2.006   4.921  12.006  1.3808  0.2247 -0.3609
 8222TIP3    H246158   1.956   5.048  12.073 -0.0441 -0.4117 -0.1650
 8223TIP3   OH246159   0.935   5.652  11.834 -0.2012 -0.3432 -0.0458
 8223TIP3    H146160   0.992   5.707  11.887 -0.5715 -1.2605  1.3563
 8223TIP3    H246161   0.911   5.708  11.760  2.8561 -0.0743 -0.9853
 8224TIP3   OH246162   4.392   6.065  14.541  0.4846  0.0316 -0.2345
 8224TIP3    H146163   4.320   6.055  14.603 -2.9319  0.0902 -3.7600
 8224TIP3    H246164   4.412   6.158  14.542  0.4347  0.0405  0.6972
 8225TIP3   OH246165   3.840   3.757  11.696 -0.1209  0.8284  0.6803
 8225TIP3    H146166   3.872   3.831  11.644 -0.8277  0.9227  0.3654
 8225TIP3    H246167   3.835   3.685  11.633  2.0580  0.0495  1.3013
 8226TIP3   OH246168   0.572   3.422   4.790  0.0932 -0.0964  0.5421
 8226TIP3    H146169   0.480   3.448   4.787 -0.2177 -1.2369 -1.0452
 8226TIP3    H246170   0.605   3.440   4.702  0.9730 -1.0946  0.6483
 8227TIP3   OH246171   0.060   1.953  11.763 -0.0748  0.3492  0.4837
 8227TIP3    H146172   0.111   1.949  11.844 -0.2648 -0.5145  0.5736
 8227TIP3    H246173   0.045   2.047  11.749 -0.8839  0.4778  1.9917
 8228TIP3   OH246174   0.970   4.325  13.832  0.3665  0.3510 -0.2100
 8228TIP3    H146175   1.052   4.342  13.785  0.2457  2.2873  0.1894
 8228TIP3    H246176   0.907   4.385  13.793 -1.0578 -1.4936 -0.8724
 8229TIP3   OH246177   2.243   0.754  14.326  0.0046  0.6009 -0.5586
 8229TIP3    H146178   2.214   0.836  14.365 -2.8896 -0.2148 -0.7571
 8229TIP3    H246179   2.211   0.686  14.386  2.1371 -0.4328 -0.5156
 8230TIP3   OH246180   4.658   2.832  15.757  0.3838 -0.0288 -0.5834
 8230TIP3    H146181   4.732   2.890  15.739 -0.8882  0.7800 -3.6827
 8230TIP3    H246182   4.618   2.868  15.836  2.0120  0.7798 -0.0765
 8231TIP3   OH246183   1.641   2.578  14.515  0.2842  0.3249  0.4203
 8231TIP3    H146184   1.708   2.613  14.455 -0.5204  0.1807 -0.5947
 8231TIP3    H246185   1.558   2.613  14.482 -0.3464 -1.0504  0.4766
 8232TIP3   OH246186   5.271   3.804   4.641 -0.6656  0.2326 -0.3126
 8232TIP3    H146187   5.321   3.728   4.673  0.3233  0.4031 -1.3859
 8232TIP3    H246188   5.180   3.782   4.659 -0.2485 -0.2221  1.4302
 8233TIP3   OH246189   2.772   4.177  12.149  0.1171 -0.5531  0.1065
 8233TIP3    H146190   2.747   4.216  12.066 -0.9059  1.4122  1.2850
 8233TIP3    H246191   2.710   4.212  12.213  0.2124 -2.8057  1.5735
 8234TIP3   OH246192   0.725   0.525   3.951 -0.1294  0.4346 -0.5378
 8234TIP3    H146193   0.802   0.499   3.901 -0.4578  0.1963 -0.9196
 8234TIP3    H246194   0.741   0.490   4.039  0.1579  0.3136 -0.6379
 8235TIP3   OH246195   1.327   5.264   2.979  0.1753  0.4138 -0.2921
 8235TIP3    H146196   1.261   5.194   2.976 -0.3631  0.7561  1.8715
 8235TIP3    H246197   1.346   5.282   2.887 -2.2955 -0.1376 -1.0038
 8236TIP3   OH246198   4.515   6.024   5.746  0.4422 -0.2602 -0.4233
 8236TIP3    H146199   4.448   5.977   5.697  0.8766 -1.1078 -0.2163
 8236TIP3    H246200   4.557   5.957   5.801  1.2437  0.3078 -0.3214
 8237TIP3   OH246201   3.084   2.974  14.628 -0.0888 -0.8504  0.2122
 8237TIP3    H146202   3.033   3.010  14.555 -0.4179  0.0628  0.8747
 8237TIP3    H246203   3.019   2.937  14.687  0.0019  0.1620  0.9746
 8238TIP3   OH246204   4.151   1.858  15.694 -0.5659  0.1672 -0.0938
 8238TIP3    H146205   4.114   1.781  15.650 -0.7098 -0.4337  1.0506
 8238TIP3    H246206   4.075   1.903  15.730 -0.3551  0.0389  0.5097
 8239TIP3   OH246207   4.579   3.009  13.756  0.3474  0.5482 -0.0116
 8239TIP3    H146208   4.511   2.960  13.803 -0.0839  1.6353  0.5261
 8239TIP3    H246209   4.609   3.075  13.818  1.6110  0.3593 -0.3957
 8240TIP3   OH246210   5.599   2.353  15.081 -0.3332  0.5346  0.6098
 8240TIP3    H146211   5.607   2.437  15.125  0.4912  0.8774 -0.1716
 8240TIP3    H246212   5.557   2.373  14.997  0.1359  0.2123  0.2939
 8241TIP3   OH246213   5.102   1.982   5.454  0.6011 -0.5737  0.2394
 8241TIP3    H146214   5.135   2.006   5.368 -4.8652  0.8044 -1.9114
 8241TIP3    H246215   5.129   2.053   5.511  2.7783 -0.5575 -0.7262
 8242TIP3   OH246216   3.081   5.835   4.884 -0.1456 -0.0097 -0.1602
 8242TIP3    H146217   3.035   5.811   4.965 -2.0808  0.9063 -0.9208
 8242TIP3    H246218   3.073   5.930   4.880  1.0609  0.0789 -0.7997
 8243TIP3   OH246219   0.267   4.479   2.475 -0.0257 -0.6027  0.5854
 8243TIP3    H146220   0.263   4.539   2.550 -2.0631  1.4428 -1.0033
 8243TIP3    H246221   0.230   4.397   2.507 -1.2273  0.3436  1.7365
 8244TIP3   OH246222   2.051   6.002  15.683 -0.5663  0.3500  0.4449
 8244TIP3    H146223   2.120   6.025  15.621 -0.9090  0.5607  0.1395
 8244TIP3    H246224   1.998   6.081  15.691 -2.0361 -0.4273 -0.9840
 8245TIP3   OH246225   3.517   5.076   5.693  0.3184  0.4004  0.1922
 8245TIP3    H146226   3.453   5.143   5.668 -1.1396 -1.8649 -2.8548
 8245TIP3    H246227   3.475   5.029   5.765  0.3552  1.3520  0.8485
 8246TIP3   OH246228   0.071   5.962   4.439 -0.1793  0.4132  0.6251
 8246TIP3    H146229   0.055   6.033   4.501 -0.1311  0.1084  0.9884
 8246TIP3    H246230   0.061   5.882   4.490 -3.6876 -0.0452 -0.4553
 8247TIP3   OH246231   1.590   4.395   2.415 -0.1630 -0.4421  0.1206
 8247TIP3    H146232   1.664   4.345   2.381 -0.1453  0.3745 -1.1246
 8247TIP3    H246233   1.625   4.484   2.426 -0.5362 -0.4035  1.0300
 8248TIP3   OH246234   6.535   5.823   2.850 -0.3875  0.3955  0.0071
 8248TIP3    H146235   6.522   5.770   2.771  2.9893  0.7653 -0.9752
 8248TIP3    H246236   6.618   5.791   2.886 -1.0460  1.3383  2.5536
 8249TIP3   OH246237   6.610   1.786  13.690 -0.4048 -0.7662 -0.4829
 8249TIP3    H146238   6.658   1.841  13.752 -2.5409 -2.5867  3.0602
 8249TIP3    H246239   6.673   1.720  13.662  0.6377  0.1701 -0.4157
 8250TIP3   OH246240   5.815   3.704  14.994  0.1573 -0.6969 -0.1121
 8250TIP3    H146241   5.899   3.750  14.989  1.0483 -2.2255  0.2552
 8250TIP3    H246242   5.776   3.734  15.077  0.1601  0.2584 -0.4381
 8251TIP3   OH246243   0.805   3.613  17.057  0.3213  0.1113  0.2888
 8251TIP3    H146244   0.712   3.595  17.064 -0.0892  2.0593  0.4627
 8251TIP3    H246245   0.824   3.607  16.964 -0.2289  0.7462  0.1279
 8252TIP3   OH246246   3.889   3.849  16.546 -0.7612 -0.0655 -0.1804
 8252TIP3    H146247   3.850   3.767  16.575 -0.4129 -0.0304  0.4051
 8252TIP3    H246248   3.864   3.856  16.453 -2.0270 -0.0989  0.1407
 8253TIP3   OH246249   3.281   0.124   1.136  0.1943  0.0874 -0.2461
 8253TIP3    H146250   3.279   0.091   1.047  1.2747 -1.4831  0.2579
 8253TIP3    H246251   3.247   0.052   1.189  2.2768 -0.1854  0.8580
 8254TIP3   OH246252   4.807   0.112   1.626  0.2433 -0.3363 -0.5471
 8254TIP3    H146253   4.749   0.185   1.603 -0.7773 -1.3111 -1.1596
 8254TIP3    H246254   4.894   0.151   1.629 -0.4498  1.2459  0.7211
 8255TIP3   OH246255   1.365   1.913  16.312  0.4658 -0.0801 -0.1971
 8255TIP3    H146256   1.433   1.970  16.348  0.5046 -1.8176  2.7931
 8255TIP3    H246257   1.308   1.894  16.386 -1.1536 -1.6640 -1.7601
 8256TIP3   OH246258   2.331   3.895   5.041  0.3980  0.0541  0.9421
 8256TIP3    H146259   2.331   3.811   4.995 -3.2073  1.3433 -1.9789
 8256TIP3    H246260   2.292   3.875   5.127 -1.9224 -1.1495 -0.2917
 8257TIP3   OH246261   5.822   3.130  16.604 -0.1419 -0.4229 -0.3794
 8257TIP3    H146262   5.807   3.042  16.639 -0.9511 -0.4223 -0.7026
 8257TIP3    H246263   5.854   3.181  16.678 -1.3999 -0.5294  0.2678
 8258TIP3   OH246264   0.180   1.493   0.238  0.1225 -0.0975  0.0183
 8258TIP3    H146265   0.183   1.589   0.248  1.3848  0.2203 -2.5643
 8258TIP3    H246266   0.102   1.477   0.185  0.5855 -0.3558 -0.5962
 8259TIP3   OH246267   1.283   5.121   5.971  0.1711  0.4259  0.5091
 8259TIP3    H146268   1.310   5.114   5.879 -0.0103  1.5020  0.3618
 8259TIP3    H246269   1.306   5.036   6.009 -0.4772 -0.3333 -0.7134
 8260TIP3   OH246270   3.824   2.735  16.123  0.2952  0.0680 -0.8236
 8260TIP3    H146271   3.775   2.817  16.124 -0.5498 -0.3604  2.0777
 8260TIP3    H246272   3.762   2.671  16.089 -0.1050  0.1153 -0.2027
 8261TIP3   OH246273   5.017   3.420  12.556  0.0913  1.1892 -0.7634
 8261TIP3    H146274   4.957   3.480  12.512 -0.0397 -0.8927 -3.6936
 8261TIP3    H246275   4.969   3.337  12.561  0.4953  1.0126  2.5854
 8262TIP3   OH246276   2.208   2.263  12.341  0.1731  0.0139  0.0075
 8262TIP3    H146277   2.116   2.286  12.334  0.2929  0.5376  0.0626
 8262TIP3    H246278   2.254   2.348  12.341  0.5133 -0.1313  2.0433
 8263TIP3   OH246279   1.439   0.354  13.541 -0.6583  0.1027 -0.1070
 8263TIP3    H146280   1.457   0.313  13.625  0.7550 -1.4781 -1.1317
 8263TIP3    H246281   1.446   0.448  13.558 -1.5991 -0.1192  1.7634
 8264TIP3   OH246282   3.726   1.300   5.328  0.2795 -0.2377 -0.7112
 8264TIP3    H146283   3.791   1.336   5.269 -0.2793 -0.2365 -1.3450
 8264TIP3    H246284   3.659   1.263   5.270  0.6308 -1.9248 -0.0913
 8265TIP3   OH246285   1.770   3.468   0.728  0.1263  0.3818 -0.4107
 8265TIP3    H146286   1.700   3.441   0.786  1.8835 -0.9584  1.2044
 8265TIP3    H246287   1.821   3.388   0.712  1.9984  1.5247 -0.4902
 8266TIP3   OH246288   2.822   2.058   2.053  0.1634  0.2557 -0.5463
 8266TIP3    H146289   2.828   1.970   2.092 -0.5173  0.7284  0.6920
 8266TIP3    H246290   2.875   2.053   1.974  0.5594 -1.1281 -0.2197
 8267TIP3   OH246291   1.846   3.984   3.129 -0.3897  0.2515 -0.1398
 8267TIP3    H146292   1.785   3.984   3.056 -0.8050  1.1547  0.1885
 8267TIP3    H246293   1.909   4.053   3.108  0.0056 -0.0758 -0.0535
 8268TIP3   OH246294   5.015   5.251   1.508 -0.6406  0.1615  0.2655
 8268TIP3    H146295   5.014   5.159   1.481  2.1623  0.3868 -1.0834
 8268TIP3    H246296   4.944   5.291   1.459 -1.8155 -1.2231  0.7629
 8269TIP3   OH246297   6.441   3.433  16.679 -0.5273  0.1734 -0.6370
 8269TIP3    H146298   6.496   3.511  16.673  0.0634 -0.1765  0.0861
 8269TIP3    H246299   6.387   3.447  16.757 -0.1736 -0.2791 -0.3000
 8270TIP3   OH246300   0.713   1.302   4.262  0.0809 -0.0781  0.2186
 8270TIP3    H146301   0.656   1.327   4.334  2.1529  2.0694  1.2450
 8270TIP3    H246302   0.743   1.385   4.224  2.6906 -1.0330 -0.0792
 8271TIP3   OH246303   3.217   6.402   3.787  0.1317 -0.3006  0.1632
 8271TIP3    H146304   3.149   6.348   3.827 -0.6897  0.5105 -0.0888
 8271TIP3    H246305   3.243   6.463   3.857  1.0258 -0.9798  0.4359
 8272TIP3   OH246306   1.137   3.430  12.804 -0.3236 -0.4118 -0.6149
 8272TIP3    H146307   1.074   3.473  12.863 -0.8657 -1.8534 -0.0912
 8272TIP3    H246308   1.123   3.471  12.719 -1.9168 -0.6059 -0.4780
 8273TIP3   OH246309   4.232   5.030   4.781 -0.3835 -0.3622 -1.0847
 8273TIP3    H146310   4.170   5.053   4.712 -0.1884 -0.8562 -1.4335
 8273TIP3    H246311   4.276   4.951   4.749  1.3378  0.6788 -1.4472
 8274TIP3   OH246312   2.405   3.850  15.797  0.4333 -0.1024  0.3689
 8274TIP3    H146313   2.446   3.894  15.722  1.8984 -1.6938  0.1569
 8274TIP3    H246314   2.313   3.873  15.791  0.3302 -0.8802 -2.4800
 8275TIP3   OH246315   1.625   6.255   6.709  0.1634  0.1939  0.7169
 8275TIP3    H146316   1.554   6.191   6.714 -0.3706  0.8440  2.9062
 8275TIP3    H246317   1.705   6.203   6.712 -0.1998 -0.4988 -0.8330
 8276TIP3   OH246318   2.112   3.556  16.401 -0.2432 -0.5202  0.1492
 8276TIP3    H146319   2.066   3.472  16.414 -1.0491 -0.2373 -0.7359
 8276TIP3    H246320   2.141   3.581  16.489 -1.3750 -0.9560  0.6696
 8277TIP3   OH246321   0.577   3.815   3.937 -0.7516 -0.0703 -0.2260
 8277TIP3    H146322   0.528   3.734   3.922  0.1217 -0.3127 -2.0546
 8277TIP3    H246323   0.575   3.860   3.852  0.6996  0.7378  0.1365
 8278TIP3   OH246324   3.357   5.854   5.208  0.1423  0.5864 -0.3157
 8278TIP3    H146325   3.324   5.856   5.298 -0.0211  3.5935 -0.3236
 8278TIP3    H246326   3.339   5.765   5.178 -1.1028 -0.1013  2.1470
 8279TIP3   OH246327   3.205   3.996   4.762  0.1764 -0.1352  0.1844
 8279TIP3    H146328   3.131   4.018   4.706 -0.1875 -0.2737  0.6113
 8279TIP3    H246329   3.166   3.964   4.843  0.7038 -1.1555  0.0484
 8280TIP3   OH246330   0.074   5.365  13.493 -0.0275  0.0361  0.4072
 8280TIP3    H146331   0.152   5.355  13.548  0.3160  0.2693 -0.0223
 8280TIP3    H246332   0.060   5.459  13.489 -0.2399  0.0010  0.3597
 8281TIP3   OH246333   2.285   1.382  14.145 -0.0689 -0.2964 -0.3244
 8281TIP3    H146334   2.243   1.376  14.059  0.3378 -0.4152 -0.5197
 8281TIP3    H246335   2.290   1.291  14.175 -0.0642 -0.2706 -0.2471
 8282TIP3   OH246336   4.885   1.794  11.690  0.0127  0.0052  0.4376
 8282TIP3    H146337   4.865   1.887  11.698  1.7706  0.4243  0.3739
 8282TIP3    H246338   4.906   1.781  11.598  0.2337 -0.3462  0.5329
 8283TIP3   OH246339   1.627   1.291   3.052 -0.5677  0.0244  0.1705
 8283TIP3    H146340   1.664   1.294   2.964 -0.5542 -0.0705  0.1729
 8283TIP3    H246341   1.642   1.201   3.082  0.1230  0.2676  0.5762
 8284TIP3   OH246342   4.761   3.022   0.283 -0.5369 -0.5754 -0.6432
 8284TIP3    H146343   4.724   3.078   0.351  0.6315 -0.5963  0.0224
 8284TIP3    H246344   4.688   3.008   0.222 -0.6744  2.3394 -1.2961
 8285TIP3   OH246345   0.896   1.826   4.000  0.0705 -0.5761  0.4191
 8285TIP3    H146346   0.809   1.788   3.985  0.3005 -1.2256  0.7058
 8285TIP3    H246347   0.947   1.755   4.038  0.6407 -0.1039  0.5473
 8286TIP3   OH246348   2.863   2.480   0.236 -0.3603  0.3398  0.3242
 8286TIP3    H146349   2.863   2.468   0.141  2.1215 -0.2559  0.3504
 8286TIP3    H246350   2.796   2.548   0.251 -2.1480 -0.8664 -1.6016
 8287TIP3   OH246351   3.443   1.115  13.045 -0.1811 -0.5042  0.0320
 8287TIP3    H146352   3.536   1.138  13.050 -0.1714 -0.6397  0.4705
 8287TIP3    H246353   3.438   1.025  13.077 -0.6999  0.1137  1.7936
 8288TIP3   OH246354   5.246   5.392   0.974 -0.0774 -0.1782  0.0252
 8288TIP3    H146355   5.219   5.323   0.914  0.3897  0.2069 -0.6439
 8288TIP3    H246356   5.335   5.369   0.999  0.2970  0.4752 -0.6597
 8289TIP3   OH246357   0.492   5.687  13.445 -0.6134 -0.3379 -0.7466
 8289TIP3    H146358   0.564   5.646  13.494 -0.8297 -0.3576 -0.4456
 8289TIP3    H246359   0.461   5.758  13.501 -1.1193 -0.6079 -0.6770
 8290TIP3   OH246360   3.254   4.716   5.786  0.5626 -0.0468  0.2510
 8290TIP3    H146361   3.164   4.683   5.785  1.1826 -1.7847 -0.3765
 8290TIP3    H246362   3.264   4.752   5.874 -0.7169  0.1270  0.3544
 8291TIP3   OH246363   3.905   6.536  13.310  0.1390  0.6732  0.0581
 8291TIP3    H146364   3.826   6.555  13.360 -0.3081 -0.4324 -0.2104
 8291TIP3    H246365   3.879   6.546  13.218 -0.1510 -1.2330 -0.1086
 8292TIP3   OH246366   1.547   3.799  16.192  0.4240 -0.3364 -0.2693
 8292TIP3    H146367   1.593   3.813  16.109 -2.0287  1.0664 -1.4954
 8292TIP3    H246368   1.558   3.881  16.239 -2.8290  1.1281 -1.7319
 8293TIP3   OH246369   1.842   4.178  13.370 -0.3174  0.2682 -0.4659
 8293TIP3    H146370   1.821   4.272  13.372 -2.4406 -0.1606  0.8346
 8293TIP3    H246371   1.815   4.150  13.282  0.4885  0.8745 -0.9230
 8294TIP3   OH246372   3.245   4.384  12.698 -1.0664  0.2765  0.0743
 8294TIP3    H146373   3.177   4.450  12.707 -0.9728  0.6179 -1.3889
 8294TIP3    H246374   3.261   4.379  12.604  0.3567 -0.3865  0.3217
 8295TIP3   OH246375   1.535   1.228   1.549 -0.5595 -0.4415 -0.3327
 8295TIP3    H146376   1.539   1.249   1.456 -0.2127  0.8641 -0.0334
 8295TIP3    H246377   1.617   1.182   1.567  0.6481  1.6685 -0.1375
 8296TIP3   OH246378   2.391   3.566  11.534  0.5430  0.1099  0.5841
 8296TIP3    H146379   2.436   3.568  11.450 -0.8447 -0.3933 -0.1936
 8296TIP3    H246380   2.424   3.643  11.580  2.2553 -0.2889  0.1034
 8297TIP3   OH246381   6.783   6.702  17.086  0.1713 -0.0473 -0.1562
 8297TIP3    H146382   6.770   6.665  17.173 -0.3815  0.3414 -0.0684
 8297TIP3    H246383   6.867   6.749  17.092  1.0477 -1.5229 -0.3598
 8298TIP3   OH246384   4.085   0.324   4.586  0.0409 -0.3739 -0.2401
 8298TIP3    H146385   4.072   0.379   4.664 -0.6620  0.1698 -0.7241
 8298TIP3    H246386   4.179   0.306   4.585  0.2525  0.6179  0.0671
 8299TIP3   OH246387   1.671   0.629  12.252 -0.5997  0.1220 -0.4074
 8299TIP3    H146388   1.615   0.578  12.311 -0.5358  2.0118  1.4124
 8299TIP3    H246389   1.634   0.614  12.165 -1.8837 -1.2816  0.3260
 8300TIP3   OH246390   0.169   2.998   2.624  0.0255 -0.3037  0.0622
 8300TIP3    H146391   0.167   2.921   2.567 -0.1162 -1.8315  2.0441
 8300TIP3    H246392   0.240   3.052   2.588 -0.7033 -0.6750 -2.1325
 8301TIP3   OH246393   2.724   3.480   4.788  0.5867 -0.1039 -0.2727
 8301TIP3    H146394   2.790   3.446   4.848 -0.2082 -0.6528  0.3105
 8301TIP3    H246395   2.671   3.540   4.842 -1.1588 -1.8386  0.0593
 8302TIP3   OH246396   5.227   3.485   4.743 -0.1832  0.4334 -0.5535
 8302TIP3    H146397   5.275   3.524   4.670 -1.8356  2.9903 -0.3837
 8302TIP3    H246398   5.171   3.419   4.703 -0.6530  1.4165 -1.5529
 8303TIP3   OH246399   6.080   0.311  15.813  0.1014  0.1588  0.2457
 8303TIP3    H146400   6.147   0.338  15.876 -0.6072  0.5607  0.8430
 8303TIP3    H246401   6.000   0.353  15.844 -0.7718 -1.5837  0.4531
 8304TIP3   OH246402   4.885   6.760   2.884 -0.5846  0.7381 -0.2645
 8304TIP3    H146403   4.822   6.832   2.885 -0.6642  0.7225 -1.6291
 8304TIP3    H246404   4.917   6.758   2.793  0.4267 -0.0759  0.0873
 8305TIP3   OH246405   0.144   4.965  17.289  0.2163 -0.6678 -0.4215
 8305TIP3    H146406   0.051   4.955  17.310  0.6663 -1.3774  1.4191
 8305TIP3    H246407   0.155   5.059  17.273 -0.4755 -0.2701  1.2616
 8306TIP3   OH246408   6.703   3.260   3.947 -0.2102  0.1485  0.4494
 8306TIP3    H146409   6.641   3.312   3.896 -0.9028  0.8568  1.9332
 8306TIP3    H246410   6.677   3.169   3.932  0.1453  0.2695 -1.0865
 8307TIP3   OH246411   4.225   1.737   1.575  0.5770  0.1805 -0.0832
 8307TIP3    H146412   4.192   1.708   1.491  1.1036  0.2205 -0.3079
 8307TIP3    H246413   4.320   1.721   1.571  0.5598 -0.1414  0.6287
 8308TIP3   OH246414   6.790   0.609  13.028  0.4577 -1.0040 -0.6018
 8308TIP3    H146415   6.704   0.624  12.989  0.1683 -2.2800 -0.4997
 8308TIP3    H246416   6.851   0.650  12.967 -0.2421  0.5900 -0.2923
 8309TIP3   OH246417   3.634   0.567  14.364 -0.5461  0.0642 -0.1954
 8309TIP3    H146418   3.658   0.573  14.456  0.0020  1.5636 -0.3906
 8309TIP3    H246419   3.618   0.658  14.338  1.0942 -0.0865 -2.0100
 8310TIP3   OH246420   3.541   1.587  15.312  0.3909  0.4111 -0.1248
 8310TIP3    H146421   3.449   1.579  15.286  0.6459  1.5383 -1.5259
 8310TIP3    H246422   3.574   1.660  15.259  1.7753  0.8414  1.2554
 8311TIP3   OH246423   0.870   6.369   2.347  0.7159  0.1049 -0.0450
 8311TIP3    H146424   0.930   6.387   2.419 -0.5566  1.1148  0.8134
 8311TIP3    H246425   0.819   6.450   2.338 -1.1837 -1.0449 -0.0823
 8312TIP3   OH246426   5.279   6.463  17.111  0.2279 -0.5476 -0.1075
 8312TIP3    H146427   5.371   6.438  17.112  0.5331  0.4994  1.2746
 8312TIP3    H246428   5.242   6.418  17.035  1.7846 -1.2927 -0.4519
 8313TIP3   OH246429   6.659   2.623  11.504 -0.6711 -0.1830  0.3606
 8313TIP3    H146430   6.615   2.694  11.457  0.2410 -0.4446 -0.9332
 8313TIP3    H246431   6.633   2.544  11.457  0.3431 -0.4481  0.2283
 8314TIP3   OH246432   5.361   6.524  11.030  0.1498  0.1165 -0.3259
 8314TIP3    H146433   5.387   6.574  11.107  2.1149  1.3625 -1.7073
 8314TIP3    H246434   5.396   6.436  11.045 -1.3259 -0.2752  1.0867
 8315TIP3   OH246435   1.468   5.556   1.793 -0.8518  0.1402  0.2441
 8315TIP3    H146436   1.529   5.531   1.863 -0.5864  0.6220  0.1984
 8315TIP3    H246437   1.391   5.589   1.839 -0.9560 -0.1950  0.3064
 8316TIP3   OH246438   2.901   5.316  12.016 -0.2255 -0.0800 -0.5974
 8316TIP3    H146439   2.936   5.331  12.104 -0.1134 -0.3442 -0.5940
 8316TIP3    H246440   2.969   5.350  11.957  0.0278 -0.5520 -0.5903
 8317TIP3   OH246441   2.676   4.097   4.306 -0.1020  0.7306 -0.3633
 8317TIP3    H146442   2.661   4.060   4.393  0.5317 -1.3651 -1.0857
 8317TIP3    H246443   2.770   4.088   4.291 -0.3711 -0.2337 -1.7673
 8318TIP3   OH246444   2.664   5.631  17.072 -0.1022 -0.1823  0.2110
 8318TIP3    H146445   2.740   5.574  17.065 -0.8310 -1.2673  0.8782
 8318TIP3    H246446   2.591   5.572  17.090 -1.0250  0.8826  0.0654
 8319TIP3   OH246447   2.983   0.674   5.799 -0.2178  0.1436 -0.3577
 8319TIP3    H146448   3.067   0.700   5.760 -1.1295  1.2746 -1.6584
 8319TIP3    H246449   2.917   0.718   5.745 -1.6107  0.8088  1.7798
 8320TIP3   OH246450   5.707   0.141  14.917 -1.0853 -0.4667 -0.6989
 8320TIP3    H146451   5.690   0.228  14.952  0.6217 -0.2470 -0.3258
 8320TIP3    H246452   5.634   0.088  14.948 -1.1478  0.4071  0.7344
 8321TIP3   OH246453   5.327   2.794  16.853 -0.5739 -0.1769 -0.0424
 8321TIP3    H146454   5.247   2.846  16.860 -0.1828  0.4368 -0.0719
 8321TIP3    H246455   5.346   2.767  16.943 -1.0045 -0.6172 -0.0822
 8322TIP3   OH246456   2.574   1.564   0.102 -0.2184  0.0424 -0.1719
 8322TIP3    H146457   2.531   1.546   0.019  0.3198 -2.4109  0.0092
 8322TIP3    H246458   2.553   1.489   0.157  3.1535 -0.6587  0.3589
 8323TIP3   OH246459   0.099   6.026   3.357 -0.4949  0.1098 -0.3539
 8323TIP3    H146460   0.138   6.106   3.392 -0.1082 -0.1590 -0.1595
 8323TIP3    H246461   0.174   5.969   3.339 -0.8480 -0.8669  1.1356
 8324TIP3   OH246462   4.216   5.413  14.884 -0.1964 -0.2506 -0.7070
 8324TIP3    H146463   4.295   5.377  14.844  0.4273  1.6785 -1.3139
 8324TIP3    H246464   4.146   5.391  14.822 -0.3297 -2.5642  0.1572
 8325TIP3   OH246465   5.548   2.361   1.252 -0.4752 -0.1032 -0.1798
 8325TIP3    H146466   5.465   2.333   1.289  0.1492 -2.3921 -0.3517
 8325TIP3    H246467   5.525   2.399   1.167 -1.6846  3.2555  1.4550
 8326TIP3   OH246468   3.748   3.570   6.035 -0.7274  0.4735  0.4833
 8326TIP3    H146469   3.676   3.510   6.052  0.1082 -1.0946 -1.1338
 8326TIP3    H246470   3.750   3.579   5.939 -0.9226  3.2938  0.6445
 8327TIP3   OH246471   0.056   2.103  16.329 -0.3263  0.4301  0.6698
 8327TIP3    H146472   0.091   2.035  16.270 -1.6681  0.6342 -0.4145
 8327TIP3    H246473  -0.013   2.059  16.378  0.7688  0.2686  2.1459
 8328TIP3   OH246474   5.665   5.169   1.983  0.2350  0.4622  0.1655
 8328TIP3    H146475   5.752   5.146   2.016 -0.2167 -0.3460  0.8358
 8328TIP3    H246476   5.638   5.243   2.038 -0.4899 -0.8438  1.6450
 8329TIP3   OH246477   0.651   0.431   3.094 -0.1940 -0.0380 -0.3045
 8329TIP3    H146478   0.639   0.398   3.183  1.1683 -0.3125 -0.2110
 8329TIP3    H246479   0.646   0.526   3.103 -1.4103 -0.1047 -0.1567
 8330TIP3   OH246480   5.332   4.244   5.099  0.7782  0.0986  0.3455
 8330TIP3    H146481   5.300   4.258   5.188 -0.5395 -1.9625  0.2711
 8330TIP3    H246482   5.295   4.316   5.048  1.0414  0.9542  1.3437
 8331TIP3   OH246483   5.047   3.082   1.558  0.0172 -0.3474  0.5189
 8331TIP3    H146484   5.010   3.156   1.510 -0.3996 -0.4909  0.6159
 8331TIP3    H246485   4.997   3.007   1.527  0.2167 -0.5409  0.6667
 8332TIP3   OH246486   0.956   1.039   4.319  0.0143 -0.0871  0.0355
 8332TIP3    H146487   0.966   1.100   4.392 -1.3332  0.2230 -0.0248
 8332TIP3    H246488   1.043   0.999   4.310  0.6361  1.0258  0.7692
 8333TIP3   OH246489   4.311   6.245  10.244 -0.1012 -0.2620 -0.1244
 8333TIP3    H146490   4.403   6.266  10.259 -0.1357  0.2592 -0.6379
 8333TIP3    H246491   4.307   6.149  10.248  0.2663 -0.2409  0.9942
 8334TIP3   OH246492   2.599   3.504   2.400  0.5973  0.2360 -0.2770
 8334TIP3    H146493   2.661   3.501   2.472 -0.2680  0.9504  0.5233
 8334TIP3    H246494   2.630   3.575   2.344 -0.2237  1.5576  0.8572
 8335TIP3   OH246495   4.566   6.066  13.037  0.7529 -0.1764 -0.0232
 8335TIP3    H146496   4.621   5.989  13.054 -1.2845 -1.7022  0.0403
 8335TIP3    H246497   4.584   6.089  12.946  0.8490 -1.1944 -0.2731
 8336TIP3   OH246498   2.005   3.513  15.934 -0.2602  0.1063 -0.3437
 8336TIP3    H146499   2.069   3.549  15.996 -0.5904 -0.6231  0.4467
 8336TIP3    H246500   1.953   3.589  15.907 -1.1528  0.2475  1.5374
 8337TIP3   OH246501   6.053   3.604  14.617 -0.3252  0.2040  0.1580
 8337TIP3    H146502   6.039   3.516  14.650 -0.0245 -0.0612 -0.3909
 8337TIP3    H246503   6.131   3.596  14.561  0.4439  1.0697  1.0762
 8338TIP3   OH246504   1.649   6.521   0.879 -0.5864  0.0269 -0.1181
 8338TIP3    H146505   1.648   6.434   0.919  0.0236  0.3329  0.5868
 8338TIP3    H246506   1.637   6.504   0.785  0.3693 -0.8783 -0.0983
 8339TIP3   OH246507   0.790   4.758  15.824  1.2196  0.3862  0.4159
 8339TIP3    H146508   0.770   4.686  15.883  3.0146 -0.4981 -0.0033
 8339TIP3    H246509   0.708   4.808  15.819  0.2456 -1.0233  1.5108
 8340TIP3   OH246510   5.438   0.816   1.812  0.4707 -0.3551 -0.7282
 8340TIP3    H146511   5.493   0.753   1.859  0.8366 -0.0457 -0.7377
 8340TIP3    H246512   5.388   0.860   1.880 -0.7819 -1.5683 -0.8086
 8341TIP3   OH246513   3.145   0.546  13.996  0.1168  0.7644  0.4655
 8341TIP3    H146514   3.205   0.612  14.031 -1.9658  3.1383 -0.1570
 8341TIP3    H246515   3.083   0.596  13.943 -1.6718 -1.7110  0.0654
 8342TIP3   OH246516   4.624   3.433  16.815 -0.1339  0.6035 -0.5090
 8342TIP3    H146517   4.538   3.392  16.808  0.4147 -0.9924  1.1655
 8342TIP3    H246518   4.623   3.476  16.900  1.4995 -1.5584  0.6974
 8343TIP3   OH246519   4.841   3.883  10.834  0.1215 -0.0821 -0.0438
 8343TIP3    H146520   4.875   3.966  10.869  1.6553 -0.8378  0.3181
 8343TIP3    H246521   4.857   3.890  10.739  0.7368 -0.1665  0.0475
 8344TIP3   OH246522   1.389   2.387   0.276  0.2203  0.3992 -0.7045
 8344TIP3    H146523   1.314   2.400   0.218  0.0821  0.7159 -0.4616
 8344TIP3    H246524   1.378   2.299   0.311  0.1950  0.2840 -1.0034
 8345TIP3   OH246525   0.519   1.327   3.994  0.1403 -0.5232  0.3311
 8345TIP3    H146526   0.538   1.245   4.039 -1.4507 -0.7194  0.6821
 8345TIP3    H246527   0.537   1.395   4.058 -1.0777 -0.7516  0.9454
 8346TIP3   OH246528   6.601   1.998  13.122 -0.0951  0.1260 -0.3795
 8346TIP3    H146529   6.624   1.993  13.214  1.4186  0.0449 -0.7369
 8346TIP3    H246530   6.563   2.085  13.111 -1.1997 -0.2233  0.4931
 8347TIP3   OH246531   0.909   4.006   3.694  0.1127  0.0694 -0.0246
 8347TIP3    H146532   0.829   3.981   3.646  0.3823  0.5144 -0.7266
 8347TIP3    H246533   0.977   4.010   3.627  0.0601  2.8236 -0.0343
 8348TIP3   OH246534   2.802   2.115  13.571  0.0704 -0.4916 -0.0242
 8348TIP3    H146535   2.764   2.035  13.607 -0.3537  0.1653  1.0153
 8348TIP3    H246536   2.895   2.107  13.588 -0.0919 -0.3066  1.0066
 8349TIP3   OH246537   3.480   2.952  16.556  0.3276 -0.7200  0.2330
 8349TIP3    H146538   3.457   2.963  16.648  0.1985  0.7454  0.0486
 8349TIP3    H246539   3.395   2.942  16.512  0.3284 -0.4658  0.1690
 8350TIP3   OH246540   4.589   0.571   3.639  0.1699 -0.3450 -0.3218
 8350TIP3    H146541   4.547   0.645   3.682 -1.7082 -0.5099 -1.7333
 8350TIP3    H246542   4.582   0.499   3.702  1.2794  0.4158  0.7257
 8351TIP3   OH246543   6.574   0.298  17.207  0.2979  0.6072  0.7217
 8351TIP3    H146544   6.520   0.275  17.284 -0.3106  1.9937  0.7354
 8351TIP3    H246545   6.664   0.289  17.238  0.0952 -0.5584  1.0623
 8352TIP3   OH246546   1.757   1.549   5.159  0.0937  0.2302  0.0043
 8352TIP3    H146547   1.781   1.640   5.138  0.3238  0.0305 -0.6250
 8352TIP3    H246548   1.669   1.555   5.194 -0.0111  0.6695 -0.3242
 8353TIP3   OH246549   0.116   4.155  16.371  0.1774  1.2554  0.5047
 8353TIP3    H146550   0.051   4.160  16.441 -0.4197  0.1959  0.0487
 8353TIP3    H246551   0.187   4.103  16.408 -0.8060 -0.6318 -0.1375
 8354TIP3   OH246552   0.019   3.550  13.773 -1.0075  0.2275 -0.4106
 8354TIP3    H146553   0.063   3.617  13.826 -1.2919  0.9476 -1.0661
 8354TIP3    H246554   0.025   3.470  13.825 -1.5549  0.9786  0.8420
 8355TIP3   OH246555   2.492   2.089  16.202  0.3150 -0.8735 -0.3935
 8355TIP3    H146556   2.533   2.008  16.232  1.3023 -0.6165 -1.0007
 8355TIP3    H246557   2.555   2.127  16.141 -0.2934  0.1688 -0.4050
 8356TIP3   OH246558   4.690   5.420   5.048 -0.3383 -0.4186 -0.0916
 8356TIP3    H146559   4.766   5.475   5.028 -0.3922 -1.0049 -2.1501
 8356TIP3    H246560   4.717   5.331   5.025 -1.2418 -0.8138  0.3047
 8357TIP3   OH246561   5.224   0.264  16.408  0.2357  0.4012  0.5340
 8357TIP3    H146562   5.257   0.339  16.358 -1.6015  0.1777 -1.1079
 8357TIP3    H246563   5.301   0.233  16.457  0.9709  3.6067  1.7146
 8358TIP3   OH246564   3.794   1.273  10.967  0.8986  0.2267  0.7945
 8358TIP3    H146565   3.805   1.223  10.886  0.0875 -0.4959  1.1233
 8358TIP3    H246566   3.801   1.365  10.939 -0.4569  0.0295 -0.2761
 8359TIP3   OH246567   6.268   2.026   2.257 -0.3849 -0.0368  0.1253
 8359TIP3    H146568   6.315   2.058   2.180  0.4901 -0.9574  0.2509
 8359TIP3    H246569   6.336   2.017   2.324 -0.3390 -3.0011 -0.1867
 8360TIP3   OH246570   2.407   0.019  13.330 -0.0935 -0.4984 -0.6507
 8360TIP3    H146571   2.474   0.064  13.382  0.1581 -1.7145  0.1109
 8360TIP3    H246572   2.350  -0.022  13.395 -1.5055  0.3719 -1.2923
 8361TIP3   OH246573   5.103   3.359  13.814 -0.2587  0.2451  0.2561
 8361TIP3    H146574   5.103   3.301  13.738 -0.8838 -0.0777  0.4913
 8361TIP3    H246575   5.098   3.447  13.777 -1.3173  0.0614 -0.0724
 8362TIP3   OH246576   6.419   3.514   4.103  0.5422 -0.1499 -0.2802
 8362TIP3    H146577   6.454   3.601   4.121 -0.5404  0.7167 -2.1102
 8362TIP3    H246578   6.348   3.503   4.165  0.4500  0.4339 -0.2765
 8363TIP3   OH246579   2.431   3.944   1.457  0.6098 -0.6662  0.4789
 8363TIP3    H146580   2.488   3.961   1.381 -1.4018  1.5477 -0.6617
 8363TIP3    H246581   2.456   4.011   1.521 -0.1684 -0.1526  0.2607
 8364TIP3   OH246582   0.355   6.060   4.950  0.5875 -0.0711 -0.1526
 8364TIP3    H146583   0.328   6.148   4.922  1.9957  0.9135  1.3570
 8364TIP3    H246584   0.344   6.006   4.872 -0.1113  1.4766 -1.1985
 8365TIP3   OH246585   1.314   0.026   5.393 -0.0881 -0.0471 -0.5444
 8365TIP3    H146586   1.284  -0.000   5.306 -1.0199 -0.6470 -0.0552
 8365TIP3    H246587   1.300  -0.051   5.448 -0.1106  0.5296  0.2778
 8366TIP3   OH246588   2.756   6.304   6.532 -0.2976  0.0321 -0.0120
 8366TIP3    H146589   2.842   6.301   6.574  0.3899  1.4309 -1.2521
 8366TIP3    H246590   2.695   6.325   6.603  0.5900  0.6176  0.5923
 8367TIP3   OH246591   0.184   2.149  15.609 -0.0211  0.4434 -0.3833
 8367TIP3    H146592   0.180   2.131  15.515 -1.0101 -0.2162 -0.2293
 8367TIP3    H246593   0.098   2.184  15.631 -1.0012 -2.3678  0.8147
 8368TIP3   OH246594   2.157   6.406  15.794  0.1802 -0.1439  0.1647
 8368TIP3    H146595   2.206   6.407  15.712 -1.0568  0.3691 -0.6028
 8368TIP3    H246596   2.207   6.462  15.853  1.7964 -1.5878  0.2275
 8369TIP3   OH246597   5.119   2.834   1.658 -0.1672  0.2474 -0.0885
 8369TIP3    H146598   5.123   2.920   1.616  0.1551 -0.6240 -1.9767
 8369TIP3    H246599   5.159   2.847   1.744 -0.3537  2.0217 -0.2391
 8370TIP3   OH246600   5.378   1.650  16.156 -0.2832  0.8945 -0.3100
 8370TIP3    H146601   5.336   1.728  16.121  0.3877  1.1913 -0.4677
 8370TIP3    H246602   5.309   1.584  16.156 -1.2164  1.8269  1.0581
 8371TIP3   OH246603   3.362   0.194   5.651  0.2656  0.2993  0.0370
 8371TIP3    H146604   3.386   0.278   5.612  1.2842  0.1499  0.3181
 8371TIP3    H246605   3.434   0.174   5.711 -0.2850 -0.4627  0.4577
 8372TIP3   OH246606   3.773   4.072   0.870 -0.2729  0.0391  0.2760
 8372TIP3    H146607   3.752   4.025   0.951 -2.1158  1.3583  0.6294
 8372TIP3    H246608   3.833   4.014   0.823 -0.1440 -1.3090  2.0086
 8373TIP3   OH246609   2.604   3.630  15.735  0.4509 -0.2428 -0.8557
 8373TIP3    H146610   2.659   3.591  15.667 -0.8802 -0.6845 -1.7217
 8373TIP3    H246611   2.652   3.707  15.764  2.1798 -1.3776 -0.5627
 8374TIP3   OH246612   1.885   2.122  14.881 -0.3544  0.3952  0.1796
 8374TIP3    H146613   1.805   2.174  14.887 -0.1790  0.6411  0.3824
 8374TIP3    H246614   1.855   2.031  14.882 -0.6114  0.4824  0.5720
 8375TIP3   OH246615   6.203   2.507  11.214  0.3785 -0.1150  0.8674
 8375TIP3    H146616   6.115   2.543  11.227 -0.1593 -1.1558  0.2331
 8375TIP3    H246617   6.262   2.577  11.242 -0.6549  0.3490  1.9413
 8376TIP3   OH246618   0.392   2.732  11.667  0.9522  0.4733 -0.4831
 8376TIP3    H146619   0.359   2.806  11.615 -1.8946  0.4847  1.1637
 8376TIP3    H246620   0.377   2.655  11.612 -0.1431  0.6851 -0.4917
 8377TIP3   OH246621   4.269   1.207  15.940 -0.0149  0.0160 -0.4893
 8377TIP3    H146622   4.188   1.165  15.970 -0.2322  0.2979 -0.6742
 8377TIP3    H246623   4.242   1.295  15.915  0.4042  0.2042 -0.2891
 8378TIP3   OH246624   5.199   3.589  12.385  0.2658 -0.5677 -0.3607
 8378TIP3    H146625   5.259   3.644  12.335 -0.3872 -0.0061 -0.5351
 8378TIP3    H246626   5.214   3.500  12.351  1.1335 -0.4750 -0.2585
 8379TIP3   OH246627   1.954   0.607  15.773 -0.3123  0.2867  0.2960
 8379TIP3    H146628   1.880   0.664  15.751 -0.5584  1.4878  3.5903
 8379TIP3    H246629   1.990   0.646  15.853  2.8569 -1.2437 -0.2495
 8380TIP3   OH246630   1.709   0.061   2.085  0.0777 -0.1175  0.0341
 8380TIP3    H146631   1.704   0.157   2.086 -0.0690 -0.1246  0.8970
 8380TIP3    H246632   1.704   0.036   2.177  1.1463 -0.9122 -0.1083
 8381TIP3   OH246633   5.287   1.600  13.797  0.1027  0.0864 -0.3197
 8381TIP3    H146634   5.268   1.514  13.760  0.9973 -0.6402  0.8158
 8381TIP3    H246635   5.382   1.604  13.802  0.0466  0.3044  1.4484
 8382TIP3   OH246636   1.610   0.016  12.575 -0.1916 -0.0646 -0.0028
 8382TIP3    H146637   1.549  -0.037  12.627 -0.6483 -1.4585 -1.8285
 8382TIP3    H246638   1.554   0.072  12.522  0.1394 -0.5162 -0.8450
 8383TIP3   OH246639   2.419   3.864   3.517  0.7672  0.2647  0.3166
 8383TIP3    H146640   2.510   3.839   3.501  1.2293  1.5002  0.9117
 8383TIP3    H246641   2.422   3.958   3.532 -0.5943  0.2935  0.5334
 8384TIP3   OH246642   0.348   3.924   4.722  0.4072  0.1164  0.0523
 8384TIP3    H146643   0.377   4.015   4.720  0.9475 -0.0481  0.2575
 8384TIP3    H246644   0.316   3.907   4.633  0.5706  0.4192 -0.0656
 8385TIP3   OH246645   6.756   0.144   1.669 -0.1768 -0.1360 -0.0256
 8385TIP3    H146646   6.758   0.053   1.699 -0.5456 -0.5674 -1.2258
 8385TIP3    H246647   6.845   0.176   1.683 -0.3284 -0.3066  1.4653
 8386TIP3   OH246648   6.478   4.254  11.273 -0.0603  0.2630  0.5144
 8386TIP3    H146649   6.429   4.243  11.191 -0.1252  0.5832  0.5081
 8386TIP3    H246650   6.549   4.314  11.250  0.2469 -0.0820  0.5613
 8387TIP3   OH246651   3.799   5.239  14.583  0.1691  0.1902  0.0628
 8387TIP3    H146652   3.730   5.173  14.575  0.7190 -0.2269 -1.7510
 8387TIP3    H246653   3.794   5.268  14.674 -1.0019 -1.3472  0.5404
 8388TIP3   OH246654   1.708   0.039  13.523 -0.5070  0.0036 -0.2668
 8388TIP3    H146655   1.683  -0.053  13.530 -0.2380 -0.0303  0.2412
 8388TIP3    H246656   1.804   0.037  13.519 -0.5241  0.2237 -0.8660
 8389TIP3   OH246657   4.246   6.293  12.154  0.0348 -0.1268  0.6245
 8389TIP3    H146658   4.156   6.264  12.139 -0.4670  1.4873  0.3548
 8389TIP3    H246659   4.241   6.347  12.233  0.9994 -0.9559  1.2826
 8390TIP3   OH246660   4.731   2.215  10.565  0.1793  0.0775 -0.1464
 8390TIP3    H146661   4.691   2.295  10.532  0.1072  0.1478  0.1175
 8390TIP3    H246662   4.824   2.224  10.542  0.3219  0.6087  0.6122
 8391TIP3   OH246663   5.882   1.029   4.692  0.4049  0.1358  0.7151
 8391TIP3    H146664   5.814   0.995   4.633  0.7422 -1.5242  1.2412
 8391TIP3    H246665   5.836   1.043   4.775  0.2886  0.9032  0.5267
 8392TIP3   OH246666   0.506   0.179   4.740  0.2474 -0.4425  0.0085
 8392TIP3    H146667   0.545   0.098   4.707 -0.0054 -0.3748 -0.4648
 8392TIP3    H246668   0.581   0.232   4.768  0.3699 -1.2177  1.2394
 8393TIP3   OH246669   0.388   5.421  13.163 -0.3177  0.1084  0.6232
 8393TIP3    H146670   0.454   5.410  13.232  0.8325  1.1729 -0.2648
 8393TIP3    H246671   0.409   5.353  13.098  0.6491  1.1771 -0.2057
 8394TIP3   OH246672   2.272   1.144   4.702  0.1985 -0.0034 -0.0021
 8394TIP3    H146673   2.312   1.170   4.619  3.1466 -0.2550  1.2117
 8394TIP3    H246674   2.303   1.055   4.717  0.1263  0.2036  1.5706
 8395TIP3   OH246675   5.774   0.331  12.381 -0.4122  0.0839  0.0474
 8395TIP3    H146676   5.775   0.390  12.305  0.2388  0.0919  0.0503
 8395TIP3    H246677   5.747   0.247  12.345  1.2165 -0.2514 -0.4799
 8396TIP3   OH246678   1.302   5.494  12.998  0.4514  1.2296 -0.7766
 8396TIP3    H146679   1.225   5.537  12.961 -0.1216  0.0757 -0.9724
 8396TIP3    H246680   1.266   5.429  13.058  1.2054 -0.1979 -1.8041
 8397TIP3   OH246681   1.213   6.450  15.603  0.2876  0.2639  0.5314
 8397TIP3    H146682   1.175   6.528  15.563  0.5926 -0.0608 -0.4100
 8397TIP3    H246683   1.295   6.481  15.642  0.3075  0.4570  0.3403
 8398TIP3   OH246684   1.499   1.680   5.607 -0.1644 -0.0057 -0.1466
 8398TIP3    H146685   1.497   1.666   5.702 -0.1272  0.6697 -0.0441
 8398TIP3    H246686   1.578   1.731   5.592 -0.8961  1.0866 -0.3692
 8399TIP3   OH246687   6.480   0.940   3.393  0.1469 -0.3176 -0.1549
 8399TIP3    H146688   6.480   1.006   3.323 -0.0671  0.8088  0.8830
 8399TIP3    H246689   6.393   0.900   3.388  0.6615 -1.3478 -1.5135
 8400TIP3   OH246690   3.446   6.643  16.560 -0.1011  0.8790  0.0623
 8400TIP3    H146691   3.461   6.551  16.539 -0.1411  0.6749  0.9045
 8400TIP3    H246692   3.455   6.688  16.476  2.1453  0.4087 -0.0086
 8401TIP3   OH246693   2.215   6.598  16.534 -0.2232 -0.6245  0.3085
 8401TIP3    H146694   2.204   6.515  16.488 -1.5068  0.4012 -1.3757
 8401TIP3    H246695   2.272   6.650  16.477 -1.2810  0.4343  0.1669
 8402TIP3   OH246696   0.505   4.014   6.123  0.0799  0.0000  0.5572
 8402TIP3    H146697   0.471   3.951   6.186 -0.2779 -0.4478 -0.0769
 8402TIP3    H246698   0.600   4.012   6.136 -0.0748  1.1723  2.2569
 8403TIP3   OH246699   0.809   1.453   0.565  0.0459  0.1912  0.3059
 8403TIP3    H146700   0.806   1.520   0.633 -0.5574  0.5550 -0.0700
 8403TIP3    H246701   0.849   1.497   0.490 -0.7547  0.2695 -0.0851
 8404TIP3   OH246702   3.180   1.337   0.769 -0.6607  0.9334 -0.3903
 8404TIP3    H146703   3.189   1.301   0.857 -0.1997  1.3601 -0.2527
 8404TIP3    H246704   3.097   1.385   0.770 -1.4556 -0.3950 -0.6857
 8405TIP3   OH246705   5.942   4.297   4.954  0.3384  0.1358  0.1632
 8405TIP3    H146706   5.942   4.324   5.046 -2.1906 -0.6280  0.4664
 8405TIP3    H246707   5.877   4.226   4.950 -0.0174  0.5183 -2.3088
 8406TIP3   OH246708   0.703   0.773  15.999 -0.0154 -0.3950 -0.1954
 8406TIP3    H146709   0.784   0.825  15.998 -1.2343  1.6538  0.1970
 8406TIP3    H246710   0.714   0.708  15.930  1.1993  1.0998 -1.4815
 8407TIP3   OH246711   1.959   3.326  16.511  0.3408 -0.2702  0.1921
 8407TIP3    H146712   1.886   3.284  16.556  1.9534 -3.1768  0.3194
 8407TIP3    H246713   2.030   3.326  16.575  2.1562 -2.8837 -1.6485
 8408TIP3   OH246714   2.696   2.015   4.288  0.2598  0.5824 -0.1224
 8408TIP3    H146715   2.642   2.085   4.252  1.1354  0.5192 -1.6397
 8408TIP3    H246716   2.761   1.996   4.220  0.8105 -0.8673  0.7377
 8409TIP3   OH246717   2.712   0.730   3.135 -0.2704 -0.1265 -0.4120
 8409TIP3    H146718   2.789   0.688   3.173 -1.1648 -0.6614  0.8952
 8409TIP3    H246719   2.722   0.823   3.155 -0.2292 -0.2688  0.2342
 8410TIP3   OH246720   2.626   4.155  12.881 -0.2337 -0.4840  0.1519
 8410TIP3    H146721   2.683   4.192  12.948 -1.2360  2.0534 -0.3092
 8410TIP3    H246722   2.618   4.223  12.814 -0.0169 -2.5637 -2.1483
 8411TIP3   OH246723   1.816   6.559  10.833 -0.4178 -0.4227  0.1062
 8411TIP3    H146724   1.902   6.583  10.797 -0.9063  3.7023  1.1457
 8411TIP3    H246725   1.756   6.623  10.795 -2.2239 -0.5335  2.5353
 8412TIP3   OH246726   3.477   3.067   5.791  0.1448 -0.3397  1.0212
 8412TIP3    H146727   3.422   3.145   5.788  0.4657 -0.1288 -0.0612
 8412TIP3    H246728   3.494   3.053   5.884 -1.9464 -0.5926  1.4094
 8413TIP3   OH246729   4.161   2.782  15.313  0.3947  0.0347 -0.9045
 8413TIP3    H146730   4.103   2.801  15.239 -0.4772 -0.3641 -0.3444
 8413TIP3    H246731   4.129   2.698  15.347  2.0895 -0.8105 -1.3281
 8414TIP3   OH246732   4.219   6.523  16.928  0.7454 -0.1950 -0.0879
 8414TIP3    H146733   4.129   6.515  16.900  0.5952 -0.1164  0.3577
 8414TIP3    H246734   4.243   6.614  16.907  1.2092 -0.6400 -1.5833
 8415TIP3   OH246735   2.343   0.877  13.120 -0.3541 -0.3588 -0.3824
 8415TIP3    H146736   2.248   0.865  13.119 -0.2270 -1.4231 -1.1899
 8415TIP3    H246737   2.360   0.925  13.201 -1.6867  0.8463 -0.7678
 8416TIP3   OH246738   4.784   3.380   5.589  0.2342  0.1385  0.0970
 8416TIP3    H146739   4.782   3.454   5.528  0.6194 -0.7708 -1.0718
 8416TIP3    H246740   4.761   3.304   5.535 -0.2536 -0.5890  1.2867
 8417TIP3   OH246741   6.554   0.398  14.661  0.0003  0.2028  0.3847
 8417TIP3    H146742   6.621   0.456  14.625 -0.3979 -0.1513 -0.9972
 8417TIP3    H246743   6.509   0.363  14.584  1.8806 -3.9693  0.8760
 8418TIP3   OH246744   4.291   4.371  11.385  0.5909  0.2896 -0.2485
 8418TIP3    H146745   4.376   4.339  11.352  1.7771  2.6541  0.3148
 8418TIP3    H246746   4.311   4.409  11.470 -1.3578 -0.3727  0.5598
 8419TIP3   OH246747   6.394   1.160  17.282 -0.3948 -0.0813  0.4348
 8419TIP3    H146748   6.323   1.167  17.218  1.8355 -0.3698 -2.2861
 8419TIP3    H246749   6.370   1.086  17.337 -1.1278 -1.7758 -2.0037
 8420TIP3   OH246750   5.029   5.293  15.125  0.2649 -0.8618  0.0276
 8420TIP3    H146751   5.097   5.227  15.110  1.8196  0.5699  0.5349
 8420TIP3    H246752   5.072   5.361  15.176 -1.1224  0.8456 -0.9798
 8421TIP3   OH246753   0.417   3.051  16.370  0.3217  0.2754  0.2097
 8421TIP3    H146754   0.437   3.042  16.463  1.3281 -0.2860 -0.0443
 8421TIP3    H246755   0.390   3.142  16.360  0.6328  0.4597  0.9803
 8422TIP3   OH246756   5.972   5.377   1.019 -0.8312  0.2225 -0.1076
 8422TIP3    H146757   6.003   5.467   1.011 -0.8173  0.1379 -1.1580
 8422TIP3    H246758   5.877   5.384   1.019 -0.8302  0.2306 -0.2458
 8423TIP3   OH246759   1.357   6.590  10.913 -0.2848 -0.7013  0.5821
 8423TIP3    H146760   1.306   6.528  10.862 -0.3446  0.3803 -0.7450
 8423TIP3    H246761   1.292   6.640  10.963 -0.6542  0.9075 -1.3644
 8424TIP3   OH246762   4.148   6.500  15.643  0.1150  0.0807  0.3287
 8424TIP3    H146763   4.085   6.433  15.671  0.6330  0.0848  1.5727
 8424TIP3    H246764   4.149   6.564  15.714  2.5234 -0.6134  1.0046
 8425TIP3   OH246765   2.971   5.793   0.607 -0.0280 -0.6641 -0.2343
 8425TIP3    H146766   2.976   5.829   0.695  1.5062 -1.2588 -0.0461
 8425TIP3    H246767   2.977   5.869   0.549 -0.9751 -0.2774  0.1598
 8426TIP3   OH246768   1.914   2.051  13.716 -0.3793 -0.1561  0.5823
 8426TIP3    H146769   1.922   1.968  13.763 -2.9379 -0.4846  0.5721
 8426TIP3    H246770   1.825   2.049  13.680 -0.2532  2.3042  0.0094
 8427TIP3   OH246771   0.173   6.258   6.549 -0.3667 -0.1756  0.0263
 8427TIP3    H146772   0.089   6.229   6.585  0.5328 -1.1958  1.4540
 8427TIP3    H246773   0.219   6.176   6.528  0.2432  0.3660 -0.8044
 8428TIP3   OH246774   5.552   0.796  14.734  0.2122  0.1430 -0.1317
 8428TIP3    H146775   5.576   0.835  14.818 -0.1887 -1.6007  0.8356
 8428TIP3    H246776   5.460   0.773  14.743  0.5798 -1.6071 -0.3811
 8429TIP3   OH246777   1.602   2.585   1.904 -0.1294  0.2917  0.8160
 8429TIP3    H146778   1.646   2.556   1.985 -0.2302  0.2570  0.8587
 8429TIP3    H246779   1.648   2.538   1.834  0.6660  1.1478  0.7587
 8430TIP3   OH246780   1.765   4.217   5.251  0.0903  0.8835  0.5389
 8430TIP3    H146781   1.765   4.140   5.193 -0.9527  0.4306  1.1188
 8430TIP3    H246782   1.850   4.258   5.235 -0.0346  0.6006 -1.0861
 8431TIP3   OH246783   3.397   4.505  13.687  0.0739  0.5250  0.0853
 8431TIP3    H146784   3.455   4.499  13.763  0.4429 -1.5634 -0.2833
 8431TIP3    H246785   3.410   4.421  13.641 -2.0106  0.6893 -0.9022
 8432TIP3   OH246786   1.991   0.057  11.415 -0.0471 -0.1328 -0.7992
 8432TIP3    H146787   1.896   0.050  11.422  0.0550  0.0500  3.3699
 8432TIP3    H246788   2.021  -0.033  11.407 -0.5437 -0.7222  2.5354
 8433TIP3   OH246789   3.928   5.896   3.178 -0.5680  0.8043 -0.1345
 8433TIP3    H146790   3.956   5.855   3.260 -1.4778  1.2841  0.4288
 8433TIP3    H246791   3.998   5.956   3.155  0.4807 -0.5557 -0.6179
 8434TIP3   OH246792   3.777   2.362  16.170  0.3452  0.0857 -0.3253
 8434TIP3    H146793   3.834   2.338  16.097  1.0588  0.1818  0.1847
 8434TIP3    H246794   3.756   2.454  16.155  0.9253  0.2544 -0.1388
 8435TIP3   OH246795   3.495   0.991   5.968  0.3906  0.0429 -0.0991
 8435TIP3    H146796   3.475   1.023   6.056  0.5027  0.2022 -0.1309
 8435TIP3    H246797   3.496   0.896   5.976  0.3650  0.0571  0.0639
 8436TIP3   OH246798   1.203   1.408   0.450  0.3427 -0.5239  0.1708
 8436TIP3    H146799   1.266   1.441   0.386  1.3852  0.5358  1.6830
 8436TIP3    H246800   1.125   1.462   0.438  0.8192  0.2057  0.3338
 8437TIP3   OH246801   3.560   0.121  16.833  0.6074  0.3887 -0.3474
 8437TIP3    H146802   3.543   0.212  16.857  0.1734  0.0085  0.8358
 8437TIP3    H246803   3.496   0.103  16.763  0.8013  1.0265 -0.6979
 8438TIP3   OH246804   6.322   3.355   5.026 -0.4600  0.1677 -0.2772
 8438TIP3    H146805   6.346   3.263   5.024  0.4318  0.2973  1.7837
 8438TIP3    H246806   6.320   3.382   4.934  3.3535 -0.9163 -0.8518
 8439TIP3   OH246807   3.861   3.946  10.969  0.1938  0.0702  0.1998
 8439TIP3    H146808   3.818   3.888  10.907  0.4318 -2.5042  2.2509
 8439TIP3    H246809   3.917   4.002  10.915  0.6448 -2.2313 -1.8892
 8440TIP3   OH246810   6.377   6.555   5.417  0.2556  0.1229  0.3673
 8440TIP3    H146811   6.396   6.461   5.423  1.1128  0.1805 -1.0340
 8440TIP3    H246812   6.283   6.561   5.433 -0.6460 -1.4790 -3.3647
 8441TIP3   OH246813   4.047   5.799  15.553 -0.4388 -0.3577  0.0250
 8441TIP3    H146814   3.980   5.748  15.507  0.1415  0.3809 -1.7578
 8441TIP3    H246815   4.004   5.882  15.573 -0.1717  0.0178 -0.8870
 8442TIP3   OH246816   4.318   3.234   5.300  0.3317 -0.8174  0.2934
 8442TIP3    H146817   4.330   3.140   5.284 -2.5248 -1.3750  0.7940
 8442TIP3    H246818   4.295   3.270   5.214  0.2046 -0.8421  0.3158
 8443TIP3   OH246819   5.688   2.747  14.540  0.1769 -0.1455  0.3621
 8443TIP3    H146820   5.777   2.712  14.550  1.1441  2.4452  1.8133
 8443TIP3    H246821   5.632   2.682  14.583  1.8429 -0.0610  2.8911
 8444TIP3   OH246822   4.210   0.640   4.455  0.0108 -0.4116 -0.3309
 8444TIP3    H146823   4.213   0.599   4.541 -0.7684 -0.7953 -0.4721
 8444TIP3    H246824   4.286   0.698   4.453  0.8654 -1.4699  0.0686
 8445TIP3   OH246825   3.903   3.511   2.688  0.3218  0.4542  0.2617
 8445TIP3    H146826   3.833   3.478   2.744 -0.6495  1.3090 -0.4266
 8445TIP3    H246827   3.946   3.432   2.655 -1.3533 -0.1413 -0.6047
 8446TIP3   OH246828   5.843   6.637   5.318  0.0257 -0.5683 -0.4056
 8446TIP3    H146829   5.821   6.559   5.369 -1.5704 -0.6536 -1.1341
 8446TIP3    H246830   5.770   6.697   5.335 -0.0556 -0.2360 -1.8300
 8447TIP3   OH246831   5.351   1.703   6.115  0.2729  0.7878  0.8131
 8447TIP3    H146832   5.431   1.739   6.078 -0.7016  2.9664  0.6526
 8447TIP3    H246833   5.281   1.735   6.058 -0.6638 -2.6272 -0.1938
 8448TIP3   OH246834   2.899   2.014  13.084 -0.0610  0.4483 -0.0123
 8448TIP3    H146835   2.924   2.077  13.016  0.2860 -0.3219 -0.6153
 8448TIP3    H246836   2.852   1.946  13.037 -1.6233  0.8915  0.8307
 8449TIP3   OH246837   3.309   2.423  12.191  0.0204  0.4930  0.2499
 8449TIP3    H146838   3.339   2.463  12.273 -2.9729  0.6210  1.3819
 8449TIP3    H246839   3.325   2.490  12.124  0.3589  1.2951  1.1086
 8450TIP3   OH246840   3.399   3.465   6.447 -0.5786  0.1573  0.4314
 8450TIP3    H146841   3.482   3.487   6.489 -1.6431  1.1012  2.1442
 8450TIP3    H246842   3.343   3.541   6.464 -1.9830 -0.7268 -0.1382
 8451TIP3   OH246843   1.659   0.826  14.505 -0.5652 -0.0247 -1.1395
 8451TIP3    H146844   1.687   0.900  14.558 -2.7442  2.0458 -2.6939
 8451TIP3    H246845   1.598   0.777  14.561  1.1539 -0.9591  0.0171
 8452TIP3   OH246846   3.549   5.633   3.522 -0.1833  0.0359  0.1360
 8452TIP3    H146847   3.641   5.648   3.543 -0.1549 -0.4865  0.4025
 8452TIP3    H246848   3.546   5.630   3.426  0.1537 -0.3872  0.1344
 8453TIP3   OH246849   3.081   6.562   0.268 -0.4069 -0.0699 -0.1897
 8453TIP3    H146850   3.118   6.521   0.346  1.0422  1.6894  0.1183
 8453TIP3    H246851   2.987   6.566   0.286 -0.2881 -1.0527  0.7872
 8454TIP3   OH246852   3.719   1.493   3.054 -0.6035  0.5562  0.4467
 8454TIP3    H146853   3.791   1.555   3.071  0.2522 -0.1459 -0.4502
 8454TIP3    H246854   3.645   1.549   3.030  0.3755  1.2518 -1.1665
 8455TIP3   OH246855   3.067   0.720  14.464 -0.4254 -0.1104 -0.4340
 8455TIP3    H146856   3.161   0.712  14.480 -0.8364 -3.3711  1.2888
 8455TIP3    H246857   3.058   0.716  14.369  1.1552 -0.5905 -0.5874
 8456TIP3   OH246858   2.553   5.662   1.165  0.1664 -0.0897 -0.6526
 8456TIP3    H146859   2.594   5.660   1.251 -1.6218 -1.7321  0.2055
 8456TIP3    H246860   2.577   5.578   1.125 -1.2744 -0.5372 -0.6248
 8457TIP3   OH246861   6.357   6.324   0.498 -0.1880 -0.6495 -0.4976
 8457TIP3    H146862   6.309   6.308   0.579  0.9392  1.6573  0.7205
 8457TIP3    H246863   6.332   6.413   0.473  1.1134 -0.5478 -1.4976
 8458TIP3   OH246864   4.675   2.942   6.084  0.0823 -0.0684  0.4183
 8458TIP3    H146865   4.657   2.961   6.176  2.8619  1.2754  0.7956
 8458TIP3    H246866   4.630   2.859   6.067 -2.0014  0.5637  2.4340
 8459TIP3   OH246867   6.013   4.176  16.275 -0.4749  0.9676 -0.0771
 8459TIP3    H146868   5.987   4.268  16.269 -0.4211  0.8742 -2.4228
 8459TIP3    H246869   6.102   4.178  16.310 -0.2901  1.8484 -0.5735
 8460TIP3   OH246870   3.888   0.589   3.555 -0.3616  0.1778 -0.1737
 8460TIP3    H146871   3.818   0.554   3.499 -0.1192  0.9571 -0.9840
 8460TIP3    H246872   3.869   0.553   3.641 -1.1008 -0.5592 -0.6245
 8461TIP3   OH246873   0.875   2.441  12.944  0.4557  0.3442  0.2856
 8461TIP3    H146874   0.945   2.497  12.979  0.6909 -0.6481  1.4730
 8461TIP3    H246875   0.883   2.450  12.849  3.1381 -0.8374  0.3138
 8462TIP3   OH246876   1.564   1.325   1.293  0.5201 -0.1121  0.2023
 8462TIP3    H146877   1.555   1.246   1.240  0.5943  0.0788 -0.1005
 8462TIP3    H246878   1.551   1.397   1.231 -1.8064  0.1278  0.8748
 8463TIP3   OH246879   1.880   1.080   3.614  0.3031 -0.6184  0.0721
 8463TIP3    H146880   1.902   0.989   3.631 -1.6064 -0.8659  1.6052
 8463TIP3    H246881   1.886   1.090   3.519 -0.6704 -2.7051 -0.2553
 8464TIP3   OH246882   5.406   2.188  15.922 -0.3228  0.1381  0.2874
 8464TIP3    H146883   5.386   2.128  15.994  2.4932  0.4775  1.4662
 8464TIP3    H246884   5.466   2.252  15.960  1.3901  0.2552 -2.3623
 8465TIP3   OH246885   3.771   4.305   1.936 -0.0099  0.8595 -0.2941
 8465TIP3    H146886   3.829   4.367   1.891  0.4540 -1.3800 -3.0871
 8465TIP3    H246887   3.830   4.250   1.988  0.0563  0.5216 -0.7121
 8466TIP3   OH246888   3.727   1.551   1.259  0.3154 -0.0224 -0.3715
 8466TIP3    H146889   3.723   1.498   1.338  2.2085 -1.0108 -0.8678
 8466TIP3    H246890   3.707   1.640   1.288  1.0874 -0.3487  1.2422
 8467TIP3   OH246891   1.614   6.707  10.763 -0.4229 -0.3098  0.5636
 8467TIP3    H146892   1.541   6.645  10.772 -1.0285  0.3789  0.4693
 8467TIP3    H246893   1.599   6.750  10.679 -0.3719  0.4285  0.9211
 8468TIP3   OH246894   2.029   3.305  12.767  0.0813  0.0375  0.8205
 8468TIP3    H146895   2.006   3.253  12.844  0.9304 -0.0754  1.0055
 8468TIP3    H246896   1.950   3.303  12.713  0.4679 -2.5005  0.2189
 8469TIP3   OH246897   0.637   2.490  13.523 -0.3568  0.2375  0.6679
 8469TIP3    H146898   0.679   2.562  13.571 -0.5592  0.5119  0.4391
 8469TIP3    H246899   0.639   2.519  13.431 -2.1866  0.8511  0.7733
 8470TIP3   OH246900   5.185   2.346  14.417  0.3975 -0.0443  0.9233
 8470TIP3    H146901   5.254   2.284  14.443  0.0669 -1.9351 -2.2235
 8470TIP3    H246902   5.106   2.292  14.411  0.0541  0.6464 -1.7437
 8471TIP3   OH246903   4.878   0.132  14.212 -0.0460  0.0931  0.8509
 8471TIP3    H146904   4.921   0.218  14.213  0.1133  0.0703 -1.0844
 8471TIP3    H246905   4.950   0.070  14.224  0.0814  0.1617  0.4460
 8472TIP3   OH246906   3.239   5.819  12.766 -0.4433 -0.2644  0.1997
 8472TIP3    H146907   3.224   5.786  12.678 -2.0056  0.8034  0.0271
 8472TIP3    H246908   3.335   5.826  12.772 -0.1451 -2.7976 -0.4313
 8473TIP3   OH246909   4.825   3.114  16.656 -0.1812  0.2992  0.3885
 8473TIP3    H146910   4.735   3.086  16.641  0.7677 -2.1983 -1.4058
 8473TIP3    H246911   4.852   3.157  16.575  0.6207 -0.1962  0.3711
 8474TIP3   OH246912   6.262   5.178  13.625  0.1954  0.0297 -0.1930
 8474TIP3    H146913   6.289   5.115  13.558  0.6195  0.6390 -0.6010
 8474TIP3    H246914   6.316   5.255  13.610 -1.2988  1.0494 -0.6387
 8475TIP3   OH246915   1.845   4.558   1.021 -0.0090 -0.8947 -0.2245
 8475TIP3    H146916   1.865   4.649   1.043  0.1072 -0.9549 -0.0744
 8475TIP3    H246917   1.841   4.514   1.106 -1.1293 -0.8153 -0.2264
 8476TIP3   OH246918   4.629   4.212  13.760 -0.0435  0.0681  0.3973
 8476TIP3    H146919   4.667   4.226  13.673 -1.5668  1.7743 -0.0450
 8476TIP3    H246920   4.637   4.297  13.804 -0.3049 -0.4678  1.5402
 8477TIP3   OH246921   1.224   5.340   1.882  0.5119  0.1164  0.4162
 8477TIP3    H146922   1.203   5.425   1.843 -0.4009 -0.9990 -1.7225
 8477TIP3    H246923   1.140   5.296   1.890  0.8206 -0.1419  2.7345
 8478TIP3   OH246924   6.775   2.745  14.781  0.0081  0.3960 -0.1107
 8478TIP3    H146925   6.803   2.799  14.707  0.0027 -1.1814 -1.3220
 8478TIP3    H246926   6.683   2.726  14.762  0.1869 -0.5554 -0.0552
 8479TIP3   OH246927   0.760   4.235  17.269 -0.1748 -1.0152  0.1694
 8479TIP3    H146928   0.741   4.278  17.352 -0.6520  2.1063 -1.4222
 8479TIP3    H246929   0.719   4.149  17.276 -0.8807 -0.5385  2.8285
 8480TIP3   OH246930   5.406   2.906  13.291  0.6669 -0.6725 -0.0132
 8480TIP3    H146931   5.383   2.988  13.335 -0.0346 -1.5108  1.2062
 8480TIP3    H246932   5.498   2.919  13.264  0.9622  0.0384  1.2530
 8481TIP3   OH246933   1.513   3.531  14.681  0.0954 -0.3031 -0.3375
 8481TIP3    H146934   1.453   3.483  14.624  1.2737  0.0108 -1.9406
 8481TIP3    H246935   1.494   3.500  14.769 -0.8737 -1.8347 -1.0494
 8482TIP3   OH246936   4.040   5.333  11.973 -0.1272 -0.7908 -0.2218
 8482TIP3    H146937   4.036   5.240  11.995 -0.6124 -0.9059 -0.7781
 8482TIP3    H246938   4.074   5.375  12.052  1.8185 -1.6449 -0.5514
 8483TIP3   OH246939   3.403   5.735   1.564 -0.1635  0.0131 -0.1323
 8483TIP3    H146940   3.407   5.728   1.660  0.0434 -1.4330 -0.2212
 8483TIP3    H246941   3.375   5.648   1.535  0.5819  0.1819 -1.4378
 8484TIP3   OH246942   3.326   4.046  14.724 -0.2617  0.0569  0.1741
 8484TIP3    H146943   3.316   4.134  14.689  0.0922  0.8543  1.9963
 8484TIP3    H246944   3.295   4.052  14.814  1.6502 -1.1905  0.9743
 8485TIP3   OH246945   1.015   1.191  13.724  0.3983  0.4088 -0.0331
 8485TIP3    H146946   1.040   1.225  13.638  1.0063 -0.3714 -0.1767
 8485TIP3    H246947   0.982   1.103  13.706 -0.7087  0.7189  0.3858
 8486TIP3   OH246948   2.479   0.682   1.420 -0.2288 -0.2643 -0.1116
 8486TIP3    H146949   2.425   0.757   1.442 -0.9711 -0.1411 -2.1763
 8486TIP3    H246950   2.420   0.606   1.429  0.3328 -0.5634  1.3081
 8487TIP3   OH246951   2.739   2.759  16.726 -0.6372 -0.1844 -0.0487
 8487TIP3    H146952   2.663   2.817  16.733  0.1269  0.7804  0.3817
 8487TIP3    H246953   2.762   2.762  16.633 -1.9622 -1.6128 -0.4777
 8488TIP3   OH246954   2.879   6.378  12.156  0.0845 -0.6003 -0.5851
 8488TIP3    H146955   2.834   6.312  12.209  0.9382 -1.3025 -0.7190
 8488TIP3    H246956   2.932   6.427  12.219 -0.5279 -0.0429 -0.4903
 8489TIP3   OH246957   3.428   4.425   3.248  0.1661  0.4995 -0.2157
 8489TIP3    H146958   3.488   4.485   3.293  0.2871 -0.6425  1.2284
 8489TIP3    H246959   3.485   4.358   3.209 -0.1109 -1.2648  2.1672
 8490TIP3   OH246960   6.690   3.545  15.468  0.1219  0.3667 -0.2856
 8490TIP3    H146961   6.716   3.477  15.530 -0.2642 -0.7421 -1.2884
 8490TIP3    H246962   6.770   3.563  15.417  0.1961  0.5743 -0.0937
 8491TIP3   OH246963   5.273   0.355  11.205 -0.0819 -0.1114  0.9038
 8491TIP3    H146964   5.333   0.288  11.238 -0.5480 -0.6541  0.6696
 8491TIP3    H246965   5.189   0.334  11.245 -0.4760 -0.3155 -0.0078
 8492TIP3   OH246966   1.079   3.444  12.484  0.0691  0.0795  0.2959
 8492TIP3    H146967   1.170   3.418  12.491 -0.1287 -0.4747  0.9042
 8492TIP3    H246968   1.041   3.385  12.418 -0.2348 -0.8085  1.2387
 8493TIP3   OH246969   4.447   0.262  13.538 -0.3607  0.3598 -0.0378
 8493TIP3    H146970   4.507   0.204  13.584 -0.9190  0.8819  1.3906
 8493TIP3    H246971   4.392   0.299  13.606 -2.1676  0.0869 -1.2871
 8494TIP3   OH246972   0.043   6.387  11.885  0.3493  0.8507 -0.0886
 8494TIP3    H146973   0.020   6.313  11.830  2.6033 -1.3374  1.7167
 8494TIP3    H246974   0.022   6.464  11.832 -2.4080 -0.9988 -1.9057
 8495TIP3   OH246975   1.161   5.718   4.435  0.4884  0.8188 -0.3180
 8495TIP3    H146976   1.196   5.736   4.348 -2.0414  1.3693 -1.3120
 8495TIP3    H246977   1.106   5.794   4.455  1.6927  1.1389  2.1952
 8496TIP3   OH246978   0.597   4.354   2.865 -0.0429 -0.2497  0.0486
 8496TIP3    H146979   0.588   4.408   2.786 -0.1723  0.9291  0.8478
 8496TIP3    H246980   0.507   4.340   2.894  0.0670  0.7508  0.9175
 8497TIP3   OH246981   2.660   6.607   2.714 -0.3958  0.0900 -0.3016
 8497TIP3    H146982   2.631   6.517   2.700 -0.4986  0.3674 -2.1957
 8497TIP3    H246983   2.688   6.636   2.627  0.3183  1.6547  0.4172
 8498TIP3   OH246984   4.876   3.800   1.177  0.9063 -0.0634 -0.0764
 8498TIP3    H146985   4.844   3.889   1.162  1.3734 -0.0276 -0.9400
 8498TIP3    H246986   4.941   3.809   1.247 -1.3984 -0.2442  2.2574
 8499TIP3   OH246987   2.940   6.611  12.546  0.2137 -0.0767 -0.1806
 8499TIP3    H146988   2.995   6.595  12.622 -1.5289 -1.1080  0.9453
 8499TIP3    H246989   2.908   6.700  12.557  0.4517 -0.0114 -0.0245
 8500TIP3   OH246990   5.292   4.782   3.730  0.6654 -0.9459 -0.1585
 8500TIP3    H146991   5.207   4.756   3.693  0.6437  0.8474 -1.5191
 8500TIP3    H246992   5.335   4.699   3.752 -1.1036 -1.9187 -0.2026
 8501TIP3   OH246993   0.096   6.120  11.028  0.2947 -0.1738 -0.3872
 8501TIP3    H146994   0.167   6.102  11.090  0.1334  0.8304  0.1056
 8501TIP3    H246995   0.065   6.207  11.052  1.1361  0.8419 -2.7265
 8502TIP3   OH246996   1.523   3.203  15.096 -0.5557 -0.2126 -0.4948
 8502TIP3    H146997   1.510   3.118  15.138 -0.8580 -0.3314 -0.8180
 8502TIP3    H246998   1.506   3.186  15.003 -2.6242  0.6199 -0.3092
 8503TIP3   OH246999   3.398   1.768  13.826  0.5780  0.1316 -0.0905
 8503TIP3    H147000   3.334   1.837  13.841 -0.6245 -1.0291  0.4107
 8503TIP3    H247001   3.456   1.771  13.901  0.2094  0.2752  0.1922
 8504TIP3   OH247002   2.947   0.408  15.045 -0.5705 -0.0184  0.7648
 8504TIP3    H147003   2.867   0.357  15.030 -0.2721  0.1306 -1.7216
 8504TIP3    H247004   3.015   0.341  15.057 -0.6684 -0.1759  0.4579
 8505TIP3   OH247005   0.314   6.655  15.119  0.0530 -1.0753  0.0646
 8505TIP3    H147006   0.249   6.611  15.064 -0.6340 -1.2039  0.9693
 8505TIP3    H247007   0.394   6.604  15.105 -0.1336 -1.1720 -0.7276
 8506TIP3   OH247008   1.210   6.265  12.925  0.3843  1.0057  0.9418
 8506TIP3    H147009   1.162   6.339  12.887  2.1997  2.6751  1.6984
 8506TIP3    H247010   1.291   6.261  12.874  0.4789 -0.2672  1.1585
 8507TIP3   OH247011   2.138   5.112   4.756  0.4385  0.0094  0.0960
 8507TIP3    H147012   2.212   5.148   4.804  1.0697  1.8050 -2.0616
 8507TIP3    H247013   2.072   5.095   4.823  1.7744  1.0187  1.7415
 8508TIP3   OH247014   4.675   0.988  11.600  0.3488  0.0355  0.2835
 8508TIP3    H147015   4.585   0.997  11.568  0.6032 -0.3488 -0.5593
 8508TIP3    H247016   4.685   1.061  11.661 -0.8908 -0.5725  1.2568
 8509TIP3   OH247017   4.989   2.839   2.180 -0.4900 -0.0888 -0.3078
 8509TIP3    H147018   4.973   2.927   2.214 -1.8338 -0.4192 -0.0412
 8509TIP3    H247019   5.034   2.794   2.252 -2.7240 -0.5750  0.8942
 8510TIP3   OH247020   2.408   1.096   1.897  0.2175 -0.0305  0.5179
 8510TIP3    H147021   2.333   1.050   1.936 -0.3560  0.8901  0.5377
 8510TIP3    H247022   2.475   1.029   1.889 -0.3784 -0.7288  1.1332
 8511TIP3   OH247023   0.185   6.603  16.259 -0.0052  0.0948  0.3761
 8511TIP3    H147024   0.179   6.522  16.208 -1.1686  1.2825 -1.5277
 8511TIP3    H247025   0.151   6.580  16.346  0.0078 -1.5225 -0.0267
 8512TIP3   OH247026   5.276   0.112   3.374  0.2794  0.2601  0.1299
 8512TIP3    H147027   5.215   0.165   3.323  0.0566 -0.2181 -0.1053
 8512TIP3    H247028   5.226   0.034   3.398  0.5571  0.2189  0.5992
 8513TIP3   OH247029   1.051   3.107   5.481 -0.0105 -0.0462 -0.1702
 8513TIP3    H147030   0.970   3.139   5.441 -0.0589  0.6657  0.4663
 8513TIP3    H247031   1.121   3.141   5.425 -0.0839  0.8225  0.2424
 8514TIP3   OH247032   3.220   5.591  15.934 -0.4531 -0.5332 -0.1051
 8514TIP3    H147033   3.185   5.560  16.017  0.3892 -0.7244  0.1903
 8514TIP3    H247034   3.199   5.684  15.931 -1.3374 -0.7288 -0.1311
 8515TIP3   OH247035   2.564   2.332   4.020 -0.5632  0.3134 -0.1493
 8515TIP3    H147036   2.515   2.413   4.009 -0.2502  0.3245 -1.6312
 8515TIP3    H247037   2.572   2.296   3.932 -0.1770 -1.0313  0.3996
 8516TIP3   OH247038   3.448   2.756  13.645  0.0905 -0.7355  0.1324
 8516TIP3    H147039   3.405   2.782  13.726 -0.8304  0.4674 -0.7067
 8516TIP3    H247040   3.377   2.722  13.590  0.1321  1.2986 -1.2820
 8517TIP3   OH247041   0.941   5.006   3.605 -0.5782 -0.5254 -0.1392
 8517TIP3    H147042   0.903   5.032   3.688  1.2806 -1.2626  1.0132
 8517TIP3    H247043   0.908   4.917   3.590  1.8751 -1.9062  1.7812
 8518TIP3   OH247044   5.203   2.628  11.828  0.2250  0.0439 -0.0898
 8518TIP3    H147045   5.214   2.700  11.766 -1.1558 -0.5643 -1.0898
 8518TIP3    H247046   5.290   2.589  11.836  0.8863  1.5173  0.1030
 8519TIP3   OH247047   3.818   2.005  15.290 -0.1376 -0.0789 -0.1517
 8519TIP3    H147048   3.810   2.095  15.322 -1.4926  0.5338 -2.0769
 8519TIP3    H247049   3.760   1.954  15.347 -2.5404  0.9944 -1.4924
 8520TIP3   OH247050   0.985   4.623   5.310 -0.2171  0.6027  0.2136
 8520TIP3    H147051   1.010   4.569   5.385 -0.6127  0.2241  0.0768
 8520TIP3    H247052   1.051   4.692   5.307 -0.5252  0.9495  1.2576
 8521TIP3   OH247053   5.148   6.684  13.288  0.0212  0.2355 -0.2574
 8521TIP3    H147054   5.231   6.674  13.334  0.3823 -0.6560 -1.0693
 8521TIP3    H247055   5.106   6.758  13.331  0.7277 -0.0143  0.9199
 8522TIP3   OH247056   1.064   1.745  13.587 -0.0091  0.0962 -0.4098
 8522TIP3    H147057   1.082   1.832  13.551  3.0044 -0.6031 -0.8670
 8522TIP3    H247058   1.028   1.762  13.674 -0.3225  1.7938 -0.8260
 8523TIP3   OH247059   0.803   4.610  11.470 -0.1854  0.1988 -0.1027
 8523TIP3    H147060   0.733   4.640  11.412  0.0024  0.5116 -0.1724
 8523TIP3    H247061   0.840   4.533  11.426 -2.3361 -1.7641  1.2925
 8524TIP3   OH247062   4.351   6.712   0.734  0.0015 -0.0925  0.1434
 8524TIP3    H147063   4.283   6.775   0.711 -0.4622 -0.7966 -0.4426
 8524TIP3    H247064   4.352   6.712   0.830 -2.4617 -1.7285  0.2726
 8525TIP3   OH247065   3.637   5.518  13.517  0.1070 -0.4040 -0.4128
 8525TIP3    H147066   3.726   5.545  13.493  0.2918  0.7357  1.3499
 8525TIP3    H247067   3.650   5.448  13.581 -0.2071  0.5072  0.6779
 8526TIP3   OH247068   0.406   3.259   0.215 -0.1072  0.2152 -0.5143
 8526TIP3    H147069   0.447   3.328   0.266  2.5612 -2.5041  1.3149
 8526TIP3    H247070   0.333   3.229   0.269  0.4469 -0.2045  0.0127
 8527TIP3   OH247071   2.899   5.804  11.230 -0.2079 -0.0936  0.2383
 8527TIP3    H147072   2.843   5.744  11.183  0.1071  0.0713 -0.3525
 8527TIP3    H247073   2.894   5.886  11.181  1.0116 -0.2475 -0.1723
 8528TIP3   OH247074   6.671   1.439   6.324 -0.1936  0.1458  0.4167
 8528TIP3    H147075   6.626   1.519   6.299  1.3432  0.4446 -1.6712
 8528TIP3    H247076   6.602   1.375   6.337 -1.3848  1.5011  1.0066
 8529TIP3   OH247077   4.159   5.774  13.043 -0.4833  0.2821  0.4141
 8529TIP3    H147078   4.166   5.697  13.099 -0.2917 -0.6543 -0.8437
 8529TIP3    H247079   4.163   5.848  13.103  2.2902 -0.5819  1.4400
 8530TIP3   OH247080   5.019   3.181   6.287  0.0543 -0.6179 -0.0499
 8530TIP3    H147081   4.947   3.190   6.350 -1.5882 -2.5275 -1.5321
 8530TIP3    H247082   4.986   3.222   6.207  0.7433 -1.2098 -0.6526
 8531TIP3   OH247083   0.830   6.480   5.876 -0.2367 -0.0584  0.1907
 8531TIP3    H147084   0.849   6.386   5.867 -1.2537 -0.5183  2.2184
 8531TIP3    H247085   0.898   6.513   5.934 -0.5010  0.2180  0.3469
 8532TIP3   OH247086   2.361   4.373   5.651 -0.2189  0.3023 -0.2325
 8532TIP3    H147087   2.322   4.341   5.733 -1.4520 -0.1694 -0.9659
 8532TIP3    H247088   2.411   4.298   5.618  0.8043  0.6964  0.3834
 8533TIP3   OH247089   5.387   4.003   6.307 -0.1972  0.5009 -0.6823
 8533TIP3    H147090   5.449   3.954   6.361  0.4275  1.2199 -0.7346
 8533TIP3    H247091   5.302   3.985   6.347  0.0024 -0.6995 -0.7651
 8534TIP3   OH247092   0.059   0.778  15.714 -0.3543  0.7949 -0.1269
 8534TIP3    H147093   0.009   0.778  15.796 -0.7569 -0.4068 -0.3559
 8534TIP3    H247094   0.070   0.685  15.693  2.1843  0.9901  0.0229
 8535TIP3   OH247095   2.629   4.553  16.949  1.0192 -0.2236  0.5694
 8535TIP3    H147096   2.654   4.645  16.937  1.4234 -0.6114 -2.3754
 8535TIP3    H247097   2.594   4.527  16.863 -1.2018 -2.2230  1.9718
 8536TIP3   OH247098   4.947   5.282  17.077  0.3435 -0.3874  0.6635
 8536TIP3    H147099   4.879   5.293  17.010  0.4603  1.3921  0.7932
 8536TIP3    H247100   5.010   5.351  17.058  1.3806 -1.0914  1.4491
 8537TIP3   OH247101   5.498   2.802  16.371  0.2965 -0.0905 -0.1956
 8537TIP3    H147102   5.459   2.889  16.370  0.6251  0.0595 -0.8091
 8537TIP3    H247103   5.591   2.817  16.386  0.1017 -0.4727  1.6351
 8538TIP3   OH247104   0.896   2.427   0.059  0.9915  0.6067  0.0508
 8538TIP3    H147105   0.873   2.520   0.062  1.3273  0.7379 -1.0116
 8538TIP3    H247106   0.817   2.382   0.087  0.7205  1.1955  0.2522
 8539TIP3   OH247107   4.969   0.120   0.949 -0.1916 -0.1642  0.3688
 8539TIP3    H147108   4.966   0.025   0.933  3.0888 -0.5908  1.4799
 8539TIP3    H247109   4.916   0.158   0.878 -0.1595 -2.7346 -1.1712
 8540TIP3   OH247110   2.855   6.520  10.654 -0.3705 -0.1147  0.4715
 8540TIP3    H147111   2.778   6.489  10.702 -1.1923  1.0876 -0.0188
 8540TIP3    H247112   2.926   6.516  10.718 -0.7041 -1.7120  0.7915
 8541TIP3   OH247113   6.624   6.514   0.318  0.6264  0.2352 -0.3844
 8541TIP3    H147114   6.698   6.535   0.376 -0.1210 -0.5879  0.9303
 8541TIP3    H247115   6.561   6.585   0.333  0.4979  0.1031 -0.2888
 8542TIP3   OH247116   5.010   3.175   4.822  0.1928 -0.2163 -0.0354
 8542TIP3    H147117   4.980   3.236   4.890 -4.0425 -0.1490 -1.6376
 8542TIP3    H247118   5.042   3.231   4.752  1.8607 -0.1702  0.7279
 8543TIP3   OH247119   3.413   5.223  11.836  0.6735  0.2485  0.3495
 8543TIP3    H147120   3.479   5.277  11.793  3.0695 -1.5011  1.5829
 8543TIP3    H247121   3.337   5.227  11.778  1.5146  2.9935 -0.7423
 8544TIP3   OH247122   4.859   2.906  15.427  0.3270  0.2583 -0.3211
 8544TIP3    H147123   4.846   2.811  15.425  2.1436 -0.0356  0.1542
 8544TIP3    H247124   4.775   2.942  15.400 -0.9561 -1.4360  1.1850
 8545TIP3   OH247125   4.001   0.817   0.945 -0.1842  0.0579  0.4370
 8545TIP3    H147126   4.060   0.880   0.903 -2.2848  2.8100  1.3283
 8545TIP3    H247127   3.919   0.824   0.895 -0.4793 -2.1221  0.5092
 8546TIP3   OH247128   5.164   4.154  13.837 -0.4150  0.2317  0.0737
 8546TIP3    H147129   5.095   4.103  13.796 -1.3245  0.5670  1.1353
 8546TIP3    H247130   5.171   4.118  13.926 -0.2108  1.1299  0.4313
 8547TIP3   OH247131   4.124   2.813  14.290 -0.1122  0.2949  0.1553
 8547TIP3    H147132   4.200   2.763  14.260 -0.3135 -0.1020  0.2936
 8547TIP3    H247133   4.152   2.855  14.371  0.3204  1.0815 -0.3937
 8548TIP3   OH247134   0.705   4.762   4.688  0.1411  0.2077  0.0620
 8548TIP3    H147135   0.693   4.676   4.729  3.1978  0.2805  1.4099
 8548TIP3    H247136   0.741   4.742   4.601  0.8801  0.0846  0.3863
 8549TIP3   OH247137   3.629   3.393   6.206  0.6133  0.1958  0.0633
 8549TIP3    H147138   3.645   3.331   6.135  0.9435  1.1077 -0.6842
 8549TIP3    H247139   3.703   3.379   6.266  0.2443 -0.6933  0.3206
 8550TIP3   OH247140   3.355   6.149   1.176  0.0720  0.2053  0.8417
 8550TIP3    H147141   3.399   6.131   1.259  0.0617 -2.5354  0.3429
 8550TIP3    H247142   3.427   6.163   1.114  0.0936  1.4340  1.1275
 8551TIP3   OH247143   5.330   0.483  17.172 -0.4067  0.1265 -0.2623
 8551TIP3    H147144   5.253   0.429  17.191 -0.3886  0.0940 -0.2799
 8551TIP3    H247145   5.310   0.568  17.212  1.3634 -1.0923  3.6583
 8552TIP3   OH247146   4.476   3.994   3.114 -0.3009 -0.4834  0.2216
 8552TIP3    H147147   4.518   4.016   3.198 -0.0116  1.5331 -0.4012
 8552TIP3    H247148   4.542   3.942   3.068  0.4915  0.4107  0.3134
 8553TIP3   OH247149   5.116   5.363   4.086  0.3243  0.0076  0.2138
 8553TIP3    H147150   5.054   5.342   4.156 -0.4490  0.1851 -0.4053
 8553TIP3    H247151   5.166   5.437   4.119 -0.6904  0.7180  0.2137
 8554TIP3   OH247152   0.633   4.170  15.985  0.1414  0.0512  0.1213
 8554TIP3    H147153   0.613   4.120  15.906 -1.5048 -1.5996  1.4975
 8554TIP3    H247154   0.547   4.193  16.021  0.8491  2.7305  0.3051
 8555TIP3   OH247155   1.683   1.172   3.839 -0.1800  0.3683 -0.0207
 8555TIP3    H147156   1.721   1.126   3.764  0.2781 -0.8964  0.9522
 8555TIP3    H247157   1.629   1.106   3.882 -2.3568  1.7155 -0.5113
 8556TIP3   OH247158   2.844   1.453   2.462 -0.3251  0.1967  0.2378
 8556TIP3    H147159   2.815   1.404   2.385  0.3531 -1.5057  1.0141
 8556TIP3    H247160   2.931   1.485   2.438 -0.3197  0.0928  0.1158
 8557TIP3   OH247161   3.109   2.064   4.255  0.3989  0.3875  0.1617
 8557TIP3    H147162   3.171   1.993   4.239 -1.4773 -0.6430 -3.4203
 8557TIP3    H247163   3.050   2.030   4.322  0.8701 -0.5200  0.1324
 8558TIP3   OH247164   3.638   5.107  16.312  0.5676 -0.7187 -0.9291
 8558TIP3    H147165   3.708   5.069  16.364 -0.8594 -3.8192 -1.0398
 8558TIP3    H247166   3.617   5.040  16.247 -0.3816  1.4104 -2.9758
 8559TIP3   OH247167   5.708   6.722   0.279  0.0804 -0.2828 -0.4985
 8559TIP3    H147168   5.721   6.776   0.202 -0.2476  1.8248  0.8463
 8559TIP3    H247169   5.614   6.703   0.280  0.2345 -1.1183 -1.1013
 8560TIP3   OH247170   2.899   1.534  15.712 -0.3129 -0.5075  0.1675
 8560TIP3    H147171   2.957   1.462  15.686 -0.8571 -0.7827 -0.3237
 8560TIP3    H247172   2.956   1.610  15.717 -0.0391 -0.5981 -1.1371
 8561TIP3   OH247173   2.527   6.126   4.982 -0.6668  0.4839 -0.2750
 8561TIP3    H147174   2.533   6.033   5.005 -0.7549  0.0973 -1.7178
 8561TIP3    H247175   2.616   6.149   4.956 -0.4072  1.1067  1.0778
 8562TIP3   OH247176   3.041   3.294   5.610  0.5760 -0.1861 -0.2936
 8562TIP3    H147177   3.065   3.288   5.518 -1.6207 -0.1656 -0.9361
 8562TIP3    H247178   3.057   3.207   5.646  0.2972 -0.5370 -1.0141
 8563TIP3   OH247179   5.192   3.103   6.495  0.1971 -0.5276 -0.7478
 8563TIP3    H147180   5.181   3.017   6.454 -2.1740 -0.8202  0.3328
 8563TIP3    H247181   5.152   3.163   6.433 -0.2828 -0.5277 -0.4435
 8564TIP3   OH247182   1.560   5.344  16.113 -0.1426  0.2089  0.2272
 8564TIP3    H147183   1.596   5.294  16.039 -0.7340  0.9431 -0.5773
 8564TIP3    H247184   1.632   5.349  16.176  0.1450 -1.0568  0.0238
 8565TIP3   OH247185   3.776   5.697  16.933 -0.5630 -0.2364  0.4259
 8565TIP3    H147186   3.728   5.645  16.997 -1.3366 -0.5597 -0.4003
 8565TIP3    H247187   3.785   5.640  16.856 -2.8117  1.2952 -1.1107
 8566TIP3   OH247188   6.353   0.727  16.890 -0.3871  0.0070 -0.4584
 8566TIP3    H147189   6.370   0.780  16.968 -0.1498 -1.4893  0.5623
 8566TIP3    H247190   6.439   0.713  16.851 -0.3052 -0.5339 -0.0942
 8567TIP3   OH247191   3.500   3.824  16.764 -0.4486 -0.8221 -0.0001
 8567TIP3    H147192   3.486   3.767  16.688 -2.0944  0.9941 -1.1640
 8567TIP3    H247193   3.423   3.809  16.819  0.0064 -1.0251  0.5903
 8568TIP3   OH247194   1.046   2.056   4.078  0.0922 -0.0470  0.0636
 8568TIP3    H147195   0.970   2.013   4.039 -0.9949  0.3050  1.6944
 8568TIP3    H247196   1.024   2.149   4.079  0.2444 -0.0023  1.1099
 8569TIP3   OH247197   1.483   2.398   2.631  0.1434  0.0478 -0.3687
 8569TIP3    H147198   1.572   2.416   2.601  1.1566 -1.0102  1.7898
 8569TIP3    H247199   1.482   2.303   2.647 -0.4953  0.4342  2.1706
 8570TIP3   OH247200   3.519   1.034  14.130  0.5029  0.3347  0.8534
 8570TIP3    H147201   3.450   1.100  14.125 -0.8313 -1.0568 -2.6544
 8570TIP3    H247202   3.565   1.041  14.047  0.9447 -2.4063  0.7684
 8571TIP3   OH247203   0.986   1.377  14.406  0.3675  0.5040 -0.0602
 8571TIP3    H147204   1.077   1.393  14.432  0.0972  2.8812 -0.3115
 8571TIP3    H247205   0.988   1.379  14.310 -0.1100  1.9417 -0.0646
 8572TIP3   OH247206   2.681   5.888  11.411  0.1909  0.4487 -0.4215
 8572TIP3    H147207   2.710   5.979  11.408  1.6733  0.0524  0.6308
 8572TIP3    H247208   2.710   5.851  11.327 -2.0247  1.3413 -1.6572
 8573TIP3   OH247209   3.594   3.071  12.543  0.3758  0.5670 -0.8563
 8573TIP3    H147210   3.520   3.133  12.542 -0.1150  0.0112  0.1391
 8573TIP3    H247211   3.605   3.047  12.635 -0.9171 -2.5444 -1.3954
 8574TIP3   OH247212   6.444   2.642  16.309 -0.1133 -0.1906 -0.5527
 8574TIP3    H147213   6.436   2.702  16.383 -0.3372 -1.6089  0.6186
 8574TIP3    H247214   6.537   2.620  16.306 -0.4448 -1.9763  0.8718
 8575TIP3   OH247215   2.057   6.428   3.206  0.2577  0.0899  0.7797
 8575TIP3    H147216   1.982   6.483   3.227  0.1963  0.0476  0.6743
 8575TIP3    H247217   2.112   6.482   3.149 -0.6541 -0.5428 -0.7825
 8576TIP3   OH247218   6.168   1.330  15.105 -0.1214 -0.1786  0.2748
 8576TIP3    H147219   6.085   1.376  15.116 -1.0723 -0.7853 -3.3646
 8576TIP3    H247220   6.235   1.399  15.109 -0.6913  0.3295  3.0690
 8577TIP3   OH247221   4.458   1.261  11.065 -0.0642 -0.4449  0.2679
 8577TIP3    H147222   4.456   1.326  10.995 -0.8103 -0.8336 -0.0749
 8577TIP3    H247223   4.505   1.305  11.136  3.3850 -1.0639 -1.4437
 8578TIP3   OH247224   0.366   3.625  15.867  0.1545  0.3494 -0.3151
 8578TIP3    H147225   0.376   3.712  15.904  2.8395  0.2383 -0.6119
 8578TIP3    H247226   0.278   3.625  15.829  0.2289  3.0495 -0.6649
 8579TIP3   OH247227   3.115   2.437   0.290  0.9587 -0.0126 -0.1137
 8579TIP3    H147228   3.136   2.362   0.234  0.3472 -0.4163  0.1807
 8579TIP3    H247229   3.019   2.437   0.295  1.0058 -0.1080  1.0904
 8580TIP3   OH247230   6.190   2.379   3.241 -0.1749  0.3379 -0.4436
 8580TIP3    H147231   6.181   2.457   3.188 -0.9299  0.0299 -0.7798
 8580TIP3    H247232   6.103   2.366   3.280 -0.0440 -0.2960 -0.3502
 8581TIP3   OH247233   6.101   4.718   3.668  0.0078 -0.6751  0.2813
 8581TIP3    H147234   6.128   4.648   3.728 -1.1218  0.5628  2.3629
 8581TIP3    H247235   6.093   4.795   3.724  2.1563  1.4392 -2.0612
 8582TIP3   OH247236   0.172   5.338  16.162  0.1418 -0.3221  0.4415
 8582TIP3    H147237   0.207   5.345  16.074 -1.9682 -0.0690 -0.4401
 8582TIP3    H247238   0.166   5.429  16.192 -0.7836 -0.2801  0.1430
 8583TIP3   OH247239   3.249   5.277   0.424  0.2588 -0.0006 -1.0416
 8583TIP3    H147240   3.283   5.289   0.513 -1.3832  1.2517 -0.5438
 8583TIP3    H247241   3.291   5.346   0.373 -0.6473  0.8305 -0.6795
 8584TIP3   OH247242   5.051   6.247  14.304 -0.1074  0.0416 -0.3701
 8584TIP3    H147243   5.085   6.219  14.219 -0.8618  0.3812 -0.7961
 8584TIP3    H247244   5.066   6.342  14.306 -0.8408  0.1636 -0.4802
 8585TIP3   OH247245   0.154   5.635   0.386  0.6111 -0.3606  0.5322
 8585TIP3    H147246   0.213   5.560   0.380  1.1565  0.1205 -0.2768
 8585TIP3    H247247   0.098   5.628   0.309  0.8586  0.2145  0.2941
 8586TIP3   OH247248   4.521   6.204   0.188 -0.2816  0.1131 -0.3369
 8586TIP3    H147249   4.561   6.135   0.134  0.0594  0.3837 -0.4357
 8586TIP3    H247250   4.434   6.216   0.151 -0.6311 -0.7909  0.1492
 8587TIP3   OH247251   2.937   1.921  12.760  0.0600 -0.5108 -0.2196
 8587TIP3    H147252   2.859   1.925  12.704 -0.3128  0.9335  0.3703
 8587TIP3    H247253   2.962   2.012  12.774  0.0205 -0.8003  2.1240
 8588TIP3   OH247254   2.248   6.740  13.757  0.8717  0.2209 -0.5600
 8588TIP3    H147255   2.206   6.660  13.788  1.1493  0.2628 -0.0688
 8588TIP3    H247256   2.338   6.715  13.740  0.4685 -0.0924 -2.4835
 8589TIP3   OH247257   2.441   5.389  13.492  0.1929 -0.0293  0.0725
 8589TIP3    H147258   2.472   5.432  13.412  0.1996 -0.6413 -0.2538
 8589TIP3    H247259   2.482   5.438  13.563  0.2329  0.4801 -0.2986
 8590TIP3   OH247260   5.308   1.337   1.464  0.5172 -0.4196  0.2194
 8590TIP3    H147261   5.380   1.329   1.528 -1.2580  1.6433  2.6749
 8590TIP3    H247262   5.229   1.318   1.515 -0.9916  1.3055 -1.3494
 8591TIP3   OH247263   6.210   1.008  11.675 -1.1893 -0.0774 -0.2585
 8591TIP3    H147264   6.211   1.012  11.770  2.6231  0.7783 -0.1774
 8591TIP3    H247265   6.139   1.067  11.649 -0.2475  2.2831  2.0867
 8592TIP3   OH247266   1.773   3.796  11.608  0.5968  0.2682 -0.5341
 8592TIP3    H147267   1.832   3.861  11.569 -0.1466  1.7836  0.7405
 8592TIP3    H247268   1.687   3.838  11.607 -0.2273 -1.3555 -1.1146
 8593TIP3   OH247269   0.867   0.197   4.395  0.3751 -0.0859  0.3936
 8593TIP3    H147270   0.920   0.219   4.318 -0.5011  1.8151  0.2699
 8593TIP3    H247271   0.833   0.110   4.376  0.3422  0.2547 -1.2920
 8594TIP3   OH247272   2.806   5.158  13.933 -0.4096  0.5800  0.1489
 8594TIP3    H147273   2.813   5.252  13.947  0.0868  0.5635  0.0586
 8594TIP3    H247274   2.895   5.131  13.909 -0.7747  0.2715 -0.9134
 8595TIP3   OH247275   6.795   0.663   0.919  0.0225 -0.1657 -0.1234
 8595TIP3    H147276   6.816   0.752   0.890 -0.7874  0.1061  0.0903
 8595TIP3    H247277   6.844   0.652   1.000 -0.4979  0.3856  0.2721
 8596TIP3   OH247278   6.806   0.089   0.759  0.0445  0.0575  0.1755
 8596TIP3    H147279   6.840   0.041   0.835 -1.9324 -0.1161  1.0189
 8596TIP3    H247280   6.846   0.176   0.766  0.0033  0.0045  1.3743
 8597TIP3   OH247281   4.175   1.585  13.253 -0.8144  0.4498 -0.4079
 8597TIP3    H147282   4.260   1.543  13.246 -1.5484 -1.2399  0.3831
 8597TIP3    H247283   4.119   1.538  13.190 -0.8600  2.4800 -2.0011
 8598TIP3   OH247284   1.231   1.692  16.979 -0.1350 -0.3947 -0.2826
 8598TIP3    H147285   1.269   1.738  16.903 -0.6497 -1.0168 -0.9260
 8598TIP3    H247286   1.275   1.607  16.980 -0.9234 -0.8167 -0.5588
 8599TIP3   OH247287   6.092   2.615  13.175 -0.3018 -0.2689 -0.0597
 8599TIP3    H147288   6.181   2.599  13.145 -0.6191 -1.6147 -0.3123
 8599TIP3    H247289   6.068   2.699  13.135  0.7161 -0.0620 -0.2563
 8600TIP3   OH247290   4.335   5.234  12.160 -0.1805  0.5539  0.0973
 8600TIP3    H147291   4.275   5.305  12.184 -0.1543  0.4611  0.4347
 8600TIP3    H247292   4.413   5.279  12.129 -0.5503  0.6797 -0.6789
 8601TIP3   OH247293   4.648   2.309   0.125  0.1743 -0.3112 -0.0701
 8601TIP3    H147294   4.571   2.338   0.077 -0.1174 -1.8395 -0.5682
 8601TIP3    H247295   4.670   2.383   0.182 -1.0994  0.4897 -0.5852
 8602TIP3   OH247296   4.921   0.205  14.978  0.2051 -0.5736 -0.0066
 8602TIP3    H147297   4.968   0.121  14.979 -0.9641 -1.2779  2.1059
 8602TIP3    H247298   4.829   0.180  14.987 -0.7668  0.7496 -4.1301
 8603TIP3   OH247299   0.355   1.184  12.266  0.1324 -0.0837 -0.2034
 8603TIP3    H147300   0.272   1.203  12.223  0.4388  0.3163 -0.6182
 8603TIP3    H247301   0.336   1.194  12.359  0.4817  3.1917 -0.3865
 8604TIP3   OH247302   5.719   3.671  12.156 -0.1143 -0.1543  0.2684
 8604TIP3    H147303   5.811   3.654  12.176 -0.0113  1.3554  1.2572
 8604TIP3    H247304   5.709   3.643  12.065  0.3420 -3.7885  1.1777
 8605TIP3   OH247305   3.804   0.468   1.303  0.0218 -0.7092 -0.2223
 8605TIP3    H147306   3.846   0.541   1.259  1.3882 -1.6961 -0.6411
 8605TIP3    H247307   3.768   0.505   1.384  0.1209  0.5279 -0.7298
 8606TIP3   OH247308   2.015   6.037   2.864 -0.6811 -0.1466 -0.1729
 8606TIP3    H147309   1.939   5.991   2.902  0.5716 -0.7254  1.7988
 8606TIP3    H247310   2.007   6.127   2.897  0.0123 -0.4660  0.9112
 8607TIP3   OH247311   2.742   3.952   2.373 -0.4509  0.1965 -0.1710
 8607TIP3    H147312   2.706   4.033   2.337  2.1574  1.3088 -0.5634
 8607TIP3    H247313   2.728   3.959   2.467 -1.1996  0.5821 -0.3079
 8608TIP3   OH247314   1.862   5.295  12.964 -0.0179 -0.2247  0.5035
 8608TIP3    H147315   1.900   5.315  12.879 -0.1903 -1.4922  0.1105
 8608TIP3    H247316   1.777   5.337  12.964  0.0935 -0.0041  0.1555
 8609TIP3   OH247317   6.285   3.330   1.194  0.3365 -0.2300 -0.2997
 8609TIP3    H147318   6.251   3.241   1.184  1.5272 -0.6221 -1.0199
 8609TIP3    H247319   6.225   3.384   1.143  0.3973 -0.8140 -1.0022
 8610TIP3   OH247320   5.689   2.540   1.464  0.6995  0.5633 -0.8576
 8610TIP3    H147321   5.604   2.496   1.457  0.0644  1.8992 -2.1763
 8610TIP3    H247322   5.687   2.605   1.394  4.1173 -1.4852 -3.1271
 8611TIP3   OH247323   0.205   1.424   2.065  0.0492  0.0776 -0.4352
 8611TIP3    H147324   0.139   1.463   2.123  0.6819  1.5111 -0.6439
 8611TIP3    H247325   0.262   1.497   2.042  0.8093 -0.8343 -1.4980
 8612TIP3   OH247326   0.775   2.680   5.156  0.8061 -0.6277  0.8406
 8612TIP3    H147327   0.786   2.774   5.146 -2.7672  0.0712  2.2666
 8612TIP3    H247328   0.806   2.661   5.245 -0.5292 -0.3623  1.3759
 8613TIP3   OH247329   2.600   4.167   2.292  0.6274  0.3710  0.5098
 8613TIP3    H147330   2.557   4.231   2.348  1.0280  0.0937  1.1485
 8613TIP3    H247331   2.657   4.220   2.235  1.8382  0.5301  1.8108
 8614TIP3   OH247332   2.766   4.696  15.756  0.4552  0.2077  0.3134
 8614TIP3    H147333   2.786   4.691  15.663  0.2929  1.6970  0.1765
 8614TIP3    H247334   2.677   4.730  15.760  0.9160  1.4176  0.9967
 8615TIP3   OH247335   2.637   4.476   5.343  0.2557  0.3010  0.1673
 8615TIP3    H147336   2.672   4.518   5.422  3.0926  2.6921 -2.1229
 8615TIP3    H247337   2.683   4.392   5.338 -2.5999 -1.6622  2.7253
 8616TIP3   OH247338   1.467   1.457  14.344 -0.0486 -0.2475  0.0504
 8616TIP3    H147339   1.407   1.472  14.418 -1.1064  1.0832 -1.0347
 8616TIP3    H247340   1.552   1.440  14.386 -0.1415  2.4553  1.6069
 8617TIP3   OH247341   3.397   0.021  13.810 -0.2000 -0.1767  0.5487
 8617TIP3    H147342   3.487  -0.008  13.829 -0.6757 -1.1214  1.4536
 8617TIP3    H247343   3.397   0.114  13.831  0.1096 -0.5409  2.3516
 8618TIP3   OH247344   0.765   6.007  13.125  0.2643 -0.3815 -0.4679
 8618TIP3    H147345   0.681   6.051  13.112  0.7744  0.6016 -0.5437
 8618TIP3    H247346   0.807   6.057  13.195  0.7440 -0.9393 -0.3524
 8619TIP3   OH247347   1.566   2.395   4.997  0.7596 -0.0096  0.5272
 8619TIP3    H147348   1.488   2.384   4.941  0.5286  1.1678  0.5944
 8619TIP3    H247349   1.599   2.306   5.009 -1.1916 -0.6876  1.3832
 8620TIP3   OH247350   1.539   0.957   3.967  0.2760 -0.1146 -0.5005
 8620TIP3    H147351   1.467   0.904   3.934 -0.6203  0.5443  0.3489
 8620TIP3    H247352   1.552   0.926   4.057  0.2627  0.5752 -0.2599
 8621TIP3   OH247353   1.176   0.548   5.781 -0.1389 -0.7104 -0.1689
 8621TIP3    H147354   1.169   0.472   5.839 -1.5483 -0.8912 -0.5360
 8621TIP3    H247355   1.185   0.510   5.694 -0.7941 -0.4747 -0.3476
 8622TIP3   OH247356   3.901   4.927  11.620 -0.1298 -0.0383  0.5976
 8622TIP3    H147357   3.931   4.921  11.529 -1.3642 -0.3330  0.1950
 8622TIP3    H247358   3.814   4.888  11.619 -0.2257  0.1049  1.8851
 8623TIP3   OH247359   0.357   5.592   1.515  0.2890  0.0161 -0.4855
 8623TIP3    H147360   0.369   5.538   1.436  0.0236 -0.3030 -0.3079
 8623TIP3    H247361   0.304   5.538   1.573  1.8539 -0.4217  0.5833
 8624TIP3   OH247362   1.054   6.529   1.881 -0.5896 -0.1363 -0.5951
 8624TIP3    H147363   1.017   6.442   1.897 -0.3813 -0.0115  0.5776
 8624TIP3    H247364   1.025   6.550   1.792  1.1226 -2.2962 -1.7669
 8625TIP3   OH247365   1.321   1.643   5.928  0.0755 -0.1715  0.2339
 8625TIP3    H147366   1.369   1.595   5.996 -0.0571 -0.0739  0.3977
 8625TIP3    H247367   1.380   1.713   5.901  0.5799 -0.8804 -0.5501
 8626TIP3   OH247368   3.590   3.987  15.938 -0.4426  0.4047  0.1822
 8626TIP3    H147369   3.537   3.910  15.958 -1.8502  1.4857  0.8611
 8626TIP3    H247370   3.614   4.023  16.023  0.1557  0.7431 -0.1242
 8627TIP3   OH247371   1.450   4.595   4.238 -0.3723 -0.4420 -0.7194
 8627TIP3    H147372   1.478   4.596   4.329  0.3466 -1.5226 -0.9028
 8627TIP3    H247373   1.509   4.532   4.196 -0.7826 -0.0707 -1.8994
 8628TIP3   OH247374   3.547   5.730   1.302  0.5097  0.6185 -0.0501
 8628TIP3    H147375   3.637   5.735   1.335  0.7320  0.0852 -0.5610
 8628TIP3    H247376   3.493   5.727   1.381  0.9997 -0.0857  0.2737
 8629TIP3   OH247377   6.474   4.259  13.587  0.1478  0.4869  0.1404
 8629TIP3    H147378   6.419   4.181  13.588 -1.1835  1.3754  1.5391
 8629TIP3    H247379   6.419   4.327  13.626  1.5256  1.9471 -0.3631
 8630TIP3   OH247380   3.565   1.041  13.617 -0.2290  0.3617  0.2126
 8630TIP3    H147381   3.530   1.126  13.647 -0.9263  0.0649  0.2598
 8630TIP3    H247382   3.576   1.052  13.523 -4.3397 -0.7858 -0.6035
 8631TIP3   OH247383   6.230   1.693   2.497  0.2469 -0.1641  0.5952
 8631TIP3    H147384   6.250   1.600   2.503  1.3815  0.0553  0.5449
 8631TIP3    H247385   6.193   1.705   2.410 -0.9491 -0.7333  1.0035
 8632TIP3   OH247386   6.547   1.224   4.808  0.3086 -0.0502  0.1462
 8632TIP3    H147387   6.595   1.306   4.809  1.0098 -0.4421 -0.7188
 8632TIP3    H247388   6.606   1.161   4.849 -0.5879  0.0445  1.6705
 8633TIP3   OH247389   2.798   5.945   4.162  0.5342  0.1958 -0.0852
 8633TIP3    H147390   2.886   5.909   4.163  0.0442 -1.1325 -1.0108
 8633TIP3    H247391   2.786   5.983   4.249  0.6016 -3.2522  1.6051
 8634TIP3   OH247392   2.999   2.002  17.188  0.1317  0.0849  0.1459
 8634TIP3    H147393   3.009   1.920  17.140 -1.6881 -1.5379  2.2904
 8634TIP3    H247394   2.915   1.993  17.233  0.4748  2.6102  1.4744
 8635TIP3   OH247395   4.673   1.330  14.581  0.6076  0.1080  0.0907
 8635TIP3    H147396   4.647   1.254  14.634 -0.5616  0.7268  0.4372
 8635TIP3    H247397   4.761   1.351  14.611 -0.0120  0.4306  1.7908
 8636TIP3   OH247398   5.068   5.927  15.688  0.0228 -0.2873 -0.1027
 8636TIP3    H147399   5.093   5.848  15.640 -0.2941 -1.6947  1.9270
 8636TIP3    H247400   5.137   5.939  15.753 -0.5707  0.3713  0.4331
 8637TIP3   OH247401   2.394   0.273   1.546 -0.5973  0.4494 -0.1605
 8637TIP3    H147402   2.395   0.194   1.600 -2.3880  0.5506  0.0964
 8637TIP3    H247403   2.425   0.342   1.605 -0.0058  0.1080 -0.0719
 8638TIP3   OH247404   4.327   3.251   3.316 -0.4087  0.5161  0.6311
 8638TIP3    H147405   4.361   3.299   3.240 -0.5260 -0.7456 -0.2421
 8638TIP3    H247406   4.233   3.268   3.315 -0.4315  0.3836  0.3960
 8639TIP3   OH247407   2.525   1.829   5.407 -0.0218 -0.0313 -0.2320
 8639TIP3    H147408   2.505   1.781   5.487 -2.0080 -0.1675 -0.7445
 8639TIP3    H247409   2.552   1.915   5.438 -1.5143  0.1812  0.6318
 8640TIP3   OH247410   4.102   3.041   4.415 -0.1930 -0.8129  0.5258
 8640TIP3    H147411   4.191   3.023   4.387  0.9818  0.1740  3.2751
 8640TIP3    H247412   4.088   3.134   4.394  0.1275 -0.4902  1.6450
 8641TIP3   OH247413   0.502   3.101  13.040 -0.2562  0.6480  0.0341
 8641TIP3    H147414   0.459   3.118  13.124 -0.6778  0.2977 -0.1086
 8641TIP3    H247415   0.475   3.175  12.984 -0.2401  0.7102  0.1085
 8642TIP3   OH247416   2.223   2.546  14.709  0.1812 -0.5228 -0.2057
 8642TIP3    H147417   2.280   2.480  14.670  1.6888  0.2325  0.6315
 8642TIP3    H247418   2.214   2.521  14.800 -0.9050 -0.6640 -0.3380
 8643TIP3   OH247419   6.007   4.259  13.566 -0.4479  0.0089  0.3807
 8643TIP3    H147420   5.975   4.345  13.592  2.0347  0.9967  0.4565
 8643TIP3    H247421   5.984   4.251  13.474 -3.0020 -0.4486  0.9806
 8644TIP3   OH247422   4.709   6.724  14.331 -0.3439  0.1310  0.0610
 8644TIP3    H147423   4.758   6.790  14.281 -0.4382 -0.1758 -0.4416
 8644TIP3    H247424   4.718   6.644  14.279 -0.7314 -0.1105  0.3673
 8645TIP3   OH247425   1.252   1.796  12.737 -0.7202 -0.2773 -0.3426
 8645TIP3    H147426   1.313   1.739  12.785 -0.0313  0.1239 -0.7260
 8645TIP3    H247427   1.166   1.758  12.753 -0.5686  0.1453  1.6410
 8646TIP3   OH247428   0.323   5.248   6.063 -0.0073  0.0906  0.2398
 8646TIP3    H147429   0.336   5.292   5.979  0.6449 -0.2102  0.1763
 8646TIP3    H247430   0.264   5.306   6.111  0.8422  1.0638  0.1656
 8647TIP3   OH247431   5.012   0.176   4.029  0.2968  0.4542  0.2217
 8647TIP3    H147432   5.093   0.194   4.076 -0.9152  2.8080  1.6005
 8647TIP3    H247433   5.011   0.238   3.956 -0.1519  0.3098  0.0984
 8648TIP3   OH247434   0.862   6.562  11.549 -0.0076 -0.4262 -0.4383
 8648TIP3    H147435   0.830   6.651  11.565 -0.5242 -0.9138  1.3873
 8648TIP3    H247436   0.881   6.526  11.635  1.6230 -1.6050 -1.2226
 8649TIP3   OH247437   3.600   4.502  17.015 -0.2360  0.2652 -0.1638
 8649TIP3    H147438   3.691   4.484  17.036 -0.0286 -0.0810 -1.2983
 8649TIP3    H247439   3.599   4.516  16.920 -1.4238 -0.1501 -0.2328
 8650TIP3   OH247440   6.115   5.004   5.461  0.1013  0.3612 -0.4251
 8650TIP3    H147441   6.160   5.088   5.463 -0.8463  0.8686  0.3820
 8650TIP3    H247442   6.185   4.939   5.464  0.8738  1.1015 -1.6036
 8651TIP3   OH247443   4.657   6.412   2.042 -0.6473 -0.1623 -0.1650
 8651TIP3    H147444   4.716   6.482   2.014  0.2267 -0.6262  0.4656
 8651TIP3    H247445   4.654   6.352   1.967 -1.0538  0.3163 -0.5406
 8652TIP3   OH247446   4.099   3.204  14.414 -0.5618  0.3607 -0.2790
 8652TIP3    H147447   4.134   3.242  14.495 -0.3457 -0.5981  0.0828
 8652TIP3    H247448   4.135   3.261  14.345  0.2443  0.4749  0.2136
 8653TIP3   OH247449   2.290   5.820  12.899  0.0727  0.1699  0.3982
 8653TIP3    H147450   2.286   5.911  12.928  1.2891 -0.0369  1.2755
 8653TIP3    H247451   2.225   5.814  12.830 -0.2841  1.6158  0.5862
 8654TIP3   OH247452   6.728   6.234   6.646  0.1223  0.1732  0.8590
 8654TIP3    H147453   6.678   6.213   6.567 -0.2156 -0.5185  1.2496
 8654TIP3    H247454   6.751   6.149   6.683  1.7586  0.4782  0.5991
 8655TIP3   OH247455   5.427   4.491  11.072  0.0347  0.0913  0.2202
 8655TIP3    H147456   5.375   4.541  11.009 -0.6320 -0.5503  0.2491
 8655TIP3    H247457   5.517   4.522  11.059 -0.3788  1.4192  0.3514
 8656TIP3   OH247458   3.802   2.318  15.764  0.3941 -0.7876 -0.0562
 8656TIP3    H147459   3.854   2.246  15.800  1.1352 -0.6786 -0.8997
 8656TIP3    H247460   3.858   2.395  15.773 -0.4524 -0.2589  0.9796
 8657TIP3   OH247461   0.932   0.875   2.303 -0.0260  0.1063  0.5982
 8657TIP3    H147462   1.013   0.869   2.352 -0.1912 -2.3785  0.6881
 8657TIP3    H247463   0.949   0.826   2.222 -1.4597 -0.6087  0.6933
 8658TIP3   OH247464   1.409   2.356   0.846 -0.0001  0.5553  0.7255
 8658TIP3    H147465   1.470   2.337   0.775 -1.8707  0.6553 -0.9936
 8658TIP3    H247466   1.446   2.432   0.890  1.5955  0.0205  0.3592
 8659TIP3   OH247467   3.448   0.904   0.465  0.5337 -0.0396  0.3817
 8659TIP3    H147468   3.515   0.961   0.428  1.0630 -0.5195  0.5762
 8659TIP3    H247469   3.444   0.928   0.558  0.1547  0.2595  0.2868
 8660TIP3   OH247470   6.606   0.118  16.729 -0.2623  0.0621  0.1817
 8660TIP3    H147471   6.632   0.181  16.796 -1.8218  0.5773  0.3508
 8660TIP3    H247472   6.560   0.170  16.664  1.0296 -0.4778 -1.1978
 8661TIP3   OH247473   5.259   2.919   1.311  0.2681  0.0175  0.2371
 8661TIP3    H147474   5.237   2.870   1.232 -0.0218  1.0560 -0.3468
 8661TIP3    H247475   5.244   2.857   1.383  0.0392 -0.7755 -0.4772
 8662TIP3   OH247476   3.443   0.445   2.428 -0.9089  0.0473  0.6577
 8662TIP3    H147477   3.529   0.482   2.411 -0.3919 -1.4005 -0.0074
 8662TIP3    H247478   3.397   0.449   2.344 -0.2306 -2.3053  0.1056
 8663TIP3   OH247479   2.331   5.745  17.257 -0.5878  0.1098  0.3485
 8663TIP3    H147480   2.327   5.650  17.268 -1.5557  0.0893 -0.0509
 8663TIP3    H247481   2.374   5.758  17.173 -1.1901 -0.0075  0.0176
 8664TIP3   OH247482   1.292   0.850  12.437  0.1622  0.2401 -0.1345
 8664TIP3    H147483   1.249   0.765  12.445 -0.7603  0.5488 -1.5030
 8664TIP3    H247484   1.331   0.865  12.524 -0.3110 -1.2121  0.3616
 8665TIP3   OH247485   2.145   2.780  14.560 -0.1479 -0.1237  0.5490
 8665TIP3    H147486   2.232   2.765  14.524 -0.4050 -0.5079  0.0712
 8665TIP3    H247487   2.134   2.710  14.624  0.3838  0.6707  1.5375
 8666TIP3   OH247488   5.745   0.548   3.885  0.0858 -0.0823 -0.4682
 8666TIP3    H147489   5.670   0.492   3.865 -0.6096  0.4590  0.5588
 8666TIP3    H247490   5.722   0.634   3.849 -0.8736  0.7202  1.8472
 8667TIP3   OH247491   5.747   3.361   0.822 -0.6754 -0.2388 -0.4133
 8667TIP3    H147492   5.727   3.283   0.770 -0.4812 -0.1655 -0.5991
 8667TIP3    H247493   5.692   3.353   0.900  0.0450 -1.0397  0.0261
 8668TIP3   OH247494   0.764   4.598  11.922 -0.4019  0.6258 -0.1202
 8668TIP3    H147495   0.831   4.614  11.989  0.6117  0.3634 -1.0406
 8668TIP3    H247496   0.693   4.555  11.968 -1.1836  3.3601  1.4851
 8669TIP3   OH247497   5.977   1.384   1.765  0.4753 -0.5858  0.4791
 8669TIP3    H147498   5.964   1.467   1.811  2.4455 -1.2312  2.3824
 8669TIP3    H247499   6.045   1.402   1.700  0.9901 -0.7126  0.9746
 8670TIP3   OH247500   0.815   6.130   3.078  0.1453  0.0455  0.0655
 8670TIP3    H147501   0.745   6.119   3.142  0.9339 -4.3243  0.4524
 8670TIP3    H247502   0.770   6.141   2.995 -0.8995  0.7122  0.6923
 8671TIP3   OH247503   3.666   2.610   2.122 -0.1929  0.1784  0.1509
 8671TIP3    H147504   3.654   2.515   2.123 -3.7550  0.4980  0.9795
 8671TIP3    H247505   3.684   2.633   2.213  0.4883  0.3325 -0.0182
 8672TIP3   OH247506   5.759   4.051  16.489  0.1700 -0.0696  0.2833
 8672TIP3    H147507   5.834   4.089  16.535 -0.5270  0.7461  0.7682
 8672TIP3    H247508   5.697   4.028  16.558 -1.3825  2.2482 -0.2463
 8673TIP3   OH247509   4.002   1.291  12.120 -0.4225 -0.2368 -0.0415
 8673TIP3    H147510   4.087   1.256  12.096 -0.8423 -0.4279 -1.3178
 8673TIP3    H247511   4.021   1.357  12.187  0.5355 -1.5960  1.0888
 8674TIP3   OH247512   5.986   3.800   0.390  0.3520 -0.0371  0.1116
 8674TIP3    H147513   6.009   3.717   0.433  1.7245 -0.0134 -0.5518
 8674TIP3    H247514   5.911   3.778   0.335  0.4597 -0.7477  0.2355
 8675TIP3   OH247515   2.143   5.941  11.772  0.4906 -0.1777 -0.2105
 8675TIP3    H147516   2.231   5.937  11.735  0.2045  0.8465 -1.0539
 8675TIP3    H247517   2.085   5.934  11.695 -0.1255  2.3406 -0.0533
 8676TIP3   OH247518   0.823   2.031   4.480 -0.4521  0.0494 -0.4038
 8676TIP3    H147519   0.741   2.075   4.458 -0.7718  0.2199  1.0669
 8676TIP3    H247520   0.798   1.940   4.499 -0.2865  0.0776 -0.0411
 8677TIP3   OH247521   2.291   0.992   5.313  0.0893  0.0259 -0.0144
 8677TIP3    H147522   2.296   0.915   5.370 -1.9131  0.4595  0.8077
 8677TIP3    H247523   2.243   0.961   5.236 -1.2359  0.5440  0.5692
 8678TIP3   OH247524   3.545   2.004  17.100 -0.7577  0.2251  0.1404
 8678TIP3    H147525   3.511   1.937  17.160 -1.2162 -0.1508 -0.5187
 8678TIP3    H247526   3.467   2.037  17.055 -0.2670 -0.8594 -1.6129
 8679TIP3   OH247527   2.388   2.263  11.327 -0.5715  0.5981  0.1925
 8679TIP3    H147528   2.421   2.353  11.325 -0.4549  0.5449 -0.6457
 8679TIP3    H247529   2.382   2.242  11.420  1.6111  0.6787  0.3979
 8680TIP3   OH247530   0.843   3.887  11.202 -0.0485  0.2044  0.6201
 8680TIP3    H147531   0.767   3.838  11.172 -0.6546  0.5040  1.6199
 8680TIP3    H247532   0.814   3.978  11.203  0.8386  0.5362 -0.5219
 8681TIP3   OH247533   1.862   3.488  13.802  0.7951 -0.2770 -0.7261
 8681TIP3    H147534   1.919   3.564  13.814  0.3199 -0.2072  1.7634
 8681TIP3    H247535   1.835   3.465  13.891 -0.9694 -1.9185 -1.6150
 8682TIP3   OH247536   1.288   4.511   4.012 -0.1463 -0.5086 -0.0248
 8682TIP3    H147537   1.232   4.576   4.055  0.6646 -0.7062  1.3693
 8682TIP3    H247538   1.376   4.547   4.019  0.1281 -1.0593 -0.5819
 8683TIP3   OH247539   5.316   0.845   1.006 -0.2752 -0.2985 -0.3607
 8683TIP3    H147540   5.280   0.879   1.088  0.5243  1.2899 -0.6347
 8683TIP3    H247541   5.374   0.914   0.975 -1.9922 -0.0178 -3.2606
 8684TIP3   OH247542   3.940   6.123  13.957 -0.0616  0.6299  0.2664
 8684TIP3    H147543   3.935   6.144  14.050  0.1359 -0.9288  0.6498
 8684TIP3    H247544   4.010   6.058  13.951 -0.9423 -0.2498 -0.7921
 8685TIP3   OH247545   4.839   0.049  16.756 -0.6564  0.4955  0.4409
 8685TIP3    H147546   4.746   0.065  16.738 -0.1119  1.1926 -2.0483
 8685TIP3    H247547   4.850   0.078  16.847 -2.5199  2.0359  0.2492
 8686TIP3   OH247548   5.290   3.711   1.996  0.1762  0.4755  0.3992
 8686TIP3    H147549   5.237   3.788   2.018 -0.1870  0.1566  0.6579
 8686TIP3    H247550   5.240   3.666   1.929  0.2607  0.3245  0.4370
 8687TIP3   OH247551   3.700   6.597  15.364  0.4709 -0.0461  0.2233
 8687TIP3    H147552   3.781   6.643  15.344  0.4255  0.2560  0.7060
 8687TIP3    H247553   3.727   6.525  15.421  0.6598 -1.1700 -1.2368
 8688TIP3   OH247554   1.327   4.515   0.274 -0.1778 -0.0935 -0.1905
 8688TIP3    H147555   1.257   4.451   0.266  0.5890 -1.0828  0.8181
 8688TIP3    H247556   1.345   4.542   0.184 -1.0459 -0.6926 -0.5544
 8689TIP3   OH247557   0.623   4.955   4.943 -0.6114 -0.0875 -0.1303
 8689TIP3    H147558   0.555   4.911   4.892 -1.2271  0.6066  0.0818
 8689TIP3    H247559   0.641   5.036   4.895 -0.3175 -0.0121  0.1048
 8690TIP3   OH247560   6.112   2.793   2.769  0.8862  0.0304 -0.1686
 8690TIP3    H147561   6.055   2.856   2.813  1.0031 -0.5822  0.9081
 8690TIP3    H247562   6.099   2.712   2.818  0.2381 -0.9682 -1.9244
 8691TIP3   OH247563   5.789   3.189   1.787 -0.4411  0.1069 -0.0360
 8691TIP3    H147564   5.862   3.250   1.790 -0.5677  0.2652 -0.1714
 8691TIP3    H247565   5.798   3.142   1.704  0.8924 -1.6003  1.0039
 8692TIP3   OH247566   0.985   6.530  14.229 -0.1920  0.1717 -0.0053
 8692TIP3    H147567   0.990   6.436  14.209 -2.7916 -0.2842  1.1015
 8692TIP3    H247568   0.985   6.572  14.143 -0.6864 -0.9822 -0.5982
 8693TIP3   OH247569   3.962   4.499   1.859 -0.0637 -0.8044 -0.3161
 8693TIP3    H147570   3.976   4.536   1.772  1.3725 -1.3052 -0.3291
 8693TIP3    H247571   4.024   4.546   1.915 -0.1713 -1.2667  0.1981
 8694TIP3   OH247572   5.491   2.084  11.753  0.0976  0.2369 -0.5001
 8694TIP3    H147573   5.469   1.998  11.789 -0.0667 -0.1878 -1.5894
 8694TIP3    H247574   5.409   2.117  11.718  0.0875  0.9999  0.2010
 8695TIP3   OH247575   4.671   1.948   5.602  0.4339 -0.0588  0.0939
 8695TIP3    H147576   4.746   1.921   5.654  1.9553  1.0454 -1.4261
 8695TIP3    H247577   4.637   2.026   5.646 -0.7928 -1.3598  1.5903
 8696TIP3   OH247578   3.655   3.631   1.648 -0.6131  0.1920 -0.3030
 8696TIP3    H147579   3.698   3.715   1.666  2.6409 -1.4114  0.2456
 8696TIP3    H247580   3.609   3.610   1.729 -0.1434  0.7598  0.1240
 8697TIP3   OH247581   2.884   1.031   2.094  0.2027 -0.1258  0.1426
 8697TIP3    H147582   2.959   0.986   2.056 -0.9449 -0.6266 -1.6866
 8697TIP3    H247583   2.909   1.123   2.097  0.5890 -0.1743 -1.2337
 8698TIP3   OH247584   6.563   4.241  12.138  0.2729  0.3150 -0.4408
 8698TIP3    H147585   6.650   4.205  12.118  0.6543 -0.4789  2.2313
 8698TIP3    H247586   6.571   4.273  12.228 -2.3726 -0.4067  0.1347
 8699TIP3   OH247587   1.049   3.633  13.793  0.5846 -0.3186  0.4036
 8699TIP3    H147588   1.060   3.624  13.699  1.8746 -1.3853  0.6151
 8699TIP3    H247589   1.139   3.632  13.828  0.1020 -1.6226  1.7449
 8700TIP3   OH247590   1.472   0.175   4.373 -0.1004 -0.0104  0.1998
 8700TIP3    H147591   1.476   0.267   4.347  0.5276 -0.0723  0.0726
 8700TIP3    H247592   1.379   0.152   4.365 -0.1524  0.4042 -0.4791
 8701TIP3   OH247593   0.619   4.003   4.767 -0.8320 -0.0990 -0.3643
 8701TIP3    H147594   0.689   3.938   4.774  1.1954  2.0023  0.1114
 8701TIP3    H247595   0.594   4.021   4.858  0.2175  1.3100 -0.3041
 8702TIP3   OH247596   4.225   2.462   0.152  0.2618 -0.3848  0.7916
 8702TIP3    H147597   4.195   2.551   0.136 -0.9186 -0.3720  2.6729
 8702TIP3    H247598   4.289   2.445   0.084 -0.7054  1.2916 -0.6179
 8703TIP3   OH247599   0.970   2.013  11.015 -0.0098 -0.0890 -0.3735
 8703TIP3    H147600   0.902   2.081  11.011  1.1590  1.2368  0.9047
 8703TIP3    H247601   1.021   2.025  10.935  1.0623  1.5755  0.5011
 8704TIP3   OH247602   1.039   1.214   4.053 -0.1310 -0.1337 -0.0644
 8704TIP3    H147603   1.012   1.136   4.103 -1.7186  1.2140  1.3090
 8704TIP3    H247604   1.129   1.230   4.081 -0.1225 -0.8986  0.3967
 8705TIP3   OH247605   3.662   0.098  13.292  0.1831 -0.5429 -0.1267
 8705TIP3    H147606   3.579   0.055  13.272 -0.5367  1.0154 -0.5786
 8705TIP3    H247607   3.709   0.099  13.209 -1.0567  2.1405 -0.9059
 8706TIP3   OH247608   2.466   5.541  14.298  0.0061  0.0183  0.0750
 8706TIP3    H147609   2.525   5.601  14.252  2.9506 -2.2656  0.6036
 8706TIP3    H247610   2.487   5.553  14.390 -0.6314 -0.5973  0.3086
 8707TIP3   OH247611   3.466   0.201   2.550  0.8226 -0.0442 -0.0668
 8707TIP3    H147612   3.457   0.206   2.645 -0.7576 -2.4317 -0.0059
 8707TIP3    H247613   3.466   0.293   2.521  2.3455  0.7767  2.2521
 8708TIP3   OH247614   0.350   5.485  12.458 -0.3218 -0.4290 -0.1585
 8708TIP3    H147615   0.343   5.405  12.510  0.7208 -0.9083 -0.7162
 8708TIP3    H247616   0.329   5.556  12.519  0.5798 -0.9935  0.8431
 8709TIP3   OH247617   6.692   5.902  11.370 -0.0862 -0.1289 -0.1915
 8709TIP3    H147618   6.771   5.942  11.406  0.6118 -1.7026  0.1276
 8709TIP3    H247619   6.701   5.911  11.276 -0.0926  0.7149 -0.1164
 8710TIP3   OH247620   0.973   5.924  14.437 -0.5365  0.4497  0.0680
 8710TIP3    H147621   1.004   5.977  14.510 -1.2211  0.5126  0.3216
 8710TIP3    H247622   0.994   5.834  14.463  0.5078  0.5744 -0.3042
 8711TIP3   OH247623   3.664   2.192   6.157 -0.3435 -0.1879 -0.4985
 8711TIP3    H147624   3.745   2.240   6.138 -0.8344  1.3038  0.8993
 8711TIP3    H247625   3.669   2.175   6.251 -1.4690 -0.4235 -0.4761
 8712TIP3   OH247626   4.465   2.004  12.410  0.5048  0.4838  0.0386
 8712TIP3    H147627   4.385   1.955  12.428  0.5308  0.4786  0.1368
 8712TIP3    H247628   4.447   2.092  12.441  0.3836  0.5917 -0.3233
 8713TIP3   OH247629   1.586   4.434  14.757 -0.2863 -0.2908 -0.3153
 8713TIP3    H147630   1.556   4.515  14.717 -0.8338  0.3957  1.4082
 8713TIP3    H247631   1.510   4.400  14.805  0.4975 -0.7317  0.6656
 8714TIP3   OH247632   5.561   6.399  14.469  0.3361  0.1864  0.4853
 8714TIP3    H147633   5.561   6.372  14.377  0.6178 -0.3604  0.6481
 8714TIP3    H247634   5.490   6.349  14.509 -0.7385  1.4654  0.2710
 8715TIP3   OH247635   6.141   2.641   3.889  0.2500 -0.0465 -0.8533
 8715TIP3    H147636   6.204   2.656   3.959  0.7289 -0.1488 -1.2493
 8715TIP3    H247637   6.167   2.703   3.820  0.9633 -1.2047 -1.6781
 8716TIP3   OH247638   4.002   2.398  16.627 -0.2941 -0.9868 -0.3775
 8716TIP3    H147639   3.938   2.328  16.618 -1.0072 -0.2290 -1.6564
 8716TIP3    H247640   4.006   2.438  16.539  2.0421 -1.0958 -0.3864
 8717TIP3   OH247641   4.755   0.923  12.405 -0.1906  0.2484 -0.0532
 8717TIP3    H147642   4.688   0.991  12.408 -0.2250  0.2458  3.3466
 8717TIP3    H247643   4.706   0.841  12.414 -0.0348 -0.2420 -2.7475
 8718TIP3   OH247644   5.226   6.335  15.394  0.6396 -0.0116  0.3183
 8718TIP3    H147645   5.237   6.424  15.427 -2.1522  0.1858  1.0210
 8718TIP3    H247646   5.172   6.345  15.315  1.1411 -1.0153 -0.1694
 8719TIP3   OH247647   3.344   6.549   4.781 -0.2520 -0.2978 -0.5840
 8719TIP3    H147648   3.336   6.455   4.796 -0.6888  0.2133  3.4959
 8719TIP3    H247649   3.256   6.577   4.754 -0.5261 -0.8395 -0.2588
 8720TIP3   OH247650   5.878   5.519  10.629 -0.4980  0.5037 -0.4311
 8720TIP3    H147651   5.819   5.581  10.669 -0.3397  1.4675 -1.6308
 8720TIP3    H247652   5.851   5.515  10.537 -0.6807 -1.4137 -0.3385
 8721TIP3   OH247653   4.392   2.378   2.785  0.2306  0.2949  0.5999
 8721TIP3    H147654   4.485   2.354   2.788  0.3163  0.6294  0.7642
 8721TIP3    H247655   4.388   2.463   2.830 -0.1156  0.3984  0.3807
 8722TIP3   OH247656   5.167   6.381  16.879 -0.6395  0.3644  0.1648
 8722TIP3    H147657   5.088   6.431  16.862  0.5866  1.6644 -2.1060
 8722TIP3    H247658   5.137   6.290  16.887 -2.6064  1.0773  1.9594
 8723TIP3   OH247659   5.683   5.178   4.319 -0.1706 -0.1711 -0.4831
 8723TIP3    H147660   5.685   5.266   4.282 -2.5805  0.9438  1.6913
 8723TIP3    H247661   5.591   5.163   4.339  0.3169 -2.8104  0.1173
 8724TIP3   OH247662   3.669   0.373   0.579 -0.4353  0.1724  0.8334
 8724TIP3    H147663   3.647   0.462   0.553  0.8586  0.7265  1.5206
 8724TIP3    H247664   3.658   0.372   0.674 -0.9679 -0.5722  0.7741
 8725TIP3   OH247665   0.011   0.421   6.289 -0.1396  0.0926  0.6086
 8725TIP3    H147666   0.010   0.502   6.342 -0.3665 -0.5233  1.5759
 8725TIP3    H247667  -0.081   0.396   6.283 -0.5145  1.7641 -2.7027
 8726TIP3   OH247668   2.479   0.968   0.102  0.1445  0.4342  0.4490
 8726TIP3    H147669   2.414   1.038   0.089 -1.1387 -0.5285  1.3762
 8726TIP3    H247670   2.455   0.901   0.038 -0.3633 -0.2951  1.3649
 8727TIP3   OH247671   5.680   6.542   3.845  0.5561  0.1173 -0.3818
 8727TIP3    H147672   5.774   6.549   3.826  0.3414 -1.1564 -2.1911
 8727TIP3    H247673   5.640   6.522   3.760 -1.3806  0.7312  0.3314
 8728TIP3   OH247674   6.304   3.090  16.877 -0.1792  0.3508 -0.4020
 8728TIP3    H147675   6.305   3.158  16.810  3.4333  0.8907  0.0122
 8728TIP3    H247676   6.240   3.120  16.941 -1.8732  1.0794 -2.3377
 8729TIP3   OH247677   5.037   6.325  13.802 -0.1888  0.0848  0.2655
 8729TIP3    H147678   4.958   6.309  13.750  0.4029 -1.9028 -0.0927
 8729TIP3    H247679   5.101   6.262  13.769  0.4915 -0.6680  2.8141
 8730TIP3   OH247680   0.383   1.619   5.656 -0.2247  0.1238 -0.5153
 8730TIP3    H147681   0.418   1.680   5.591  1.1398 -2.4749 -2.4570
 8730TIP3    H247682   0.393   1.664   5.739  1.7568  2.0925 -1.6917
 8731TIP3   OH247683   4.547   1.581  14.665  0.1952  0.2868  0.4705
 8731TIP3    H147684   4.480   1.568  14.599  0.4548 -0.6168  0.3662
 8731TIP3    H247685   4.612   1.514  14.646  0.4900  0.3084  1.3642
 8732TIP3   OH247686   5.665   1.415  17.294 -0.0671 -0.8267  0.2456
 8732TIP3    H147687   5.647   1.326  17.326 -2.9380  0.5582  2.9936
 8732TIP3    H247688   5.732   1.449  17.353 -0.0942 -0.6440  0.1728
 8733TIP3   OH247689   5.121   6.288  10.465 -0.5700 -0.3455  0.4846
 8733TIP3    H147690   5.146   6.222  10.401 -0.7717 -0.9837  1.0401
 8733TIP3    H247691   5.124   6.241  10.549 -1.9800 -0.0085  0.7461
 8734TIP3   OH247692   6.425   4.244  14.410  0.1413 -0.2869  0.3762
 8734TIP3    H147693   6.518   4.232  14.392 -0.2618 -1.3125 -1.2713
 8734TIP3    H247694   6.389   4.279  14.329 -1.1152 -1.1524  0.5213
 8735TIP3   OH247695   1.115   0.548  13.060 -0.0286  0.3119 -0.1102
 8735TIP3    H147696   1.127   0.461  13.097  1.2737 -0.0582 -1.3043
 8735TIP3    H247697   1.031   0.545  13.015  0.2572 -0.5256 -0.6118
 8736TIP3   OH247698   0.587   5.149  13.915 -0.0046  0.2187 -0.2790
 8736TIP3    H147699   0.578   5.231  13.962  0.5368  0.8402 -1.2235
 8736TIP3    H247700   0.647   5.097  13.968  1.5591  1.3723 -0.8445
 8737TIP3   OH247701   6.576   5.376   1.937  0.5268 -0.2564 -0.2232
 8737TIP3    H147702   6.653   5.411   1.894  1.5071 -0.2812  1.4100
 8737TIP3    H247703   6.504   5.394   1.877  1.7805 -0.1308 -1.7323
 8738TIP3   OH247704   0.594   5.662  11.111  0.1739  0.1490  0.4993
 8738TIP3    H147705   0.563   5.659  11.202  1.5973 -0.6197  0.9960
 8738TIP3    H247706   0.597   5.570  11.084 -1.9414  0.4385 -0.9861
 8739TIP3   OH247707   5.177   2.044   0.111  0.1097 -0.1317  0.5832
 8739TIP3    H147708   5.119   1.971   0.091 -0.1570  0.7745 -2.6511
 8739TIP3    H247709   5.251   2.032   0.052  0.3539  1.8387  0.4199
 8740TIP3   OH247710   5.553   0.978   0.286  0.8361  0.3545 -0.1700
 8740TIP3    H147711   5.508   0.967   0.370 -1.3454  1.9368 -1.0520
 8740TIP3    H247712   5.518   0.908   0.231  1.3498  0.0682 -0.1386
 8741TIP3   OH247713   4.952   0.778  15.397 -0.9376  1.0841  0.0432
 8741TIP3    H147714   5.027   0.740  15.442 -0.3013 -0.1029 -1.8768
 8741TIP3    H247715   4.876   0.734  15.433 -0.5816  1.2178  0.9678
 8742TIP3   OH247716   1.912   4.633  12.064  0.6953  0.4968 -0.1802
 8742TIP3    H147717   1.818   4.646  12.059  0.5751 -0.4497 -3.9623
 8742TIP3    H247718   1.925   4.573  12.137 -1.4869  1.4277  1.0334
 8743TIP3   OH247719   2.493   2.698  13.861 -0.0916 -0.1285  0.0264
 8743TIP3    H147720   2.547   2.709  13.783  0.8667 -1.1904  0.5146
 8743TIP3    H247721   2.472   2.787  13.888  0.4186  0.2774 -0.8576
 8744TIP3   OH247722   4.672   3.153   2.232 -0.0484  0.1691  0.3062
 8744TIP3    H147723   4.590   3.153   2.281  1.1957 -1.8950  2.6013
 8744TIP3    H247724   4.653   3.099   2.155 -1.5340  1.9458 -0.6444
 8745TIP3   OH247725   1.522   4.922  13.245  0.5278  0.2985  0.0055
 8745TIP3    H147726   1.598   4.864  13.245 -0.1117 -0.5692 -0.4262
 8745TIP3    H247727   1.447   4.864  13.257 -0.1007  1.0914  0.0430
 8746TIP3   OH247728   5.485   6.620  14.118 -0.1472 -0.6760  0.1476
 8746TIP3    H147729   5.437   6.694  14.080  0.5389 -0.9095 -1.2509
 8746TIP3    H247730   5.511   6.567  14.042  0.9804 -1.3581  0.9791
 8747TIP3   OH247731   0.504   1.531   3.452 -0.1315 -0.5894 -0.2075
 8747TIP3    H147732   0.455   1.495   3.526  1.2447 -1.3531  0.3644
 8747TIP3    H247733   0.525   1.455   3.398  1.2699 -0.4250  0.0816
 8748TIP3   OH247734   6.339   4.805   2.623 -0.0834  0.4482 -0.2748
 8748TIP3    H147735   6.318   4.758   2.703  1.1091  0.4315  0.0396
 8748TIP3    H247736   6.332   4.739   2.554  0.7905 -0.0105  0.0642
 8749TIP3   OH247737   5.398   0.938  16.871  0.4815 -0.0111  0.1481
 8749TIP3    H147738   5.423   0.930  16.963  0.1260  0.2263  0.2681
 8749TIP3    H247739   5.303   0.932  16.872  0.5657 -2.6726 -0.4799
 8750TIP3   OH247740   6.308   0.143  14.250  0.2740  0.4431 -0.8587
 8750TIP3    H147741   6.302   0.182  14.163 -3.1691 -0.0759 -1.0094
 8750TIP3    H247742   6.314   0.049  14.235  1.4254  0.4500 -0.5062
 8751TIP3   OH247743   1.800   1.236  16.403  0.1377  0.0893 -0.4724
 8751TIP3    H147744   1.771   1.315  16.358 -0.3519  0.6450  0.7586
 8751TIP3    H247745   1.788   1.256  16.496  1.8810 -0.7023 -0.0446
 8752TIP3   OH247746   4.542   3.912   5.037 -0.6679 -0.0639 -0.1158
 8752TIP3    H147747   4.613   3.853   5.063  0.0153  0.0022 -1.7014
 8752TIP3    H247748   4.564   3.995   5.079 -1.0801 -0.6348  1.2879
 8753TIP3   OH247749   1.557   6.215   0.715 -0.3977 -0.4607 -0.3778
 8753TIP3    H147750   1.467   6.220   0.747 -1.2796 -0.7789 -2.5722
 8753TIP3    H247751   1.575   6.302   0.679  0.5548 -0.1007  0.9249
 8754TIP3   OH247752   4.136   2.918  11.617 -0.0070 -0.2682 -0.1653
 8754TIP3    H147753   4.147   2.842  11.673  1.4421 -0.8239 -1.1480
 8754TIP3    H247754   4.166   2.889  11.531 -1.8653  0.6522 -1.1888
 8755TIP3   OH247755   2.297   0.479  14.883 -0.1083 -0.4912  0.3025
 8755TIP3    H147756   2.249   0.518  14.956  1.2837  0.8213  0.5665
 8755TIP3    H247757   2.332   0.397  14.918  2.1526  1.0056  1.8136
 8756TIP3   OH247758   4.539   4.369  10.440 -0.0695  0.3483 -0.5407
 8756TIP3    H147759   4.475   4.366  10.512  1.5313 -0.1650  0.9233
 8756TIP3    H247760   4.601   4.437  10.467  0.1208  0.7283 -1.8694
 8757TIP3   OH247761   1.186   4.685  14.463 -0.0435 -0.3794  0.6123
 8757TIP3    H147762   1.248   4.625  14.503 -0.6573 -1.2866  0.2462
 8757TIP3    H247763   1.118   4.628  14.427 -0.3489  0.5045 -0.2539
 8758TIP3   OH247764   6.419   0.642   5.197  0.0761  0.0135 -0.2467
 8758TIP3    H147765   6.323   0.647   5.199  0.1101  1.1380  1.3599
 8758TIP3    H247766   6.439   0.587   5.122 -1.8462 -0.6517 -0.3327
 8759TIP3   OH247767   1.356   0.260  13.296 -0.0217  0.3051 -0.2758
 8759TIP3    H147768   1.361   0.165  13.288  0.1032  0.0239  2.4241
 8759TIP3    H247769   1.386   0.279  13.385  2.1243  3.0724 -1.4098
 8760TIP3   OH247770   5.742   5.912  11.967 -0.7453 -1.3948 -0.0038
 8760TIP3    H147771   5.658   5.872  11.943 -0.8578 -0.7939 -0.6134
 8760TIP3    H247772   5.729   6.005  11.952 -0.5693 -1.0708  1.6781
 8761TIP3   OH247773   4.790   2.488   0.569 -0.0015  0.2682 -0.1690
 8761TIP3    H147774   4.766   2.570   0.613 -2.7116 -0.2620 -0.4645
 8761TIP3    H247775   4.881   2.501   0.542  0.6229  1.9971  2.3817
 8762TIP3   OH247776   3.856   4.009   5.300  0.5753  0.4706 -0.1516
 8762TIP3    H147777   3.767   3.973   5.301  1.5093 -2.0783 -0.2137
 8762TIP3    H247778   3.856   4.072   5.229 -1.0063  0.0573 -0.5659
 8763TIP3   OH247779   6.057   3.974   1.807  0.0800 -0.1955  0.3079
 8763TIP3    H147780   6.052   3.934   1.894 -1.1314 -0.5489  0.1066
 8763TIP3    H247781   5.966   3.999   1.788  0.4382  0.4766 -0.5814
 8764TIP3   OH247782   5.708   1.918  14.092  0.0015  0.6393  0.1157
 8764TIP3    H147783   5.654   1.872  14.155  1.7776  0.0079  1.2662
 8764TIP3    H247784   5.651   1.984  14.054 -1.9600 -0.9709  0.1448
 8765TIP3   OH247785   6.033   1.895   5.291 -0.5153 -0.5443  0.0223
 8765TIP3    H147786   5.963   1.869   5.232 -0.5534  2.1842 -1.2777
 8765TIP3    H247787   6.048   1.818   5.347 -2.6725 -2.0970 -1.4120
 8766TIP3   OH247788   5.376   4.968  17.196  0.6010  0.2323 -0.3897
 8766TIP3    H147789   5.424   4.903  17.145 -0.4211  0.0193 -1.1008
 8766TIP3    H247790   5.351   4.921  17.276  0.3065 -0.1044 -0.6752
 8767TIP3   OH247791   5.073   5.675  13.998 -0.1088  0.0605  0.2463
 8767TIP3    H147792   5.063   5.581  14.012  0.7952  0.1058  1.2988
 8767TIP3    H247793   5.104   5.709  14.081 -0.1916  1.2620 -0.1956
 8768TIP3   OH247794   6.659   3.012  13.497  0.2102 -0.9991  0.1253
 8768TIP3    H147795   6.589   2.989  13.435 -0.4822 -1.5323  1.0876
 8768TIP3    H247796   6.634   2.969  13.579 -1.4718  3.4082  2.2846
 8769TIP3   OH247797   0.231   5.080   0.395 -0.3427  0.3597  0.0655
 8769TIP3    H147798   0.239   5.130   0.313 -0.6419 -1.4131 -1.1004
 8769TIP3    H247799   0.310   5.100   0.444  0.2573  0.7856 -1.0560
 8770TIP3   OH247800   3.256   5.873  13.026 -0.2662 -0.2320 -0.3859
 8770TIP3    H147801   3.244   5.874  12.931  0.4864  1.9379 -0.5229
 8770TIP3    H247802   3.351   5.864  13.038 -0.4469 -1.4867  0.2029
 8771TIP3   OH247803   0.315   6.055   3.062 -0.2187  0.4086  0.2311
 8771TIP3    H147804   0.232   6.010   3.051  0.0610 -0.1531  0.3658
 8771TIP3    H247805   0.375   5.988   3.095  0.1823  0.8998  0.5353
 8772TIP3   OH247806   1.416   3.274  15.642  0.5622  0.1501 -0.0692
 8772TIP3    H147807   1.460   3.227  15.571 -1.4762 -0.9620 -0.6984
 8772TIP3    H247808   1.367   3.206  15.688 -0.0556  1.2289  0.9096
 8773TIP3   OH247809   4.011   6.550   3.439  0.3395  0.0769 -0.0868
 8773TIP3    H147810   4.070   6.625   3.430 -0.4197  0.7234  0.1577
 8773TIP3    H247811   4.031   6.514   3.525 -0.3772  0.9837  0.4799
 8774TIP3   OH247812   4.526   2.473  10.766 -0.0491  0.0716 -0.0956
 8774TIP3    H147813   4.546   2.454  10.674 -0.6910 -0.8796 -0.0498
 8774TIP3    H247814   4.478   2.396  10.797 -0.1173  0.5162  0.9547
 8775TIP3   OH247815   4.528   1.544  13.620  0.2658  0.4688 -0.7410
 8775TIP3    H147816   4.475   1.615  13.585 -2.0260 -0.8129 -0.0690
 8775TIP3    H247817   4.582   1.516  13.546  1.5384  3.0764 -0.9138
 8776TIP3   OH247818   2.015   2.982  12.300  0.4341  0.0226 -0.5640
 8776TIP3    H147819   1.962   3.019  12.370  0.9500 -0.8297  0.2849
 8776TIP3    H247820   1.952   2.939  12.243  0.1903 -0.8955  0.3820
 8777TIP3   OH247821   3.318   1.702  11.691  0.1556 -0.1185 -0.0238
 8777TIP3    H147822   3.354   1.754  11.763  0.3704 -0.2373 -0.0469
 8777TIP3    H247823   3.254   1.760  11.650 -1.5917 -0.7734  1.6192
 8778TIP3   OH247824   1.988   3.093   2.464 -1.3770 -0.3309  0.3582
 8778TIP3    H147825   2.035   3.144   2.530 -1.4505  0.2284 -0.0147
 8778TIP3    H247826   1.987   3.004   2.499 -1.2720 -0.0748  1.0361
 8779TIP3   OH247827   6.296   0.361  15.960  0.1833  0.1165 -0.0335
 8779TIP3    H147828   6.333   0.434  16.009 -0.7201 -0.0447  0.9268
 8779TIP3    H247829   6.351   0.286  15.982  0.6682  0.3476 -0.4426
 8780TIP3   OH247830   6.424   1.743   0.617 -0.3325 -0.2075  0.1555
 8780TIP3    H147831   6.481   1.689   0.562 -0.5430 -0.2068 -0.0619
 8780TIP3    H247832   6.465   1.740   0.703 -0.7673 -1.3621  0.3372
 8781TIP3   OH247833   5.867   3.083   3.829 -0.3459  0.1812 -0.3519
 8781TIP3    H147834   5.919   3.034   3.893 -0.7835 -1.2471 -1.0544
 8781TIP3    H247835   5.929   3.142   3.788  0.1801  0.2992  0.5760
 8782TIP3   OH247836   1.447   6.363   1.399  0.3154 -0.0794 -0.2313
 8782TIP3    H147837   1.525   6.313   1.424 -0.9785 -2.0830  0.0290
 8782TIP3    H247838   1.452   6.443   1.451  0.5347 -1.6563  2.3144
 8783TIP3   OH247839   3.652   3.533   2.837 -0.0784  0.1213  0.4436
 8783TIP3    H147840   3.666   3.622   2.871 -4.2740  1.1824 -0.1232
 8783TIP3    H247841   3.635   3.545   2.744 -0.7770 -1.2904  0.3667
 8784TIP3   OH247842   1.410   4.144  16.857  0.1709  0.2215  0.0330
 8784TIP3    H147843   1.453   4.070  16.901 -0.9329 -0.9093 -0.7065
 8784TIP3    H247844   1.465   4.219  16.878  2.7342 -1.1782 -1.1403
 8785TIP3   OH247845   1.243   4.352   4.310 -0.4787  0.5362 -0.0030
 8785TIP3    H147846   1.284   4.377   4.393 -0.1367  0.0268 -0.0157
 8785TIP3    H247847   1.299   4.392   4.243  0.9175 -1.3797 -0.0795
 8786TIP3   OH247848   4.575   3.636  12.748 -0.3806  0.0337 -0.0489
 8786TIP3    H147849   4.540   3.562  12.797  1.8299 -0.4622  0.9460
 8786TIP3    H247850   4.511   3.706  12.760 -0.8812 -0.6928  1.9075
 8787TIP3   OH247851   0.710   0.715   3.102 -0.1602  0.2022  0.6184
 8787TIP3    H147852   0.744   0.803   3.091 -0.2826  0.3899  1.6162
 8787TIP3    H247853   0.780   0.667   3.147  1.1947 -1.1312 -2.5994
 8788TIP3   OH247854   3.911   5.057   0.763  0.3712 -0.1136  0.0681
 8788TIP3    H147855   3.972   5.113   0.715  1.7128 -0.0059  1.7944
 8788TIP3    H247856   3.825   5.091   0.739  1.0714  1.4837 -0.3961
 8789TIP3   OH247857   3.788   0.706  12.638  0.1111 -1.3720 -0.0093
 8789TIP3    H147858   3.717   0.764  12.613  0.0407 -0.8172  1.3638
 8789TIP3    H247859   3.832   0.684  12.556 -0.3187  0.0198 -0.6289
 8790TIP3   OH247860   4.401   4.913  12.509 -0.0579  0.2317  0.1912
 8790TIP3    H147861   4.343   4.987  12.492 -0.0615  0.5848  1.6094
 8790TIP3    H247862   4.487   4.953  12.523 -0.1218  0.0160  1.2812
 8791TIP3   OH247863   0.282   0.758  12.034  0.4489  0.2154 -0.4546
 8791TIP3    H147864   0.202   0.770  11.982 -0.1429  0.2244  0.4254
 8791TIP3    H247865   0.252   0.763  12.124  1.0038 -2.3843 -0.0450
 8792TIP3   OH247866   0.892   1.860  15.296 -0.0479 -0.2413  0.1371
 8792TIP3    H147867   0.940   1.923  15.241 -1.6013  0.3031 -0.6682
 8792TIP3    H247868   0.893   1.898  15.383  0.7756 -0.1243  0.0814
 8793TIP3   OH247869   3.647   5.130  15.545 -0.4826 -0.1731 -0.4613
 8793TIP3    H147870   3.732   5.152  15.509 -0.1805 -0.6127 -0.0325
 8793TIP3    H247871   3.666   5.068  15.616 -1.1238  0.0114 -0.1189
 8794TIP3   OH247872   6.412   4.101  16.100 -0.3921  0.0643 -0.2736
 8794TIP3    H147873   6.360   4.025  16.075 -0.7126 -0.4500  1.7648
 8794TIP3    H247874   6.365   4.138  16.175  2.7782 -1.2550  2.6279
 8795TIP3   OH247875   4.444   0.676   1.327 -0.9079 -0.0755 -0.0452
 8795TIP3    H147876   4.409   0.587   1.336 -1.9848  0.4068  0.7338
 8795TIP3    H247877   4.375   0.724   1.281 -1.2690  0.8499  1.3739
 8796TIP3   OH247878   4.321   6.377   5.866 -0.4651  0.2795 -0.1790
 8796TIP3    H147879   4.292   6.400   5.954 -1.5833  1.6911 -0.8746
 8796TIP3    H247880   4.321   6.460   5.818  0.4125 -0.4151 -1.4313
 8797TIP3   OH247881   3.932   5.635  13.210  0.1157 -0.5445  0.1880
 8797TIP3    H147882   3.913   5.628  13.304 -1.7436  0.3380 -0.0871
 8797TIP3    H247883   3.937   5.729  13.194  0.4130 -0.6950 -0.6098
 8798TIP3   OH247884   3.820   1.744   2.505  0.7396 -0.3508 -0.0504
 8798TIP3    H147885   3.838   1.792   2.586 -1.7557 -0.8283  0.8747
 8798TIP3    H247886   3.895   1.686   2.495  1.6231  0.4843  1.3122
 8799TIP3   OH247887   2.428   4.467  16.329  0.2572 -0.5686  0.4669
 8799TIP3    H147888   2.491   4.515  16.383 -0.5884  1.2632 -0.0892
 8799TIP3    H247889   2.462   4.477  16.240 -0.7880  0.4591  0.1613
 8800TIP3   OH247890   5.775   1.271   3.517  0.2114  0.7163  0.0283
 8800TIP3    H147891   5.821   1.284   3.600  1.4933 -2.9158  0.0581
 8800TIP3    H247892   5.700   1.217   3.539 -0.4367  1.1620 -0.9899
 8801TIP3   OH247893   0.865   0.232   3.392  0.2957  0.2626 -0.6085
 8801TIP3    H147894   0.821   0.222   3.307 -1.1593  1.6735 -0.0644
 8801TIP3    H247895   0.927   0.303   3.379 -0.0995  0.6422 -0.4350
 8802TIP3   OH247896   1.523   3.486  15.791  0.5499 -0.9177 -0.0714
 8802TIP3    H147897   1.493   3.400  15.761  1.7945 -1.8229  1.1088
 8802TIP3    H247898   1.443   3.537  15.800 -0.0824 -1.3672 -2.4206
 8803TIP3   OH247899   4.713   6.491  14.760  0.3203  0.5264 -0.2940
 8803TIP3    H147900   4.698   6.463  14.850  2.0876 -0.0494 -0.1331
 8803TIP3    H247901   4.693   6.584  14.760  2.3694  1.0416  1.2920
 8804TIP3   OH247902   4.033   5.712   0.805  0.0613 -0.0800 -0.0929
 8804TIP3    H147903   3.966   5.652   0.838  1.2648 -2.0791 -1.0970
 8804TIP3    H247904   3.995   5.751   0.727  0.1446 -1.4666 -0.8577
 8805TIP3   OH247905   6.420   1.801  12.669  0.3862  0.2762 -0.5519
 8805TIP3    H147906   6.477   1.813  12.593 -0.8708  2.6117 -1.2437
 8805TIP3    H247907   6.336   1.775  12.632  0.3413 -0.7910  0.2546
 8806TIP3   OH247908   2.481   3.624  14.723  0.4082  0.4429 -0.5201
 8806TIP3    H147909   2.403   3.632  14.668  0.1889 -1.5325 -0.5677
 8806TIP3    H247910   2.507   3.714  14.741 -0.2568  1.1651 -2.7885
 8807TIP3   OH247911   4.104   2.797  16.945 -0.4247  0.2778  0.2565
 8807TIP3    H147912   4.138   2.733  17.008  0.3862  1.1151  0.6930
 8807TIP3    H247913   4.165   2.870  16.950 -0.6580  0.5866 -1.1210
 8808TIP3   OH247914   4.960   5.191   0.545  0.7222 -0.2018 -0.0709
 8808TIP3    H147915   4.955   5.263   0.607 -0.0029 -1.2382  1.1379
 8808TIP3    H247916   4.912   5.221   0.469  0.9114  0.7969  0.1931
 8809TIP3   OH247917   5.696   1.294   3.832 -0.2308  0.9081  0.1308
 8809TIP3    H147918   5.704   1.304   3.927 -1.6292  0.2855  0.3413
 8809TIP3    H247919   5.614   1.337   3.811 -0.6216 -0.1528 -0.5886
 8810TIP3   OH247920   0.197   0.781  12.304 -0.0741 -0.8240 -0.1165
 8810TIP3    H147921   0.104   0.772  12.286 -0.5602 -0.3574  1.8618
 8810TIP3    H247922   0.203   0.774  12.400  1.9268 -0.8884 -0.2141
 8811TIP3   OH247923   5.258   3.735   5.581  0.2420  0.3584  0.3260
 8811TIP3    H147924   5.241   3.715   5.489 -3.3749  2.0373  0.4559
 8811TIP3    H247925   5.301   3.820   5.579 -0.5362  0.7647  0.1333
 8812TIP3   OH247926   4.302   5.687   0.836  0.0321  0.1599  0.0304
 8812TIP3    H147927   4.288   5.710   0.928  1.6555  2.1656 -0.1548
 8812TIP3    H247928   4.220   5.711   0.793 -0.0508  1.1154  0.6704
 8813TIP3   OH247929   2.263   0.060  17.225 -0.3635  0.0903  0.3892
 8813TIP3    H147930   2.341   0.084  17.276 -0.1575 -0.5467  0.3781
 8813TIP3    H247931   2.297   0.010  17.152 -0.8301 -0.7146  0.7092
 8814TIP3   OH247932   2.174   5.803  16.511 -0.5261 -0.4878  0.2563
 8814TIP3    H147933   2.267   5.823  16.526 -0.7080 -0.7193  1.7712
 8814TIP3    H247934   2.138   5.885  16.476  0.4191 -0.6689 -1.2254
 8815TIP3   OH247935   1.696   6.752   3.612 -0.4141 -0.0324 -0.8416
 8815TIP3    H147936   1.675   6.840   3.644  0.6828  0.2889 -0.9599
 8815TIP3    H247937   1.709   6.763   3.518 -0.3546 -0.3286 -0.8682
 8816TIP3   OH247938   0.654   2.913   5.765 -0.0502 -0.3213  0.0540
 8816TIP3    H147939   0.594   2.982   5.736 -0.2273 -0.0881  0.9187
 8816TIP3    H247940   0.599   2.853   5.815  0.4994  0.1673  1.2947
 8817TIP3   OH247941   6.547   4.555   4.413  0.3344  0.4726  0.0843
 8817TIP3    H147942   6.461   4.596   4.409 -1.5737 -2.9852  1.0976
 8817TIP3    H247943   6.580   4.576   4.500 -1.2447 -1.0767  1.1281
 8818TIP3   OH247944   2.141   3.550   6.323 -0.1612  0.4240 -0.4759
 8818TIP3    H147945   2.052   3.579   6.304  0.2752  2.3356  0.1898
 8818TIP3    H247946   2.131   3.489   6.397 -1.1167 -1.4244 -2.0296
 8819TIP3   OH247947   5.824   0.182   5.337  0.4134 -0.3591  0.1319
 8819TIP3    H147948   5.804   0.184   5.431 -0.8651  1.0685 -0.1177
 8819TIP3    H247949   5.890   0.250   5.325  0.2689 -0.2534 -0.0650
 8820TIP3   OH247950   3.627   6.040  11.023 -0.1506  0.0639 -0.2199
 8820TIP3    H147951   3.575   6.116  11.001 -1.3855 -0.9832 -1.0541
 8820TIP3    H247952   3.608   5.976  10.955  1.6886 -0.6298 -0.1547
 8821TIP3   OH247953   6.620   5.601  15.732  0.0282 -0.0132 -0.1206
 8821TIP3    H147954   6.543   5.602  15.790  0.9034  1.4088  1.0829
 8821TIP3    H247955   6.675   5.673  15.764  1.6635 -0.7184 -1.2356
 8822TIP3   OH247956   0.361   4.795   5.821  0.2984  0.5399  0.1837
 8822TIP3    H147957   0.288   4.763   5.876  0.6596 -1.8432 -0.6216
 8822TIP3    H247958   0.418   4.841   5.883  0.0169 -0.9056  1.6107
 8823TIP3   OH247959   5.034   2.340   3.722 -0.3780 -0.4235 -0.7886
 8823TIP3    H147960   5.087   2.313   3.797 -2.2794 -0.6978  0.5294
 8823TIP3    H247961   5.090   2.399   3.672  1.8227 -2.1529 -0.5218
 8824TIP3   OH247962   0.491   1.437  16.736  0.0253  0.0136 -0.4023
 8824TIP3    H147963   0.539   1.403  16.812 -1.4801 -0.0649  0.5483
 8824TIP3    H247964   0.406   1.463  16.771 -0.2311  1.2138 -1.8358
 8825TIP3   OH247965   1.273   6.424   6.147  0.0048  0.2531  0.5048
 8825TIP3    H147966   1.271   6.447   6.240  0.4886  3.4063 -0.1660
 8825TIP3    H247967   1.346   6.363   6.139  1.5759  1.8593  1.8628
 8826TIP3   OH247968   1.332   1.234  10.885 -0.7069 -0.9426  0.2432
 8826TIP3    H147969   1.270   1.241  10.812  1.0775  0.1199 -1.2694
 8826TIP3    H247970   1.281   1.255  10.962 -1.9313  1.4713 -1.1201
 8827TIP3   OH247971   3.139   2.504   6.813  0.4360 -0.4191  0.1114
 8827TIP3    H147972   3.231   2.493   6.838  0.3827  0.0064  0.5040
 8827TIP3    H247973   3.096   2.533   6.893  0.1370  0.3111 -0.3095
 8828TIP3   OH247974   2.825   2.890  17.203 -0.0768 -0.1928  0.0774
 8828TIP3    H147975   2.898   2.865  17.261  0.1071 -0.7402 -0.3826
 8828TIP3    H247976   2.830   2.985  17.198  0.5510 -0.2185  0.1228
 8829TIP3   OH247977   5.978   5.062   5.144 -0.0689  0.1847  0.5703
 8829TIP3    H147978   6.020   5.048   5.228 -0.8066  1.6212  1.2148
 8829TIP3    H247979   6.050   5.068   5.081  0.4267 -2.6887  0.7460
 8830TIP3   OH247980   5.534   5.488  14.173  0.0795  0.0419  0.0761
 8830TIP3    H147981   5.477   5.553  14.131  0.5230 -0.6856 -1.7519
 8830TIP3    H247982   5.619   5.500  14.131  1.3289  1.0344  2.6853
 8831TIP3   OH247983   2.119   5.479  14.523  0.0890 -0.1607 -0.9542
 8831TIP3    H147984   2.046   5.528  14.560 -0.5389 -2.0997  0.5699
 8831TIP3    H247985   2.080   5.427  14.453  0.1310 -0.6697 -0.6066
 8832TIP3   OH247986   1.062   1.474  15.437 -0.5326 -0.0626  0.3904
 8832TIP3    H147987   1.103   1.393  15.404 -1.8822 -0.5425 -0.1615
 8832TIP3    H247988   0.969   1.454  15.440 -0.9361  1.6248 -0.1412
 8833TIP3   OH247989   0.638   1.464  11.971 -0.9374 -0.0637  0.1526
 8833TIP3    H147990   0.593   1.515  11.903  0.9441  0.6065 -0.6554
 8833TIP3    H247991   0.646   1.377  11.934  1.9090  0.7839 -1.4883
 8834TIP3   OH247992   5.615   4.841   5.709 -0.0385 -0.2430 -0.7508
 8834TIP3    H147993   5.657   4.821   5.793 -0.8239  1.4452  0.0826
 8834TIP3    H247994   5.652   4.777   5.648  2.5085  0.1206  0.2917
 8835TIP3   OH247995   0.595   1.640   1.183 -0.3816  0.1860  0.1634
 8835TIP3    H147996   0.674   1.624   1.234 -0.0748  0.0278 -0.3535
 8835TIP3    H247997   0.580   1.559   1.135 -0.4157  0.4778 -0.3282
 8836TIP3   OH247998   3.604   5.760  13.386  0.4027  0.0029  0.0057
 8836TIP3    H147999   3.636   5.800  13.466  1.1643 -0.1502 -0.2153
 8836TIP3    H248000   3.585   5.669  13.410 -1.6729  0.5565  0.5979
 8837TIP3   OH248001   2.296   1.766   3.524 -0.4911 -0.2037  0.6334
 8837TIP3    H148002   2.235   1.785   3.596 -1.0440  0.4899 -0.0048
 8837TIP3    H248003   2.376   1.813   3.547 -1.0762  1.0554  0.2090
 8838TIP3   OH248004   5.433   2.276   4.502 -0.2951  0.3430 -0.6732
 8838TIP3    H148005   5.473   2.255   4.418  0.0717 -0.0167 -0.4113
 8838TIP3    H248006   5.348   2.313   4.479  0.2440  1.2735 -1.2350
 8839TIP3   OH248007   5.766   3.195  13.413 -0.5967  0.7896 -0.6230
 8839TIP3    H148008   5.852   3.204  13.454 -0.9864 -0.5110  0.5673
 8839TIP3    H248009   5.784   3.201  13.319  1.0113 -0.7942 -0.4785
 8840TIP3   OH248010   4.765   6.637   1.082 -0.3258  1.1164  0.2807
 8840TIP3    H148011   4.851   6.646   1.041  1.0390 -0.6288  2.5234
 8840TIP3    H248012   4.712   6.705   1.041  1.6553  1.2989 -2.2782
 8841TIP3   OH248013   5.423   2.699  14.248 -0.1731  0.2381  0.4376
 8841TIP3    H148014   5.335   2.662  14.243  0.3222 -0.9294  0.0032
 8841TIP3    H248015   5.446   2.694  14.341 -1.2795  2.3663  0.8948
 8842TIP3   OH248016   5.778   0.992   6.650  0.2190 -0.2058  0.3579
 8842TIP3    H148017   5.802   1.037   6.731  1.4618 -1.8503  0.9461
 8842TIP3    H248018   5.731   1.059   6.599  0.9504  1.3872  1.6714
 8843TIP3   OH248019   0.235   6.428   4.575  0.2223 -0.1917  0.1357
 8843TIP3    H148020   0.320   6.393   4.549  0.0265 -1.8846  1.5566
 8843TIP3    H248021   0.256   6.506   4.628  0.7489  0.7298 -1.3666
 8844TIP3   OH248022   1.019   2.225  11.578  0.3165 -0.6042  0.2060
 8844TIP3    H148023   1.058   2.201  11.494 -0.0260  0.0314 -0.1408
 8844TIP3    H248024   0.927   2.239  11.559 -0.0406 -1.7870  0.9609
 8845TIP3   OH248025   1.263   6.468   6.424  0.2322 -0.1328  0.2055
 8845TIP3    H148026   1.279   6.541   6.484 -0.8883  1.9054 -1.7960
 8845TIP3    H248027   1.168   6.467   6.411  0.3935 -0.7399 -1.1915
 8846TIP3   OH248028   1.969   3.745  12.161  0.5229 -0.2376  0.5396
 8846TIP3    H148029   1.918   3.825  12.176  0.6690 -0.3306  1.6082
 8846TIP3    H248030   1.950   3.690  12.237  0.3348 -1.2856 -0.2391
 8847TIP3   OH248031   4.083   5.258   1.735 -0.5903  0.5683 -0.0012
 8847TIP3    H148032   4.092   5.320   1.662 -0.8489  0.2753 -0.2885
 8847TIP3    H248033   4.173   5.237   1.760 -0.4868  0.3010 -0.5652
 8848TIP3   OH248034   1.504   4.176   4.085 -0.5800 -0.1033  0.8685
 8848TIP3    H148035   1.414   4.206   4.088 -0.8125 -0.2462 -1.9608
 8848TIP3    H248036   1.499   4.089   4.044  0.8544  0.1955 -0.0422
 8849TIP3   OH248037   4.881   2.918   1.181 -0.5834  0.5493 -0.2805
 8849TIP3    H148038   4.868   2.921   1.276 -2.2245 -1.7282 -0.3502
 8849TIP3    H248039   4.961   2.865   1.169 -0.0234  1.3608 -0.1711
 8850TIP3   OH248040   1.344   3.299   4.693 -0.4743  0.1533 -0.5271
 8850TIP3    H148041   1.425   3.270   4.735 -0.6559 -1.9965 -1.5200
 8850TIP3    H248042   1.358   3.393   4.678  2.5130 -0.3919 -2.0406
 8851TIP3   OH248043   5.971   5.661   5.215 -0.0843 -0.2028  0.1173
 8851TIP3    H148044   6.001   5.723   5.281 -0.7880  0.9368 -0.5956
 8851TIP3    H248045   6.011   5.578   5.240  3.5094  1.1140 -0.6391
 8852TIP3   OH248046   0.776   1.017   1.164 -0.0379  0.0860 -0.5412
 8852TIP3    H148047   0.685   1.046   1.169  0.2838  1.1813 -0.7137
 8852TIP3    H248048   0.802   1.035   1.074 -0.0996 -1.6898 -0.9411
 8853TIP3   OH248049   2.413   5.380  15.386 -0.2796 -0.6350 -0.3143
 8853TIP3    H148050   2.466   5.459  15.395  1.1241 -1.4729 -0.8270
 8853TIP3    H248051   2.421   5.356  15.294 -0.6261 -1.4118 -0.1497
 8854TIP3   OH248052   0.905   6.714   1.300 -0.4427  0.4393 -0.7564
 8854TIP3    H148053   0.966   6.739   1.230  1.9100 -0.3766  0.8726
 8854TIP3    H248054   0.876   6.626   1.277  1.8849 -0.6554  0.1716
 8855TIP3   OH248055   0.168   4.476  12.032  0.5809  0.1484 -0.1606
 8855TIP3    H148056   0.183   4.382  12.043 -0.7849 -0.3929 -2.1556
 8855TIP3    H248057   0.082   4.481  11.989  1.0327  2.2472 -0.9556
 8856TIP3   OH248058   6.428   0.621  14.777  0.2058 -0.4269 -0.2441
 8856TIP3    H148059   6.454   0.532  14.756 -0.5366 -1.7757  3.7201
 8856TIP3    H248060   6.507   0.661  14.814 -0.4105 -0.9261  1.7693
 8857TIP3   OH248061   1.974   0.608  14.028 -0.2885  0.2336  0.1275
 8857TIP3    H148062   1.954   0.516  14.014 -1.3693  0.4896 -0.0594
 8857TIP3    H248063   1.991   0.642  13.940  1.2372 -0.0154  0.2905
 8858TIP3   OH248064   2.366   5.462  12.454  0.2022  0.0602 -0.1361
 8858TIP3    H148065   2.294   5.524  12.467  0.5874  0.0076  3.4257
 8858TIP3    H248066   2.434   5.513  12.408 -0.3393  1.6225  0.7057
 8859TIP3   OH248067   4.577   6.196  15.363  0.4388  0.1707  0.1774
 8859TIP3    H148068   4.508   6.194  15.297  0.8112 -0.2342 -0.2140
 8859TIP3    H248069   4.540   6.148  15.437  0.7840 -1.2965 -0.5485
 8860TIP3   OH248070   3.931   4.314  13.084 -0.3350 -0.0159  0.1645
 8860TIP3    H148071   3.865   4.247  13.101 -0.5247 -0.6145 -2.4696
 8860TIP3    H248072   3.894   4.366  13.013  1.1007  1.0113  0.1274
 8861TIP3   OH248073   0.360   4.340   3.026  0.5249  0.3739 -0.5672
 8861TIP3    H148074   0.289   4.279   3.007 -0.2152  1.5908 -1.8818
 8861TIP3    H248075   0.343   4.370   3.115  0.0781 -0.2408 -0.4402
 8862TIP3   OH248076   0.412   4.378  16.990  0.1345  0.5546 -0.2147
 8862TIP3    H148077   0.365   4.333  17.060  2.9381 -0.1130  1.4167
 8862TIP3    H248078   0.453   4.308  16.939  1.1903  1.1214 -0.1813
 8863TIP3   OH248079   1.020   3.459  15.926  0.1566 -0.2013 -0.1267
 8863TIP3    H148080   0.982   3.490  16.008  1.5039 -0.4891  0.6518
 8863TIP3    H248081   0.994   3.524  15.861  0.1951  0.7929  0.8160
 8864TIP3   OH248082   6.180   2.770   3.642 -0.1042 -0.8090 -0.3837
 8864TIP3    H148083   6.161   2.861   3.617 -0.7780 -0.9755 -0.5205
 8864TIP3    H248084   6.262   2.749   3.597  0.6276  0.0717  0.5141
 8865TIP3   OH248085   5.183   1.158   3.822  0.4775 -0.0409 -0.1765
 8865TIP3    H148086   5.237   1.103   3.765  0.6137  1.1348 -1.2326
 8865TIP3    H248087   5.225   1.244   3.818 -1.9074  1.1540 -1.7228
 8866TIP3   OH248088   0.131   2.378   5.299  0.0832  0.0161 -0.3327
 8866TIP3    H148089   0.173   2.462   5.282  0.5216 -0.1594 -0.1110
 8866TIP3    H248090   0.170   2.347   5.380 -0.1356 -0.3673 -0.3709
 8867TIP3   OH248091   5.998   6.178  16.010 -0.3270 -0.1235  0.1219
 8867TIP3    H148092   6.032   6.111  16.070  0.1622 -0.8825 -0.9613
 8867TIP3    H248093   5.903   6.169  16.016 -0.2799 -0.3624  0.5817
 8868TIP3   OH248094   6.588   1.360   1.016  0.1566 -0.2002  0.0649
 8868TIP3    H148095   6.615   1.301   0.946  0.7939 -0.5626  0.6020
 8868TIP3    H248096   6.574   1.302   1.091 -0.3744  0.1984  0.2747
 8869TIP3   OH248097   5.096   4.610   2.468 -0.3211  0.3756  0.3021
 8869TIP3    H148098   5.063   4.605   2.378  1.3160  1.7253 -0.4345
 8869TIP3    H248099   5.037   4.554   2.518 -1.0106 -0.8014 -1.6847
 8870TIP3   OH248100   5.836   5.824   3.048  0.0062 -0.2092  0.4946
 8870TIP3    H148101   5.885   5.902   3.071  1.0836 -0.6983 -0.0923
 8870TIP3    H248102   5.836   5.771   3.128 -1.6701  0.8269  1.2448
 8871TIP3   OH248103   2.897   4.879  14.636 -0.1685  0.0724 -1.2590
 8871TIP3    H148104   2.881   4.889  14.730  0.5572  0.3556 -1.1636
 8871TIP3    H248105   2.823   4.925  14.595 -0.7426 -0.4489 -0.8422
 8872TIP3   OH248106   4.151   5.180   5.041 -0.4441  0.0767  0.1528
 8872TIP3    H148107   4.181   5.157   4.953 -2.8769 -0.3757 -0.6336
 8872TIP3    H248108   4.171   5.102   5.094 -0.5113 -0.3154 -0.3966
 8873TIP3   OH248109   4.147   6.592  14.704 -0.1796 -0.2299 -0.0786
 8873TIP3    H148110   4.177   6.501  14.706  0.5152 -0.0317  2.2544
 8873TIP3    H248111   4.191   6.633  14.779 -0.0688  2.1841 -1.3739
 8874TIP3   OH248112   3.376   0.962  17.104 -0.0572  0.1121  0.1804
 8874TIP3    H148113   3.423   0.950  17.187  1.7884  2.9103 -0.3352
 8874TIP3    H248114   3.306   1.023  17.126 -1.0778 -0.9951  0.1091
 8875TIP3   OH248115   0.396   5.348   3.359 -0.4294  1.1163  0.1184
 8875TIP3    H148116   0.389   5.411   3.431 -0.3120  1.8546 -0.5075
 8875TIP3    H248117   0.343   5.386   3.289 -1.6443 -0.2520  0.2545
 8876TIP3   OH248118   3.575   0.157  11.935  0.1577  0.1973 -0.1960
 8876TIP3    H148119   3.502   0.103  11.907  0.6107 -0.8366  0.5559
 8876TIP3    H248120   3.544   0.247  11.925 -1.7017 -0.2082  1.3543
 8877TIP3   OH248121   5.435   0.014   4.471 -0.5393 -0.0701  0.2551
 8877TIP3    H148122   5.506   0.078   4.461 -2.7636  2.2301 -2.9520
 8877TIP3    H248123   5.394   0.037   4.555  1.3135 -0.2148  1.2437
 8878TIP3   OH248124   6.158   1.666   3.200  0.1864 -0.5620  0.2113
 8878TIP3    H148125   6.118   1.715   3.272  0.4801 -0.7550  0.5096
 8878TIP3    H248126   6.190   1.585   3.241  0.5752 -0.5623 -0.0825
 8879TIP3   OH248127   6.550   3.047   1.715  0.3704  0.0263 -0.4349
 8879TIP3    H148128   6.574   3.011   1.800  0.8733  2.2694  0.4601
 8879TIP3    H248129   6.629   3.041   1.662  0.9192  1.1109  0.2144
 8880TIP3   OH248130   5.419   6.765  15.854  0.2017  0.3893  0.4548
 8880TIP3    H148131   5.509   6.796  15.843 -0.1125  1.2904  0.3106
 8880TIP3    H248132   5.366   6.835  15.816 -0.5654 -0.0645  0.6852
 8881TIP3   OH248133   0.325   2.509  15.114  0.6827  0.1726 -0.2822
 8881TIP3    H148134   0.394   2.444  15.124  1.5187  1.1761  0.7075
 8881TIP3    H248135   0.336   2.542  15.024  1.7080  0.5535 -0.0257
 8882TIP3   OH248136   2.998   3.542   4.450 -0.5100 -0.2944 -0.5994
 8882TIP3    H148137   2.978   3.616   4.392  1.4161 -0.0015 -0.9724
 8882TIP3    H248138   3.058   3.579   4.515 -0.8505 -1.1568  0.2238
 8883TIP3   OH248139   2.947   0.388   2.028  0.4417 -0.1530 -0.1908
 8883TIP3    H148140   2.890   0.461   2.006  0.0892  0.3565  2.1128
 8883TIP3    H248141   2.889   0.312   2.035  0.0654  0.2426  1.5403
 8884TIP3   OH248142   5.044   0.845   3.901 -0.6773  0.5370 -0.2734
 8884TIP3    H148143   5.055   0.856   3.807 -0.6517  3.1237 -0.0580
 8884TIP3    H248144   5.128   0.872   3.938 -0.7652 -0.2247  0.5187
 8885TIP3   OH248145   3.810   3.219   4.797 -0.1709 -0.0320  0.7056
 8885TIP3    H148146   3.743   3.252   4.737 -0.8735  0.7589  1.8899
 8885TIP3    H248147   3.802   3.124   4.793 -0.9122  0.0410  0.3307
 8886TIP3   OH248148   1.285   2.846  16.017 -0.4677  0.0229 -0.1829
 8886TIP3    H148149   1.303   2.901  15.940 -0.2495  0.0098 -0.1437
 8886TIP3    H248150   1.371   2.815  16.044 -0.4780  0.5157  0.4289
 8887TIP3   OH248151   6.377   1.969   2.842 -0.2361  0.2650  0.3094
 8887TIP3    H148152   6.335   2.054   2.857 -0.5954 -0.2072  2.2204
 8887TIP3    H248153   6.454   1.971   2.897  0.2149 -0.3501 -0.2840
 8888TIP3   OH248154   5.153   4.181   1.375  0.3060  0.0259 -0.1278
 8888TIP3    H148155   5.150   4.268   1.415  1.2540  0.2277 -0.4796
 8888TIP3    H248156   5.181   4.123   1.445  2.4242  0.4509 -0.5661
 8889TIP3   OH248157   2.010   6.460  13.588  0.0654 -0.0395  0.1728
 8889TIP3    H148158   1.933   6.431  13.638  0.4035 -0.2663  0.5610
 8889TIP3    H248159   2.080   6.466  13.653  0.5949 -0.6657 -0.3320
 8890TIP3   OH248160   6.138   0.124   4.579 -0.1988  0.0030 -0.6122
 8890TIP3    H148161   6.113   0.198   4.525 -0.1932 -1.9898 -3.5688
 8890TIP3    H248162   6.067   0.061   4.568  0.4650 -1.0204  0.6522
 8891TIP3   OH248163   2.758   6.147   4.845 -0.1699 -0.2658  0.0587
 8891TIP3    H148164   2.842   6.110   4.815 -0.6542 -1.7671  0.4477
 8891TIP3    H248165   2.700   6.136   4.770  0.3898  2.4474 -0.8743
 8892TIP3   OH248166   0.635   4.253   5.601 -0.6775  0.2596  0.5730
 8892TIP3    H148167   0.599   4.341   5.615  0.9634  1.3331 -1.3037
 8892TIP3    H248168   0.571   4.209   5.546 -0.6054  1.0549 -0.1838
 8893TIP3   OH248169   4.258   6.339  14.758 -0.2344 -0.1151  0.5432
 8893TIP3    H148170   4.235   6.246  14.749  2.0965 -0.7600  0.6414
 8893TIP3    H248171   4.322   6.354  14.689  2.5851  0.2433  3.0303
 8894TIP3   OH248172   0.695   4.808   5.700  0.0196 -0.4945  0.5214
 8894TIP3    H148173   0.760   4.738   5.708  0.5580 -0.0878 -0.1201
 8894TIP3    H248174   0.678   4.835   5.790  1.9774  0.4865  0.6612
 8895TIP3   OH248175   6.789   3.820  12.296 -0.0824 -0.1210  0.4969
 8895TIP3    H148176   6.762   3.799  12.386  0.5101 -1.0558  0.4652
 8895TIP3    H248177   6.708   3.848  12.253 -0.6816 -1.2432  0.8761
 8896TIP3   OH248178   4.711   4.623  16.614 -0.1381 -0.4305  1.1972
 8896TIP3    H148179   4.768   4.624  16.537 -0.7810 -0.6547  0.6990
 8896TIP3    H248180   4.746   4.690  16.672  1.1233 -1.1482  1.2824
 8897TIP3   OH248181   3.747   3.227   4.222 -0.1257  0.1962 -0.6244
 8897TIP3    H148182   3.725   3.148   4.271  0.6488  0.0477 -0.5103
 8897TIP3    H248183   3.675   3.237   4.160 -0.9628  0.2013  0.3054
 8898TIP3   OH248184   4.603   3.297  12.138  0.0000 -0.0041  0.1910
 8898TIP3    H148185   4.601   3.218  12.192 -2.9613 -0.7472 -0.7847
 8898TIP3    H248186   4.558   3.363  12.190 -2.5923 -0.6397 -1.0614
 8899TIP3   OH248187   4.894   4.618  15.912  0.4321  0.1137 -0.4083
 8899TIP3    H148188   4.824   4.605  15.976 -0.3026  0.9134 -1.0126
 8899TIP3    H248189   4.905   4.533  15.871  0.0288 -0.0984 -0.0881
 8900TIP3   OH248190   0.364   6.192  13.612  0.1462 -0.2212  0.2153
 8900TIP3    H148191   0.324   6.208  13.527  0.3147  1.8389  0.4760
 8900TIP3    H248192   0.425   6.265  13.624  0.3489 -0.6321  1.9541
 8901TIP3   OH248193   4.087   3.284   3.000 -0.2893 -0.1691 -0.6130
 8901TIP3    H148194   4.067   3.304   3.091  2.6652 -0.6871  0.2595
 8901TIP3    H248195   4.085   3.369   2.956  1.9563  0.6993  0.8053
 8902TIP3   OH248196   5.158   2.499   1.866  0.2844 -0.4291 -0.0353
 8902TIP3    H148197   5.202   2.424   1.906 -0.2646  0.1456  1.7592
 8902TIP3    H248198   5.096   2.528   1.933  1.0779  2.1350 -0.3332
 8903TIP3   OH248199   5.702   3.481  15.171 -0.1459 -0.1152  0.1444
 8903TIP3    H148200   5.624   3.507  15.221 -2.1737 -0.5782 -2.5623
 8903TIP3    H248201   5.676   3.492  15.080  3.5107  1.0991 -0.9041
 8904TIP3   OH248202   4.567   6.646   6.136 -0.0166  0.4981 -0.1240
 8904TIP3    H148203   4.471   6.642   6.138  0.0080  0.2491  1.6610
 8904TIP3    H248204   4.591   6.703   6.208  1.2121  0.0567 -0.1575
 8905TIP3   OH248205   2.025   0.182   3.470  0.3714  0.4420 -0.1606
 8905TIP3    H148206   2.102   0.129   3.451  0.5600 -0.2901  2.3255
 8905TIP3    H248207   2.058   0.271   3.482  1.0502 -0.0148  1.7740
 8906TIP3   OH248208   4.144   3.360   4.426 -0.1647 -0.9259  0.7095
 8906TIP3    H148209   4.122   3.363   4.519 -0.4315 -1.8758  0.6849
 8906TIP3    H248210   4.061   3.376   4.381  0.2582  1.3565  0.6010
 8907TIP3   OH248211   0.547   1.040  14.475 -0.0565  0.3070  0.2957
 8907TIP3    H148212   0.514   1.099  14.543  2.2833  1.5255  0.4605
 8907TIP3    H248213   0.507   1.073  14.394 -1.7632 -0.3068  0.8258
 8908TIP3   OH248214   2.492   2.803   3.224  0.2626  0.2778 -0.0805
 8908TIP3    H148215   2.459   2.722   3.185  0.3791  0.2433 -0.1068
 8908TIP3    H248216   2.478   2.869   3.156 -2.0024  0.7657  0.7660
 8909TIP3   OH248217   4.441   6.801  14.267 -0.3817  0.0714 -0.2126
 8909TIP3    H148218   4.454   6.896  14.276  3.4773  0.0846 -3.4226
 8909TIP3    H248219   4.517   6.762  14.309 -1.0005 -1.5456 -0.5132
 8910TIP3   OH248220   5.040   3.595   4.889  0.0695  0.5655  0.5140
 8910TIP3    H148221   4.963   3.566   4.839  0.5852  1.2925 -0.7520
 8910TIP3    H248222   5.111   3.540   4.857  0.0807 -0.1975  1.7822
 8911TIP3   OH248223   0.277   3.527   4.903  0.0530  0.1644 -0.1361
 8911TIP3    H148224   0.250   3.618   4.917  0.6749  0.6126 -1.6266
 8911TIP3    H248225   0.291   3.521   4.808 -2.3105 -2.1420 -0.4514
 8912TIP3   OH248226   3.278   1.473  13.025  0.2337 -0.6958 -0.3620
 8912TIP3    H148227   3.359   1.524  13.014  0.4584 -1.2653 -1.4552
 8912TIP3    H248228   3.244   1.462  12.937 -2.1969  1.3007  0.2152
 8913TIP3   OH248229   5.131   2.373   1.032 -0.2507 -0.4197 -0.2067
 8913TIP3    H148230   5.078   2.304   0.991  0.1011  0.5651 -2.4865
 8913TIP3    H248231   5.104   2.453   0.987  3.4099  0.0957 -1.7982
 8914TIP3   OH248232   3.102   4.358   2.266  0.0673 -0.0609  0.1443
 8914TIP3    H148233   3.109   4.405   2.183  1.1718 -0.9853 -0.3030
 8914TIP3    H248234   3.160   4.406   2.326  0.2147 -0.1024  0.0360
 8915TIP3   OH248235   6.153   5.571  11.501  0.5916  0.0109 -0.3707
 8915TIP3    H148236   6.240   5.607  11.481  0.1389  1.0570 -0.5624
 8915TIP3    H248237   6.169   5.503  11.566  1.2498  2.7439  2.5867
 8916TIP3   OH248238   6.376   4.933   5.325 -0.0695 -0.7518  0.0130
 8916TIP3    H148239   6.401   4.882   5.248  0.7504  1.8964 -1.6417
 8916TIP3    H248240   6.459   4.954   5.368 -0.2935 -0.1926  0.1892
 8917TIP3   OH248241   2.810   5.112   1.734 -0.3421  0.2758 -0.1891
 8917TIP3    H148242   2.880   5.161   1.690 -0.8646  1.4233  0.2123
 8917TIP3    H248243   2.834   5.114   1.827 -0.5521  0.0742 -0.1292
 8918TIP3   OH248244   1.934   0.296   4.712  0.6079  0.3721 -0.2148
 8918TIP3    H148245   1.849   0.333   4.688  0.8881  0.5316 -0.9938
 8918TIP3    H248246   1.916   0.202   4.725  0.2579  0.4569 -0.0670
 8919TIP3   OH248247   5.125   0.221   1.930  0.3325  0.0812  0.1198
 8919TIP3    H148248   5.069   0.145   1.948 -0.0136  0.5766  1.2451
 8919TIP3    H248249   5.066   0.296   1.937  0.3503  0.4178 -2.4083
 8920TIP3   OH248250   6.806   2.691  17.233  0.3478 -0.3644 -0.4181
 8920TIP3    H148251   6.803   2.758  17.165 -0.2656 -0.4090 -0.4391
 8920TIP3    H248252   6.899   2.682  17.254  0.3450  1.3555  0.4570
 8921TIP3   OH248253   3.956   5.884  16.851 -0.4946  0.0884  0.0670
 8921TIP3    H148254   3.952   5.927  16.766 -0.4494  1.8467  0.8920
 8921TIP3    H248255   3.875   5.834  16.857 -0.6640  0.2336 -0.8614
 8922TIP3   OH248256   4.639   6.305  11.196  0.1453  0.2104 -0.5521
 8922TIP3    H148257   4.618   6.265  11.280  0.9324 -0.9735 -0.8885
 8922TIP3    H248258   4.555   6.309  11.150 -0.3117  0.9754  0.3063
 8923TIP3   OH248259   3.676   5.492   4.301  0.1096  0.0174 -0.0363
 8923TIP3    H148260   3.669   5.528   4.213  0.0245  0.4484  0.1480
 8923TIP3    H248261   3.609   5.537   4.351  1.2872  1.0497  0.6758
 8924TIP3   OH248262   1.427   1.504  15.052  0.2803 -0.3662 -0.5634
 8924TIP3    H148263   1.495   1.451  15.094  0.4978  0.5437  0.2625
 8924TIP3    H248264   1.472   1.583  15.023 -0.0686 -0.5508 -1.6768
 8925TIP3   OH248265   6.334   0.016  11.335  0.2676  0.3988  0.0379
 8925TIP3    H148266   6.377  -0.061  11.372 -0.2486  0.8035  1.5232
 8925TIP3    H248267   6.403   0.058  11.282  0.7429 -0.6906 -0.2439
 8926TIP3   OH248268   2.754   2.715   4.483 -0.8609 -0.0285  0.0435
 8926TIP3    H148269   2.825   2.779   4.481  0.8198 -1.8110 -1.1153
 8926TIP3    H248270   2.790   2.637   4.441 -2.0229 -2.5715  3.3171
 8927TIP3   OH248271   2.840   5.844  16.725 -0.8567 -0.0229  0.0797
 8927TIP3    H148272   2.856   5.917  16.666 -0.3385  1.1109  1.5680
 8927TIP3    H248273   2.846   5.882  16.813 -1.2522 -1.7195  0.8834
 8928TIP3   OH248274   5.145   0.079  14.308  0.0989 -0.2205 -0.2104
 8928TIP3    H148275   5.167   0.098  14.216  1.8933  1.4607  0.4873
 8928TIP3    H248276   5.202   0.007  14.332 -0.0777 -0.3920 -0.3069
 8929TIP3   OH248277   2.159   5.143   2.387  0.0011 -0.0904  0.0562
 8929TIP3    H148278   2.126   5.192   2.311  0.7090 -0.5148 -0.5441
 8929TIP3    H248279   2.228   5.198   2.423 -0.6128  0.3044  0.6645
 8930TIP3   OH248280   2.764   0.719  11.936  0.1682  0.4046 -0.0773
 8930TIP3    H148281   2.707   0.732  11.859  0.2166 -2.6573 -0.7584
 8930TIP3    H248282   2.703   0.713  12.010 -0.3627 -1.4688 -0.6107
 8931TIP3   OH248283   1.381   3.846  11.717 -0.2766 -0.0205  0.3365
 8931TIP3    H148284   1.432   3.796  11.780  0.6156 -0.5772 -0.7779
 8931TIP3    H248285   1.447   3.893  11.665 -0.8779 -0.7664 -1.1498
 8932TIP3   OH248286   6.400   2.924   4.381 -0.2128  0.3884 -0.0718
 8932TIP3    H148287   6.495   2.932   4.392 -0.4400  2.8671  0.5178
 8932TIP3    H248288   6.373   2.867   4.454  0.9365 -1.5837 -1.1100
 8933TIP3   OH248289   1.904   1.474  11.510  0.4023 -0.3210  0.2435
 8933TIP3    H148290   1.856   1.476  11.593 -0.0259 -0.3215  0.0043
 8933TIP3    H248291   1.835   1.474  11.444  0.7426  2.2326 -0.1948
 8934TIP3   OH248292   4.120   4.176   5.507  0.2950 -0.1438  0.4777
 8934TIP3    H148293   4.169   4.162   5.589  0.8273 -0.3101  0.1366
 8934TIP3    H248294   4.032   4.199   5.536  0.5089 -0.0774  1.1033
 8935TIP3   OH248295   6.747   5.381   1.327 -0.3027 -0.1653  0.0189
 8935TIP3    H148296   6.773   5.464   1.367 -1.4121  0.0875  0.2430
 8935TIP3    H248297   6.803   5.373   1.249 -1.7083  1.9441 -1.3297
 8936TIP3   OH248298   4.317   4.697  14.848 -0.3950 -0.3349  0.1235
 8936TIP3    H148299   4.315   4.704  14.753 -1.7688  3.8973  0.2861
 8936TIP3    H248300   4.400   4.738  14.873 -1.1942  0.9382  0.7825
 8937TIP3   OH248301   3.985   0.559   4.986 -0.5074  0.3461 -0.8087
 8937TIP3    H148302   3.959   0.583   4.898 -2.6103 -1.2911 -0.7275
 8937TIP3    H248303   4.009   0.466   4.980 -0.3089  0.3071  0.2792
 8938TIP3   OH248304   5.924   4.238   3.524  0.7177  0.4257 -0.0816
 8938TIP3    H148305   5.912   4.301   3.596  0.1863  0.1815  0.0490
 8938TIP3    H248306   5.965   4.289   3.455  0.3273  0.9134  0.0373
 8939TIP3   OH248307   0.435   5.650  15.926 -0.4362  0.0297  0.6145
 8939TIP3    H148308   0.374   5.725  15.928  0.6032  0.9242  3.3364
 8939TIP3    H248309   0.478   5.656  15.840 -2.6157  0.6101 -0.5193
 8940TIP3   OH248310   3.395   4.668  11.339  0.0829  0.0264 -0.4119
 8940TIP3    H148311   3.394   4.687  11.432  1.5512  0.2784 -0.4231
 8940TIP3    H248312   3.305   4.682  11.310 -0.3346  0.1759  0.9096
 8941TIP3   OH248313   3.457   4.244   6.025  0.0765  0.2466  0.2122
 8941TIP3    H148314   3.444   4.168   6.081  0.3616  0.9420  1.2411
 8941TIP3    H248315   3.532   4.221   5.970  0.2103 -0.1809  0.5772
 8942TIP3   OH248316   3.985   2.279  11.466 -0.5496 -0.8721  0.6005
 8942TIP3    H148317   3.955   2.204  11.415 -0.8313 -1.3260  1.4189
 8942TIP3    H248318   3.933   2.352  11.435  0.3223 -0.8239 -0.8153
 8943TIP3   OH248319   5.540   2.199  16.380  0.5890 -0.3930  0.3820
 8943TIP3    H148320   5.528   2.108  16.354 -1.3185  0.1804 -1.0165
 8943TIP3    H248321   5.466   2.245  16.339  2.5156  2.0776 -0.5660
 8944TIP3   OH248322   4.576   1.373  10.840  0.1940 -0.7712 -0.1092
 8944TIP3    H148323   4.665   1.406  10.829  0.1108 -0.4130  0.2801
 8944TIP3    H248324   4.560   1.320  10.762 -0.6783  2.2945 -2.1963
 8945TIP3   OH248325   6.521   5.852  13.718 -0.4018  0.3255 -0.2361
 8945TIP3    H148326   6.580   5.876  13.789  0.1338 -1.3715 -0.0649
 8945TIP3    H248327   6.554   5.899  13.641 -0.7737  1.8908  0.5129
 8946TIP3   OH248328   0.836   1.893   2.806 -0.0392 -0.1476  0.4664
 8946TIP3    H148329   0.742   1.878   2.805  0.1162 -1.2685 -1.1013
 8946TIP3    H248330   0.870   1.830   2.870 -0.2574 -0.5307  0.2095
 8947TIP3   OH248331   2.819   1.974   3.992 -0.1323 -0.5254 -0.4328
 8947TIP3    H148332   2.841   1.899   4.046 -0.2657 -0.4321 -0.2459
 8947TIP3    H248333   2.758   1.939   3.927  1.3977 -1.0286 -1.6589
 8948TIP3   OH248334   1.031   4.456   2.992 -0.4080  0.2236 -0.0705
 8948TIP3    H148335   1.069   4.522   3.050  0.2715 -0.6265  0.4842
 8948TIP3    H248336   1.068   4.374   3.022 -1.0769 -0.3964 -0.8832
 8949TIP3   OH248337   4.442   5.435  11.404 -0.6530  0.0355  0.1192
 8949TIP3    H148338   4.510   5.440  11.337 -1.4819  1.3332 -0.6846
 8949TIP3    H248339   4.433   5.342  11.423  0.7911 -0.2066 -0.3253
 8950TIP3   OH248340   0.760   2.232  11.516  0.2354 -0.0550  0.0575
 8950TIP3    H148341   0.786   2.265  11.430 -1.9120 -0.2972 -0.7471
 8950TIP3    H248342   0.730   2.309  11.564 -1.5006 -0.2686 -0.5857
 8951TIP3   OH248343   1.960   4.920  11.425 -0.2931  0.2111 -0.3336
 8951TIP3    H148344   2.030   4.952  11.367 -0.4024  1.5432  0.2417
 8951TIP3    H248345   1.892   4.889  11.366  0.0727  0.4901 -0.9101
 8952TIP3   OH248346   2.944   5.822   1.383 -0.1365 -0.8480 -0.0050
 8952TIP3    H148347   2.966   5.885   1.315  0.0757 -0.2838  0.5825
 8952TIP3    H248348   3.015   5.758   1.381 -0.6070 -1.3710 -0.9400
 8953TIP3   OH248349   0.380   4.329  15.401 -0.1905  0.1946 -0.1043
 8953TIP3    H148350   0.317   4.368  15.461 -1.9975 -1.5279 -0.7518
 8953TIP3    H248351   0.330   4.261  15.355  1.5983  0.1763 -2.2028
 8954TIP3   OH248352   3.125   6.000   2.381 -0.2641  0.2783  0.1301
 8954TIP3    H148353   3.196   5.937   2.393  0.8273  0.6727 -3.1714
 8954TIP3    H248354   3.061   5.978   2.448  2.0775 -1.3751  1.9871
 8955TIP3   OH248355   0.710   2.181  15.687  0.2671  0.3349 -0.6322
 8955TIP3    H148356   0.651   2.196  15.614  0.8042  0.5954 -1.0162
 8955TIP3    H248357   0.794   2.217  15.659  0.3965  0.7604  0.2407
 8956TIP3   OH248358   6.734   0.074  14.675  0.0125  0.1179  0.0586
 8956TIP3    H148359   6.664   0.108  14.731 -0.2739 -1.0377  0.4225
 8956TIP3    H248360   6.803   0.050  14.737  1.6397  3.1108 -0.3852
 8957TIP3   OH248361   1.956   0.804  16.297  0.3121  0.5193  0.2401
 8957TIP3    H148362   2.028   0.770  16.243  0.5104  0.7043  0.3870
 8957TIP3    H248363   1.879   0.755  16.267  0.7168 -0.5895  0.9440
 8958TIP3   OH248364   3.513   6.039   3.375 -0.1146  0.0733 -0.2554
 8958TIP3    H148365   3.508   6.128   3.410 -1.8844  0.7336 -2.0390
 8958TIP3    H248366   3.595   6.004   3.412  0.7289  2.4768  0.3555
 8959TIP3   OH248367   1.421   6.344  13.149 -0.0304  0.0148  0.2917
 8959TIP3    H148368   1.410   6.279  13.079  0.3789  1.6417 -1.3607
 8959TIP3    H248369   1.410   6.428  13.105  5.6178  1.4998  0.9082
 8960TIP3   OH248370   1.112   1.205  15.422  0.1137  0.1129 -0.7098
 8960TIP3    H148371   1.107   1.198  15.518  0.9473  0.2587 -0.6554
 8960TIP3    H248372   1.178   1.142  15.396  0.9545  1.1144 -1.0532
 8961TIP3   OH248373   5.874   6.078   6.599 -0.3967 -0.0478  0.5567
 8961TIP3    H148374   5.853   6.145   6.533 -0.4269  0.4710  1.0893
 8961TIP3    H248375   5.932   6.123   6.661  1.5634 -1.1615 -0.3577
 8962TIP3   OH248376   5.716   3.294  16.432  0.6832  0.3452 -0.3540
 8962TIP3    H148377   5.780   3.336  16.374  1.6756  1.0023  1.1734
 8962TIP3    H248378   5.767   3.237  16.488 -0.4103 -1.1951 -0.8567
 8963TIP3   OH248379   2.658   1.804  16.007 -0.4326  0.3207 -0.7976
 8963TIP3    H148380   2.646   1.712  15.986  0.5539 -0.0863  0.2446
 8963TIP3    H248381   2.586   1.825  16.066  1.2673 -0.8650  1.9130
 8964TIP3   OH248382   5.203   5.487   5.285 -0.5815  0.0803 -0.2600
 8964TIP3    H148383   5.138   5.433   5.331  1.9448 -2.4892  0.6022
 8964TIP3    H248384   5.260   5.519   5.355  1.2916 -0.9802 -1.2316
 8965TIP3   OH248385   5.698   3.237  14.478 -0.1666  0.3075 -0.4028
 8965TIP3    H148386   5.793   3.224  14.478 -0.0315  1.0473 -2.0041
 8965TIP3    H248387   5.687   3.326  14.512 -0.3603 -0.0570  0.5187
 8966TIP3   OH248388   2.469   5.881   5.047  0.6264 -0.0862 -0.1446
 8966TIP3    H148389   2.549   5.848   5.004  0.5209 -0.2350 -0.2274
 8966TIP3    H248390   2.399   5.860   4.986  0.6289  0.8796 -0.4996
 8967TIP3   OH248391   4.896   1.402   3.994 -0.6626  0.5262  0.3789
 8967TIP3    H148392   4.931   1.471   3.937 -1.1252  1.4819  1.2208
 8967TIP3    H248393   4.944   1.323   3.968 -0.8283  0.9428 -1.2865
 8968TIP3   OH248394   4.910   3.807   2.155  0.1357 -0.1577 -0.2915
 8968TIP3    H148395   4.912   3.881   2.215  3.4110 -0.4612  0.1759
 8968TIP3    H248396   4.865   3.738   2.204 -0.4486  0.6724  0.3662
 8969TIP3   OH248397   3.363   0.886  15.985 -0.4213 -0.1029 -0.3258
 8969TIP3    H148398   3.330   0.796  15.983 -0.3165 -0.1289 -2.0639
 8969TIP3    H248399   3.284   0.940  15.987 -0.5002 -0.2239 -0.1702
 8970TIP3   OH248400   3.518   5.289  13.802 -0.3730  0.0677 -0.2789
 8970TIP3    H148401   3.605   5.269  13.767 -1.2844 -1.7160 -1.7227
 8970TIP3    H248402   3.532   5.296  13.897  1.7889  2.7362 -0.6667
 8971TIP3   OH248403   2.964   1.855  14.103 -0.3018  0.0511 -0.1945
 8971TIP3    H148404   2.951   1.767  14.139 -1.1964  0.4241  0.4255
 8971TIP3    H248405   3.058   1.871  14.113 -0.1923 -0.6841  0.0433
 8972TIP3   OH248406   5.399   6.161  12.308  0.7676  0.8062 -0.0532
 8972TIP3    H148407   5.353   6.152  12.224 -0.5890  1.3436  0.5934
 8972TIP3    H248408   5.331   6.190  12.369  1.3279 -1.0986  1.6149
 8973TIP3   OH248409   4.517   0.436   4.226 -0.1197 -0.1833 -0.7198
 8973TIP3    H148410   4.432   0.436   4.181 -0.8411 -0.2400  0.5837
 8973TIP3    H248411   4.569   0.371   4.179 -0.6604  0.1307 -1.7788
 8974TIP3   OH248412   1.691   5.272   0.418  0.1997  0.1747  0.1632
 8974TIP3    H148413   1.625   5.261   0.486  1.7662  2.1405  2.1273
 8974TIP3    H248414   1.747   5.195   0.426  0.6077  0.5894  1.3952
 8975TIP3   OH248415   0.998   5.531  13.242 -0.2986  0.0440 -0.2458
 8975TIP3    H148416   1.047   5.578  13.175  0.3409  0.4427  0.4841
 8975TIP3    H248417   0.910   5.568  13.238 -1.0238 -1.6946 -2.5690
 8976TIP3   OH248418   4.873   3.919   4.477  0.9532  0.1166 -0.1281
 8976TIP3    H148419   4.829   3.985   4.423 -2.0785 -2.7664 -1.5628
 8976TIP3    H248420   4.817   3.911   4.555  0.8134 -1.1959 -0.3340
 8977TIP3   OH248421   4.099   5.794  15.813 -0.3656  1.0062 -0.1194
 8977TIP3    H148422   4.101   5.889  15.821  2.5145  0.9271  1.2412
 8977TIP3    H248423   4.120   5.777  15.721  1.6350  1.7096  0.1767
 8978TIP3   OH248424   0.658   1.406  16.945  0.4318  0.0862 -0.1284
 8978TIP3    H148425   0.751   1.388  16.944  0.1838 -1.4183 -1.9673
 8978TIP3    H248426   0.617   1.325  16.975 -0.2836  0.9426  1.3180
 8979TIP3   OH248427   1.518   0.619  17.230  0.1560  0.2720 -0.1584
 8979TIP3    H148428   1.511   0.710  17.198  0.1153  0.3669  0.1179
 8979TIP3    H248429   1.594   0.583  17.184  1.0003  0.8660  0.7558
 8980TIP3   OH248430   3.751   5.904   2.185 -0.0732  0.1070  0.0685
 8980TIP3    H148431   3.814   5.858   2.242  0.5594 -0.4883 -1.0743
 8980TIP3    H248432   3.665   5.880   2.220  0.2477 -1.6504 -0.2173
 8981TIP3   OH248433   2.587   1.773  15.625  0.1969 -0.6169 -0.0587
 8981TIP3    H148434   2.600   1.820  15.543 -0.0895 -0.1402  0.1697
 8981TIP3    H248435   2.584   1.841  15.692  3.0360 -1.1139  0.7211
 8982TIP3   OH248436   3.114   3.675  17.227 -0.3089  0.4478  0.4651
 8982TIP3    H148437   3.155   3.752  17.188 -0.0417 -0.2309 -0.6327
 8982TIP3    H248438   3.021   3.696  17.228 -0.1710  1.0912  0.9131
 8983TIP3   OH248439   1.364   0.773  11.214 -0.3703  0.1772  0.2555
 8983TIP3    H148440   1.276   0.794  11.246 -0.6643  1.8674 -1.4755
 8983TIP3    H248441   1.356   0.776  11.119  1.4231 -0.3772  0.0494
 8984TIP3   OH248442   5.436   0.336   2.121 -0.3991 -0.7893 -0.1526
 8984TIP3    H148443   5.396   0.377   2.044  1.5402 -1.0745 -1.3588
 8984TIP3    H248444   5.483   0.407   2.164 -0.2417 -0.9459 -0.0667
 8985TIP3   OH248445   1.577   3.481  12.097  0.5822 -0.4775  0.8811
 8985TIP3    H148446   1.652   3.458  12.043 -1.1163  1.7028 -2.7493
 8985TIP3    H248447   1.508   3.420  12.071 -1.0461  2.1887 -1.6994
 8986TIP3   OH248448   6.808   4.915  14.197 -0.5503  0.4464 -0.1190
 8986TIP3    H148449   6.796   5.006  14.169 -0.2974 -0.0728 -2.0832
 8986TIP3    H248450   6.777   4.863  14.123 -2.8440 -1.1672  1.8129
 8987TIP3   OH248451   6.125   5.975  14.744 -0.0874  0.0440 -0.2137
 8987TIP3    H148452   6.068   5.913  14.697  1.2791 -2.7430  1.5722
 8987TIP3    H248453   6.200   5.986  14.686 -0.6141  0.5367 -0.8128
 8988TIP3   OH248454   3.178   3.456  16.835 -0.1291 -0.3497  0.2173
 8988TIP3    H148455   3.263   3.437  16.875 -0.2557 -1.0222  0.1723
 8988TIP3    H248456   3.114   3.419  16.895 -0.2897 -2.1549 -1.0146
 8989TIP3   OH248457   5.592   2.362   1.934  0.8613  0.7589 -0.2141
 8989TIP3    H148458   5.642   2.281   1.941  0.4717  0.5018 -0.3707
 8989TIP3    H248459   5.500   2.335   1.940  0.7487  1.5179  3.0028
 8990TIP3   OH248460   4.193   2.991  12.944  0.6463  0.6475  0.0528
 8990TIP3    H148461   4.254   2.985  13.018 -0.8043 -1.2339  1.1971
 8990TIP3    H248462   4.107   2.991  12.985 -0.1871  0.3752 -1.6395
 8991TIP3   OH248463   2.363   0.039   5.670  0.3565  0.4755  0.1541
 8991TIP3    H148464   2.444   0.090   5.659  0.4504  0.1215 -1.0313
 8991TIP3    H248465   2.306   0.070   5.599 -0.0694 -0.1622  0.2091
 8992TIP3   OH248466   6.425   6.004  16.425  0.0950  0.4397  0.3841
 8992TIP3    H148467   6.355   6.066  16.401  0.2411  0.0285 -1.1670
 8992TIP3    H248468   6.486   6.057  16.476 -1.8211  0.5810  2.7523
 8993TIP3   OH248469   0.885   0.945  13.642  0.5885  0.1387 -0.0654
 8993TIP3    H148470   0.932   0.890  13.705  0.6922  1.2359  0.8471
 8993TIP3    H248471   0.912   0.912  13.556  2.5397  0.3101  0.4293
 8994TIP3   OH248472   2.620   1.378  14.203 -0.0094 -0.2265  0.7099
 8994TIP3    H148473   2.676   1.343  14.134 -0.6840 -3.3295  1.5960
 8994TIP3    H248474   2.545   1.415  14.156  1.0314  0.6514 -0.3077
 8995TIP3   OH248475   6.672   6.436   2.329 -0.0151  0.1817  0.1943
 8995TIP3    H148476   6.615   6.493   2.380  0.2274  1.5909 -1.0413
 8995TIP3    H248477   6.617   6.404   2.258  0.0685 -0.4994  0.4303
 8996TIP3   OH248478   2.900   2.605   4.937 -0.1441 -0.1528 -0.0932
 8996TIP3    H148479   2.868   2.682   4.890 -1.4701  0.1057  1.1643
 8996TIP3    H248480   2.825   2.545   4.938 -0.0914 -0.2316  1.4636
 8997TIP3   OH248481   5.191   1.350   5.490 -0.4632  0.0422  0.2473
 8997TIP3    H148482   5.144   1.267   5.498  0.4271 -0.7164 -1.7296
 8997TIP3    H248483   5.133   1.404   5.436 -1.0824  0.7734  1.6059
 8998TIP3   OH248484   6.310   1.756   6.540 -0.4558 -0.2370  0.4329
 8998TIP3    H148485   6.395   1.756   6.497  0.0192  1.6670  1.2547
 8998TIP3    H248486   6.251   1.796   6.476 -1.1080 -2.7300 -0.6568
 8999TIP3   OH248487   2.256   3.522   6.012  0.2969 -0.4276 -0.3454
 8999TIP3    H148488   2.271   3.483   6.098  0.1100 -0.3516 -0.2787
 8999TIP3    H248489   2.162   3.507   5.995  0.2293 -0.0177 -0.3267
 9000TIP3   OH248490   5.169   5.332   3.496 -0.0373 -0.4024  0.1180
 9000TIP3    H148491   5.095   5.368   3.545 -0.3283 -2.5701  1.4127
 9000TIP3    H248492   5.181   5.244   3.532  2.1474 -0.7153 -1.1902
 9001TIP3   OH248493   0.903   2.603  11.357  0.1320 -0.2903  0.8463
 9001TIP3    H148494   0.904   2.521  11.308 -0.9241  0.1026  0.1196
 9001TIP3    H248495   0.838   2.590  11.425 -0.8670  0.2953  0.0392
 9002TIP3   OH248496   3.112   6.480   3.287 -0.1375  0.6447 -0.4245
 9002TIP3    H148497   3.055   6.512   3.357 -1.3746 -0.2083 -1.0136
 9002TIP3    H248498   3.170   6.418   3.330 -0.7678  0.2602 -0.1187
 9003TIP3   OH248499   3.861   2.246  15.443 -0.1035 -0.1973 -0.2729
 9003TIP3    H148500   3.768   2.241  15.465 -0.1565  0.1691 -0.3891
 9003TIP3    H248501   3.875   2.339  15.423  0.9112  0.3396  2.4729
 9004TIP3   OH248502   3.371   1.198  13.782 -0.3720 -0.0939 -0.1168
 9004TIP3    H148503   3.302   1.243  13.733  0.4134 -0.0373 -1.2197
 9004TIP3    H248504   3.351   1.105  13.772 -1.4840 -0.0615  1.4021
 9005TIP3   OH248505   4.434   5.328   6.095  0.0985  0.5817  0.1137
 9005TIP3    H148506   4.482   5.395   6.144 -0.2089  0.0073  1.2343
 9005TIP3    H248507   4.482   5.247   6.112 -1.0226  0.0724  0.9259
 9006TIP3   OH248508   2.403   5.663   2.833  0.3197  0.0889 -0.3928
 9006TIP3    H148509   2.441   5.578   2.812  1.6384  0.1505  1.4212
 9006TIP3    H248510   2.343   5.645   2.906  1.0425  0.7468  0.3940
 9007TIP3   OH248511   0.046   2.992   1.350 -0.2254  0.2535  0.6441
 9007TIP3    H148512  -0.035   3.021   1.307  0.0306  0.9467  0.6126
 9007TIP3    H248513   0.105   2.970   1.278  0.3340  1.7762  0.6069
 9008TIP3   OH248514   3.386   6.298  15.360 -0.6368 -0.5140 -0.4083
 9008TIP3    H148515   3.385   6.318  15.454 -2.0543  0.2656 -0.5542
 9008TIP3    H248516   3.378   6.202  15.356  0.7262 -0.6747  0.2589
 9009TIP3   OH248517   5.148   0.451  16.822  0.7449  0.0173  0.2359
 9009TIP3    H148518   5.070   0.485  16.866  0.1356 -2.1287  0.9539
 9009TIP3    H248519   5.180   0.525  16.770  0.0986  1.9397  2.3870
 9010TIP3   OH248520   6.741   4.019  16.797  0.3392 -0.2755  0.1301
 9010TIP3    H148521   6.752   3.970  16.716  1.4846  0.3770 -0.1452
 9010TIP3    H248522   6.776   4.106  16.777  0.1756  0.0451  1.1758
 9011TIP3   OH248523   5.287   0.851  13.303  0.3382  0.3631  0.4638
 9011TIP3    H148524   5.366   0.904  13.293  1.0334 -0.2767  2.1985
 9011TIP3    H248525   5.271   0.815  13.215  2.3874 -0.0779  0.2300
 9012TIP3   OH248526   6.027   3.531   2.876 -0.0310  0.4310 -0.0953
 9012TIP3    H148527   5.951   3.476   2.857  0.8713 -0.6592 -0.5895
 9012TIP3    H248528   6.001   3.619   2.847 -2.0725  0.6627  2.0993
 9013TIP3   OH248529   4.895   6.319  17.114  0.4728 -0.0010 -0.1592
 9013TIP3    H148530   4.937   6.234  17.132 -1.9569 -1.0158  1.3153
 9013TIP3    H248531   4.879   6.319  17.020 -1.1168 -2.0850  0.0363
 9014TIP3   OH248532   3.893   5.419  13.789 -0.4363  0.2484 -0.6895
 9014TIP3    H148533   3.848   5.342  13.823 -1.5179  1.5271  0.9061
 9014TIP3    H248534   3.927   5.391  13.704 -0.7842 -1.9704 -0.1656
 9015TIP3   OH248535   4.628   5.852   5.940  0.3322  0.5021  0.0250
 9015TIP3    H148536   4.711   5.844   5.986  0.0361 -0.9989  0.3533
 9015TIP3    H248537   4.572   5.784   5.978 -0.4476  0.2794 -1.4362
 9016TIP3   OH248538   4.135   1.698   4.902  0.4902 -0.2881 -0.3689
 9016TIP3    H148539   4.097   1.782   4.929  0.2378 -0.4260 -0.2961
 9016TIP3    H248540   4.077   1.632   4.938 -1.5040 -0.4634 -3.4865
 9017TIP3   OH248541   5.970   0.099  13.521 -0.1023  0.9658  0.2658
 9017TIP3    H148542   5.939   0.188  13.539 -0.7128  1.0874 -1.3069
 9017TIP3    H248543   5.950   0.084  13.429  0.5311 -0.5981  0.3519
 9018TIP3   OH248544   1.750   6.713  11.394  0.1502  0.4921  0.3063
 9018TIP3    H148545   1.724   6.709  11.302  3.4911  0.8598 -0.8018
 9018TIP3    H248546   1.684   6.661  11.440 -3.8839  3.4323 -1.5963
 9019TIP3   OH248547   4.087   0.756   0.575 -0.1356  0.1835  0.6057
 9019TIP3    H148548   4.134   0.795   0.649 -0.4804 -0.5629  1.2328
 9019TIP3    H248549   3.995   0.759   0.600 -0.1967 -0.7318  0.5355
 9020TIP3   OH248550   0.128   1.447  15.261 -0.2479  0.2330 -0.0391
 9020TIP3    H148551   0.079   1.368  15.285 -0.9426  0.7073  0.1462
 9020TIP3    H248552   0.209   1.442  15.311  0.1833 -0.8812 -0.8260
 9021TIP3   OH248553   0.985   3.383   2.552  0.3510  0.3704 -0.1079
 9021TIP3    H148554   1.052   3.373   2.483 -0.9495 -0.3557 -1.3199
 9021TIP3    H248555   0.909   3.337   2.518 -0.3508  0.0005  1.8528
 9022TIP3   OH248556   5.309   3.873  11.402 -0.0126  0.2523 -0.7724
 9022TIP3    H148557   5.305   3.967  11.419 -0.5646  0.5554 -2.3428
 9022TIP3    H248558   5.306   3.833  11.488  1.0364  1.6837 -0.0251
 9023TIP3   OH248559   6.012   1.718  12.919 -0.3935  0.2497 -0.7648
 9023TIP3    H148560   6.083   1.670  12.876  2.1937  0.0908  3.1430
 9023TIP3    H248561   5.936   1.660  12.914  1.2020 -1.9553 -0.6860
 9024TIP3   OH248562   6.107   2.644   1.853  0.0828 -0.8812  0.2514
 9024TIP3    H148563   6.188   2.604   1.886  0.9465  0.9619  0.5030
 9024TIP3    H248564   6.133   2.733   1.830 -2.3023  0.4507  2.2452
 9025TIP3   OH248565   1.347   1.979  15.132  0.1578 -0.4698 -0.3322
 9025TIP3    H148566   1.333   1.890  15.164  2.0366 -0.1974  1.4980
 9025TIP3    H248567   1.420   1.972  15.072 -2.4056 -0.7228 -3.7218
 9026TIP3   OH248568   4.716   5.214   0.427  0.6732  0.0597  0.8591
 9026TIP3    H148569   4.689   5.303   0.449 -0.5443  0.0237 -0.3069
 9026TIP3    H248570   4.654   5.158   0.475  1.6563 -0.1820  1.8689
 9027TIP3   OH248571   3.372   0.164   2.805  0.2310 -0.2271 -0.1498
 9027TIP3    H148572   3.302   0.202   2.858  1.0205 -0.7078  1.2853
 9027TIP3    H248573   3.345   0.073   2.791 -0.0748 -0.0463 -0.7663
 9028TIP3   OH248574   6.357   6.470   3.079  0.2487 -0.2382  0.4547
 9028TIP3    H148575   6.302   6.391   3.076 -0.1246  0.0390 -1.5839
 9028TIP3    H248576   6.299   6.537   3.114 -0.1852 -0.3650  0.0148
 9029TIP3   OH248577   3.094   1.465   2.346  0.6066  0.1229 -0.0423
 9029TIP3    H148578   3.103   1.425   2.260 -0.2718  1.2354 -0.6732
 9029TIP3    H248579   3.184   1.476   2.377  0.9203 -0.5348 -0.6924
 9030TIP3   OH248580   1.001   2.405  16.774 -0.4292  0.3064 -0.3381
 9030TIP3    H148581   0.910   2.408  16.805  0.1968  1.0699  1.6315
 9030TIP3    H248582   1.025   2.313  16.779 -0.1513  0.4471  2.3425
 9031TIP3   OH248583   3.642   1.022   2.031 -0.4642 -0.2539 -0.0330
 9031TIP3    H148584   3.627   1.112   2.003  1.2562 -0.1413 -0.7175
 9031TIP3    H248585   3.557   0.992   2.063 -1.4628  1.0685 -1.3239
 9032TIP3   OH248586   0.963   2.750   1.837  0.8645  0.3202 -0.2714
 9032TIP3    H148587   1.001   2.835   1.814  1.9059 -0.7704 -3.0186
 9032TIP3    H248588   1.002   2.689   1.775 -0.5280 -2.0392  1.0344
 9033TIP3   OH248589   0.917   1.400  12.464 -0.0772  0.2362  0.4562
 9033TIP3    H148590   0.888   1.455  12.391 -1.5943  0.2475  1.0431
 9033TIP3    H248591   0.970   1.332  12.422 -0.1798  0.7451 -0.5499
 9034TIP3   OH248592   6.263   6.085   2.274  0.5046  0.1572 -0.1624
 9034TIP3    H148593   6.331   6.147   2.246 -0.0147  0.3755 -0.9931
 9034TIP3    H248594   6.195   6.140   2.312 -0.1911  0.1704 -1.3780
 9035TIP3   OH248595   0.835   3.237   2.378  0.1527  0.5462  0.2550
 9035TIP3    H148596   0.852   3.221   2.286  0.9078  1.4974  0.2151
 9035TIP3    H248597   0.740   3.241   2.385  0.1076  1.5375 -0.6823
 9036TIP3   OH248598   0.104   0.032   3.705 -0.3027 -0.9231  0.2931
 9036TIP3    H148599   0.158   0.018   3.627  2.4950  0.2872  1.8960
 9036TIP3    H248600   0.148   0.102   3.753 -3.8082  0.7942  1.3515
 9037TIP3   OH248601   2.132   2.418   3.522 -0.0834  0.0735  0.4522
 9037TIP3    H148602   2.174   2.376   3.447 -1.8893  0.6942 -0.9780
 9037TIP3    H248603   2.061   2.358   3.546  1.3143 -0.8294  2.6473
 9038TIP3   OH248604   4.499   4.096  15.936  0.0826 -0.1764  0.2312
 9038TIP3    H148605   4.415   4.090  15.982 -0.9923  0.3023 -1.5767
 9038TIP3    H248606   4.521   4.005  15.915  0.9712 -0.4828  2.2544
 9039TIP3   OH248607   0.870   1.450  11.788  0.0271  0.5112 -0.0152
 9039TIP3    H148608   0.811   1.524  11.802  1.1681  1.4249  0.0778
 9039TIP3    H248609   0.896   1.423  11.876 -2.3363 -1.6933  0.1293
 9040TIP3   OH248610   4.364   2.221   2.036 -0.1402 -0.1557 -0.5551
 9040TIP3    H148611   4.425   2.288   2.066 -0.3528  0.0267 -0.5275
 9040TIP3    H248612   4.291   2.225   2.098 -1.0394  0.8951 -1.6490
 9041TIP3   OH248613   0.592   3.251  14.242  0.1999  0.4092 -0.3031
 9041TIP3    H148614   0.679   3.271  14.208  1.0826 -0.5585  1.2806
 9041TIP3    H248615   0.600   3.262  14.336 -1.5788  0.8773 -0.1760
 9042TIP3   OH248616   5.393   5.454  16.684 -0.0529 -0.1878 -0.4105
 9042TIP3    H148617   5.309   5.501  16.682 -0.8849 -1.4940  1.0264
 9042TIP3    H248618   5.459   5.523  16.685 -1.0923  0.8869 -1.5534
 9043TIP3   OH248619   3.949   1.618  14.349 -0.3250  0.0879  0.0640
 9043TIP3    H148620   3.942   1.710  14.377 -2.8203  0.5601 -1.7393
 9043TIP3    H248621   3.903   1.569  14.417  0.2597  0.2725  0.5986
 9044TIP3   OH248622   4.927   2.430   2.535 -0.5080  0.1805 -0.2463
 9044TIP3    H148623   5.002   2.439   2.594  0.1892 -0.4297 -1.0300
 9044TIP3    H248624   4.855   2.473   2.582  0.5630  1.7335  0.0587
 9045TIP3   OH248625   2.196   4.660  14.531  0.3699  0.7578  0.2531
 9045TIP3    H148626   2.138   4.728  14.498 -1.3205 -0.8356 -0.2157
 9045TIP3    H248627   2.217   4.607  14.453 -0.9240 -1.0759  1.0911
 9046TIP3   OH248628   5.934   6.672  13.053  0.2820  0.0413 -0.4863
 9046TIP3    H148629   5.927   6.733  13.126 -0.3546 -0.8336  0.2070
 9046TIP3    H248630   5.973   6.593  13.092 -2.0614 -1.2334 -0.5573
 9047TIP3   OH248631   6.742   1.605   5.099  0.4967  0.4440  0.0257
 9047TIP3    H148632   6.822   1.553   5.109  0.1163 -0.1430  0.0423
 9047TIP3    H248633   6.771   1.696   5.111  1.1428  0.2293  0.1301
 9048TIP3   OH248634   5.005   5.681   4.044 -0.2914 -0.2061 -0.1342
 9048TIP3    H148635   5.021   5.703   4.136 -0.8654  1.2748 -0.3597
 9048TIP3    H248636   4.910   5.665   4.040  0.0351 -2.4432 -0.0701
 9049TIP3   OH248637   6.552   3.794   5.919  0.0030  0.2838  0.2008
 9049TIP3    H148638   6.511   3.747   5.847  0.4835 -1.4402  1.0163
 9049TIP3    H248639   6.577   3.878   5.881 -2.9434  0.8791 -0.6948
 9050TIP3   OH248640   1.853   5.310   6.136  0.1772 -0.2644  0.0687
 9050TIP3    H148641   1.769   5.346   6.107  0.2712 -0.6090 -0.6533
 9050TIP3    H248642   1.864   5.344   6.225 -0.0455  0.9476 -0.3531
 9051TIP3   OH248643   4.876   0.252  13.800  0.0851  0.4830  0.4429
 9051TIP3    H148644   4.806   0.223  13.741  0.6849  0.1446 -0.1289
 9051TIP3    H248645   4.839   0.246  13.887 -0.6419  0.4412  0.1359
 9052TIP3   OH248646   0.573   6.132   2.914  0.5258 -0.1842 -0.3652
 9052TIP3    H148647   0.486   6.099   2.938  0.9753  0.5348  2.6056
 9052TIP3    H248648   0.567   6.148   2.819 -1.6378 -2.8102 -0.7897
 9053TIP3   OH248649   5.218   0.427   6.310  0.3557 -0.3295 -0.0486
 9053TIP3    H148650   5.199   0.439   6.217 -0.6262  0.7483  0.2737
 9053TIP3    H248651   5.313   0.412   6.313  0.9972  2.7404 -1.0001
 9054TIP3   OH248652   3.087   0.303   0.335  0.7738  0.2810  0.1095
 9054TIP3    H148653   3.120   0.347   0.257  1.7572 -0.5801  0.0138
 9054TIP3    H248654   3.088   0.210   0.312 -0.0439  0.0988  0.7464
 9055TIP3   OH248655   4.860   0.471  14.948 -0.7261 -0.5485  0.1083
 9055TIP3    H148656   4.782   0.443  14.901  1.4809 -2.7148 -2.5827
 9055TIP3    H248657   4.907   0.390  14.969  0.0912  0.5565  3.2039
 9056TIP3   OH248658   4.512   1.032   3.597  0.2119  0.0511  0.0949
 9056TIP3    H148659   4.463   1.084   3.534 -2.1484  0.9173  2.4679
 9056TIP3    H248660   4.503   0.942   3.565  0.5665  0.5986 -1.6672
 9057TIP3   OH248661   2.041   5.973  12.031 -0.0528 -0.3603  0.3516
 9057TIP3    H148662   1.973   5.914  12.065  1.0020 -2.3457 -0.7830
 9057TIP3    H248663   2.051   5.947  11.939  2.3315 -0.2157  0.5325
 9058TIP3   OH248664   4.033   2.653   0.352  0.1694  0.0508  0.3201
 9058TIP3    H148665   4.025   2.569   0.397 -1.9275  0.4365  0.7455
 9058TIP3    H248666   4.102   2.699   0.400  1.4741 -1.4437 -0.0230
 9059TIP3   OH248667   4.872   1.773  12.563 -0.2345  0.0068  0.0451
 9059TIP3    H148668   4.811   1.845  12.578 -0.0487  0.3282 -0.7213
 9059TIP3    H248669   4.948   1.814  12.522  0.7298 -0.2977  1.4269
 9060TIP3   OH248670   5.907   4.677   5.268  0.6990 -0.3310  0.0280
 9060TIP3    H148671   5.900   4.687   5.173 -0.0765  0.8536  0.1910
 9060TIP3    H248672   5.877   4.761   5.303 -1.0141 -1.4492  1.3895
 9061TIP3   OH248673   0.409   3.998  15.353 -0.4959 -0.1815  0.6300
 9061TIP3    H148674   0.347   3.931  15.385 -1.7383  1.8416  2.7502
 9061TIP3    H248675   0.359   4.047  15.287 -0.5396  0.3247  1.0355
 9062TIP3   OH248676   5.529   1.350  13.190 -0.0825 -0.5270 -0.0658
 9062TIP3    H148677   5.515   1.428  13.135 -1.4240 -1.2419 -0.7841
 9062TIP3    H248678   5.535   1.385  13.279 -0.6511  0.4118 -0.3783
 9063TIP3   OH248679   0.638   5.180   6.106  0.2295 -0.0127 -0.1620
 9063TIP3    H148680   0.659   5.237   6.032  0.4294  0.7720  0.4811
 9063TIP3    H248681   0.613   5.096   6.066 -0.7675  0.7283 -1.1606
 9064TIP3   OH248682   1.402   4.919   2.902 -0.5321 -0.9445  0.0061
 9064TIP3    H148683   1.385   4.941   2.994  3.7150 -1.8598  1.2480
 9064TIP3    H248684   1.428   4.827   2.903  2.1495 -0.3369 -1.5536
 9065TIP3   OH248685   1.342   3.868   2.136  0.0315  0.3234  0.4981
 9065TIP3    H148686   1.258   3.913   2.150  1.4122  2.7774  1.7061
 9065TIP3    H248687   1.407   3.938   2.139  2.2423 -1.6106  0.6822
 9066TIP3   OH248688   6.402   2.408  13.370 -0.6913  0.6017 -0.5935
 9066TIP3    H148689   6.441   2.339  13.318 -2.2009  0.2028 -1.2345
 9066TIP3    H248690   6.307   2.393  13.365 -1.0186  2.2075 -0.0635
 9067TIP3   OH248691   4.703   1.957   2.625 -0.1952  0.4783  0.2087
 9067TIP3    H148692   4.716   1.957   2.531  0.3447  0.8459  0.2766
 9067TIP3    H248693   4.757   2.030   2.657  0.3781 -0.2354  0.9034
 9068TIP3   OH248694   0.059   3.977   0.275  0.2911  0.4424  0.0100
 9068TIP3    H148695  -0.019   4.032   0.275  0.4990  0.7912 -1.4177
 9068TIP3    H248696   0.070   3.952   0.183  0.3266 -1.8286  0.5729
 9069TIP3   OH248697   5.424   3.052   5.809 -0.1780  0.1014 -0.4445
 9069TIP3    H148698   5.330   3.035   5.812 -0.1039 -0.1605  1.2091
 9069TIP3    H248699   5.464   2.970   5.838  0.4738  0.7433  0.5237
 9070TIP3   OH248700   0.366   3.773   2.993 -0.2990 -0.3894 -0.0780
 9070TIP3    H148701   0.308   3.838   3.032 -0.2733 -0.8159  0.6969
 9070TIP3    H248702   0.375   3.705   3.060  0.9392 -0.4223 -0.2421
 9071TIP3   OH248703   1.345   3.801   3.625  0.2255 -0.0870 -0.4290
 9071TIP3    H148704   1.347   3.882   3.676 -1.5860  0.8283 -1.6840
 9071TIP3    H248705   1.366   3.732   3.688  0.8163  1.2595  0.8954
 9072TIP3   OH248706   2.329   1.354   1.840 -0.0680 -0.0312  0.1029
 9072TIP3    H148707   2.366   1.266   1.843 -0.0326 -0.0043  0.8038
 9072TIP3    H248708   2.309   1.370   1.748  2.9206  0.4506 -0.5801
 9073TIP3   OH248709   2.930   6.464   4.576  0.0024 -0.3827 -0.1137
 9073TIP3    H148710   2.957   6.391   4.520  0.4983 -0.7819  0.6280
 9073TIP3    H248711   3.009   6.517   4.587 -0.1489 -0.1836  0.0137
 9074TIP3   OH248712   2.286   0.868  11.659  0.1376 -0.6099  0.8070
 9074TIP3    H148713   2.349   0.871  11.587 -0.8526  0.2770 -0.0731
 9074TIP3    H248714   2.338   0.848  11.737  1.0282 -3.5230 -0.3892
 9075TIP3   OH248715   2.079   1.770   5.306  0.0791  0.1868  0.5548
 9075TIP3    H148716   2.165   1.733   5.283  0.2254  0.1056  1.1972
 9075TIP3    H248717   2.091   1.803   5.395 -0.5620  0.1667  0.6508
 9076TIP3   OH248718   3.171   3.978  15.018  0.4995  0.2755  0.0666
 9076TIP3    H148719   3.120   3.915  14.969 -0.0902  0.2119  0.7385
 9076TIP3    H248720   3.121   3.992  15.099 -0.6911  3.3946 -1.0307
 9077TIP3   OH248721   3.595   6.371   5.410 -0.2628 -0.0175 -0.2001
 9077TIP3    H148722   3.597   6.289   5.361 -2.3448 -0.8472  0.9622
 9077TIP3    H248723   3.685   6.382   5.441  0.0626 -1.8796 -0.3441
 9078TIP3   OH248724   1.106   6.732  14.512  0.1092  0.7828  0.4816
 9078TIP3    H148725   1.158   6.740  14.592 -1.8383  1.6584  1.7235
 9078TIP3    H248726   1.015   6.736  14.541 -0.6798  0.6423 -1.7413
 9079TIP3   OH248727   0.046   3.706  16.040 -0.0818 -0.4671 -0.9827
 9079TIP3    H148728  -0.041   3.669  16.052 -0.0268 -0.5526 -0.8431
 9079TIP3    H248729   0.065   3.749  16.124  0.5876 -1.6496 -0.4976
 9080TIP3   OH248730   4.016   5.474  14.403 -0.4698  0.3976  0.0680
 9080TIP3    H148731   3.954   5.408  14.370  1.3073 -0.4292 -1.8913
 9080TIP3    H248732   4.073   5.492  14.328  0.1633  2.9422  1.0655
 9081TIP3   OH248733   0.835   5.979  11.724 -0.4829 -0.0594 -0.5018
 9081TIP3    H148734   0.743   5.958  11.707 -0.4054 -1.2972  0.4476
 9081TIP3    H248735   0.832   6.049  11.791 -0.7426 -0.6942  0.1616
 9082TIP3   OH248736   1.518   4.079  15.035  0.3395 -0.3402  0.4829
 9082TIP3    H148737   1.612   4.088  15.018  0.4560  0.0166  1.2930
 9082TIP3    H248738   1.503   3.984  15.036  0.3055 -0.3959 -1.6460
 9083TIP3   OH248739   6.034   4.895  12.326  0.0033 -0.0117 -0.8227
 9083TIP3    H148740   6.063   4.814  12.284 -3.7909 -1.2614 -1.3405
 9083TIP3    H248741   6.095   4.961  12.292  2.4306 -2.3455 -1.3928
 9084TIP3   OH248742   0.437   2.669  12.256  0.0989  0.4469 -0.0075
 9084TIP3    H148743   0.371   2.676  12.188 -0.3094  1.1586  0.4477
 9084TIP3    H248744   0.400   2.718  12.330  0.8551  0.3115  0.4665
 9085TIP3   OH248745   4.329   2.000  11.389  0.9906  0.3279 -0.0454
 9085TIP3    H148746   4.274   2.066  11.347 -1.2822  0.5013  2.8133
 9085TIP3    H248747   4.357   1.943  11.318 -1.2523  1.4454 -1.9802
 9086TIP3   OH248748   3.455   3.855   2.171  0.4819  0.1626 -0.3739
 9086TIP3    H148749   3.393   3.782   2.167  1.1075 -0.3337 -2.3576
 9086TIP3    H248750   3.503   3.841   2.252  0.4320 -1.5170 -0.5979
 9087TIP3   OH248751   1.754   3.207  11.276 -0.4121 -0.0683  0.3374
 9087TIP3    H148752   1.808   3.132  11.250  0.3971  0.8008 -0.5770
 9087TIP3    H248753   1.686   3.169  11.331  0.4382 -1.3706  0.5529
 9088TIP3   OH248754   5.983   2.484  16.874 -0.0157  0.7313  0.1987
 9088TIP3    H148755   5.921   2.534  16.820  0.4792  0.0491 -1.0401
 9088TIP3    H248756   6.013   2.413  16.817 -0.3517 -0.7225  1.7792
 9089TIP3   OH248757   5.948   5.773  16.037 -0.2963  0.1763 -0.1413
 9089TIP3    H148758   5.999   5.835  15.984 -0.5887  0.2061 -0.3919
 9089TIP3    H248759   5.956   5.690  15.991  0.6060 -0.1189  0.5264
 9090TIP3   OH248760   3.325   2.312  15.493  0.1423 -0.0759 -0.4017
 9090TIP3    H148761   3.251   2.353  15.538 -0.1986 -1.2543  0.1457
 9090TIP3    H248762   3.402   2.359  15.525 -0.3174  0.9265 -0.7070
 9091TIP3   OH248763   6.649   3.926   2.287 -0.4029  0.4729 -0.4827
 9091TIP3    H148764   6.742   3.922   2.307 -0.3973  0.4330 -0.5161
 9091TIP3    H248765   6.609   3.965   2.364 -0.2344  1.4136 -0.8564
 9092TIP3   OH248766   5.668   3.979  14.755 -0.3177  0.1593 -0.4153
 9092TIP3    H148767   5.603   3.971  14.684 -0.7492 -1.0474  0.0935
 9092TIP3    H248768   5.698   3.890  14.769  0.1670  0.4725  0.5614
 9093TIP3   OH248769   3.048   6.512  12.313  0.1928 -0.1286  0.2352
 9093TIP3    H148770   3.137   6.482  12.328  0.4693  0.8499  0.6059
 9093TIP3    H248771   3.018   6.542  12.399 -0.1312  0.5082 -0.0954
 9094TIP3   OH248772   2.069   0.665  16.864  0.1536  0.1208  0.3366
 9094TIP3    H148773   2.090   0.586  16.913  0.2613 -0.8931 -1.2921
 9094TIP3    H248774   2.141   0.725  16.882 -0.9193  0.6972  3.2308
 9095TIP3   OH248775   4.835   0.550   3.561  0.1550  0.4457 -0.6382
 9095TIP3    H148776   4.741   0.563   3.573  0.1108  0.2765 -0.8026
 9095TIP3    H248777   4.866   0.517   3.645  0.0883  0.6159 -0.5460
 9096TIP3   OH248778   6.746   6.437  13.882 -0.3240  0.0939 -0.1852
 9096TIP3    H148779   6.742   6.531  13.861 -3.4588 -0.0899 -0.8521
 9096TIP3    H248780   6.706   6.430  13.969 -2.3459 -0.7950 -1.1279
 9097TIP3   OH248781   3.070   4.644   1.581  0.3935 -0.1498  0.3451
 9097TIP3    H148782   3.125   4.613   1.509 -0.2836 -1.0575  0.1944
 9097TIP3    H248783   3.015   4.712   1.541  0.0899 -0.5794  0.0255
 9098TIP3   OH248784   1.315   2.913   1.564 -0.0750  0.1836 -0.0684
 9098TIP3    H148785   1.384   2.851   1.587  0.5144  0.7197 -0.3581
 9098TIP3    H248786   1.305   2.904   1.469 -1.2883 -0.7855  0.1304
 9099TIP3   OH248787   4.471   2.538   5.281 -0.3456  0.3267  0.2923
 9099TIP3    H148788   4.563   2.525   5.303 -0.4670  0.7124  1.0394
 9099TIP3    H248789   4.472   2.566   5.190  0.2464 -0.0829  0.1646
 9100TIP3   OH248790   4.273   0.630   5.670  0.9985 -0.1064 -0.1095
 9100TIP3    H148791   4.245   0.717   5.643  0.7321 -0.3981 -0.8003
 9100TIP3    H248792   4.365   0.625   5.646  1.2221  0.2511  0.6337
 9101TIP3   OH248793   6.176   5.268   1.454  0.2563 -0.3811  0.2914
 9101TIP3    H148794   6.117   5.198   1.426  0.9874 -0.4684 -1.1296
 9101TIP3    H248795   6.223   5.293   1.375  1.1294  0.6526  1.0998
 9102TIP3   OH248796   2.131   1.605  12.280 -0.0086 -0.5404  0.5598
 9102TIP3    H148797   2.180   1.610  12.362  3.1708  2.5325 -1.2176
 9102TIP3    H248798   2.157   1.521  12.242 -0.0865 -1.1746  1.8452
 9103TIP3   OH248799   2.878   2.707   0.499  0.3000 -0.1755 -0.1864
 9103TIP3    H148800   2.822   2.705   0.421 -0.6502  0.9744  0.4291
 9103TIP3    H248801   2.827   2.662   0.566  0.3884  0.2811  0.1968
 9104TIP3   OH248802   0.649   3.786  12.558 -0.7890  0.2507 -0.3753
 9104TIP3    H148803   0.629   3.693  12.549  2.0767 -0.7503  1.9546
 9104TIP3    H248804   0.688   3.811  12.474  0.0947 -1.1943 -0.4281
 9105TIP3   OH248805   0.579   6.629  12.779 -0.2117  0.5945 -0.8403
 9105TIP3    H148806   0.492   6.597  12.803  0.4694 -0.4046  0.4337
 9105TIP3    H248807   0.578   6.633  12.683 -0.4231 -3.2726 -1.1636
 9106TIP3   OH248808   5.204   2.633  13.768  0.3254 -0.5982 -0.8451
 9106TIP3    H148809   5.253   2.688  13.829  0.7743 -0.8638 -0.9560
 9106TIP3    H248810   5.158   2.694  13.711  1.3836 -0.3046 -1.4320
 9107TIP3   OH248811   1.436   6.749  15.418  0.2364  0.2250  0.4934
 9107TIP3    H148812   1.505   6.791  15.468  0.2934 -0.5719  1.1076
 9107TIP3    H248813   1.367   6.732  15.482  0.3658 -0.9206  0.3491
 9108TIP3   OH248814   5.798   6.396  11.366 -0.2927 -0.6020  0.2177
 9108TIP3    H148815   5.756   6.364  11.287  0.7415 -1.1361 -0.1236
 9108TIP3    H248816   5.730   6.448  11.410 -0.2527  1.6221 -2.1251
 9109TIP3   OH248817   1.745   6.298   3.323 -0.0291  0.2217 -0.0638
 9109TIP3    H148818   1.687   6.351   3.376  0.3591  1.3029 -0.6748
 9109TIP3    H248819   1.688   6.256   3.258 -0.7416 -2.3710  2.0742
 9110TIP3   OH248820   5.654   3.124   0.343 -0.3799  0.0826 -0.2312
 9110TIP3    H148821   5.700   3.066   0.282 -0.3417 -1.0761  0.8554
 9110TIP3    H248822   5.576   3.151   0.295  1.1389  1.7275 -1.9417
 9111TIP3   OH248823   0.252   5.134   0.943 -0.1151  0.5680  0.1040
 9111TIP3    H148824   0.302   5.061   0.907 -0.9957 -0.8540  1.6413
 9111TIP3    H248825   0.317   5.188   0.988  0.6280  1.0915 -1.5159
 9112TIP3   OH248826   5.388   3.209   2.544  0.2730 -0.3642  0.2438
 9112TIP3    H148827   5.398   3.291   2.591  2.9220  0.3831 -1.4336
 9112TIP3    H248828   5.338   3.153   2.604 -0.1998  1.8924  2.0940
 9113TIP3   OH248829   1.774   1.434  12.746 -0.4368  0.4064  0.3053
 9113TIP3    H148830   1.789   1.429  12.841  0.3766  0.3462  0.1827
 9113TIP3    H248831   1.861   1.445  12.709 -0.7035 -0.0268 -0.4699
 9114TIP3   OH248832   3.426   0.754  13.443 -0.1815  0.1642 -0.3231
 9114TIP3    H148833   3.409   0.660  13.446  0.4227 -0.0963 -2.9082
 9114TIP3    H248834   3.466   0.773  13.528  0.0622 -1.9862  0.1106
 9115TIP3   OH248835   4.980   0.375  14.187  0.2134 -0.2506 -0.4958
 9115TIP3    H148836   5.007   0.400  14.276 -2.9954  1.1438  0.2407
 9115TIP3    H248837   5.058   0.388  14.134  1.5894  1.3271  1.7141
 9116TIP3   OH248838   6.142   1.015   1.279 -0.2995 -0.0742 -0.7001
 9116TIP3    H148839   6.193   0.985   1.204 -0.0436  0.5505 -0.7840
 9116TIP3    H248840   6.066   1.058   1.240  0.7962  1.9943 -0.6858
 9117TIP3   OH248841   6.582   4.517  13.094  0.2511  0.5761  0.3452
 9117TIP3    H148842   6.516   4.447  13.095  0.7223  0.1197  0.3387
 9117TIP3    H248843   6.643   4.494  13.165  0.1880  1.2028  0.6074
 9118TIP3   OH248844   0.968   6.711  11.161 -0.2698  0.2091  0.0685
 9118TIP3    H148845   0.985   6.805  11.162 -0.3993  0.2313  0.7019
 9118TIP3    H248846   1.035   6.674  11.219 -0.4206 -0.0540  0.0752
 9119TIP3   OH248847   0.866   0.466   1.124 -0.0291 -0.1036 -0.2242
 9119TIP3    H148848   0.932   0.424   1.069  0.4668  0.2441  0.1032
 9119TIP3    H248849   0.878   0.559   1.109  1.7906  0.1881  2.2968
 9120TIP3   OH248850   5.179   5.518   2.502 -0.3072 -0.1698  0.4347
 9120TIP3    H148851   5.131   5.464   2.564 -1.2639  0.5805  0.3696
 9120TIP3    H248852   5.269   5.520   2.536 -0.6142 -0.5163  1.2838
 9121TIP3   OH248853   6.693   2.334   4.450  0.0198  0.2878  0.0368
 9121TIP3    H148854   6.679   2.429   4.447 -1.0435  0.1293 -0.3225
 9121TIP3    H248855   6.665   2.303   4.364  0.4289 -0.3491  0.1312
 9122TIP3   OH248856   2.487   5.779   2.486 -0.2487 -0.5548 -0.3038
 9122TIP3    H148857   2.579   5.804   2.480  0.0076 -1.0274  1.1522
 9122TIP3    H248858   2.485   5.687   2.460 -0.1976 -0.7331  0.3167
 9123TIP3   OH248859   1.969   4.596  14.327  0.1939 -0.3081 -0.2005
 9123TIP3    H148860   1.920   4.597  14.245  0.1244 -1.6464 -0.2047
 9123TIP3    H248861   1.917   4.650  14.387 -0.7147 -0.7816 -0.5354
 9124TIP3   OH248862   3.956   1.877  12.571 -0.6593 -0.1151  0.4943
 9124TIP3    H148863   3.868   1.910  12.591 -0.4030  2.0383 -1.4165
 9124TIP3    H248864   3.945   1.826  12.491 -0.2795 -0.4999  0.6817
 9125TIP3   OH248865   2.154   0.871   5.074 -0.0284 -0.0947 -0.1918
 9125TIP3    H148866   2.151   0.935   5.002  0.3380 -0.0902 -0.2068
 9125TIP3    H248867   2.242   0.834   5.069 -0.5011 -1.2127 -0.7078
 9126TIP3   OH248868   0.285   4.933   4.017 -0.1730 -0.0995 -0.0394
 9126TIP3    H148869   0.212   4.958   4.074 -0.2188 -0.6855  0.1701
 9126TIP3    H248870   0.354   4.905   4.078 -0.3981 -1.1952 -0.2726
 9127TIP3   OH248871   6.083   4.551   5.433  0.2663 -0.3618  0.0026
 9127TIP3    H148872   6.044   4.603   5.362  0.4344 -0.5795 -0.2520
 9127TIP3    H248873   6.160   4.510   5.393 -0.1790 -1.2601  0.0426
 9128TIP3   OH248874   1.090   4.020  12.176 -0.0554 -0.6323  0.0908
 9128TIP3    H148875   1.113   4.101  12.132 -1.3731  0.4184  1.2524
 9128TIP3    H248876   1.100   3.952  12.109  0.0427  0.6146 -1.1935
 9129TIP3   OH248877   5.334   5.179   0.600 -0.2129  0.1387  0.5598
 9129TIP3    H148878   5.315   5.206   0.510 -1.6467 -0.4956  0.6465
 9129TIP3    H248879   5.429   5.174   0.604  0.0812  3.1414 -0.0401
 9130TIP3   OH248880   0.146   4.646   4.034 -0.1990  0.1399 -0.2221
 9130TIP3    H148881   0.190   4.681   3.957 -0.7962  2.1000  0.2747
 9130TIP3    H248882   0.117   4.558   4.007  1.3197 -0.0158 -1.5369
 9131TIP3   OH248883   4.756   1.995  11.337  0.6653 -0.4862  0.1340
 9131TIP3    H148884   4.687   1.969  11.276  1.1947 -0.5248 -0.4524
 9131TIP3    H248885   4.790   2.077  11.301 -0.1366  0.3903  1.2860
 9132TIP3   OH248886   5.634   6.711  15.406  0.6472  0.4250  0.2367
 9132TIP3    H148887   5.559   6.757  15.444  0.7728  0.3144  0.6127
 9132TIP3    H248888   5.689   6.687  15.480  0.9522  0.3178 -0.0218
 9133TIP3   OH248889   3.722   2.059  13.355  0.2099 -0.8197 -0.6439
 9133TIP3    H148890   3.770   2.027  13.279  0.0431 -1.9638 -0.2911
 9133TIP3    H248891   3.631   2.063  13.327  0.1388 -1.3072 -0.4969
 9134TIP3   OH248892   0.282   4.037  12.299  0.1384 -0.1826 -0.0059
 9134TIP3    H148893   0.282   3.942  12.303 -1.0525 -0.1731  0.5851
 9134TIP3    H248894   0.307   4.065  12.387  0.0772  0.0503 -0.0618
 9135TIP3   OH248895   2.881   2.755  15.481 -0.0084 -0.2795  0.5491
 9135TIP3    H148896   2.789   2.729  15.482 -0.0700 -0.1722 -0.7325
 9135TIP3    H248897   2.917   2.714  15.402  0.1747  2.4592 -0.9116
 9136TIP3   OH248898   3.964   2.722  13.411  0.0252  0.1692  0.1535
 9136TIP3    H148899   3.868   2.719  13.408 -0.0006 -0.4230  0.9981
 9136TIP3    H248900   3.984   2.791  13.473  0.0613 -1.4418  2.0357
 9137TIP3   OH248901   4.750   1.977  12.239 -0.4617 -0.0411 -0.2160
 9137TIP3    H148902   4.677   1.933  12.196 -0.4961 -0.3424  0.1468
 9137TIP3    H248903   4.712   2.056  12.277 -0.8571 -0.7909  0.9972
 9138TIP3   OH248904   3.021   0.414   4.561 -0.2034 -0.2330  0.5665
 9138TIP3    H148905   3.096   0.421   4.501 -0.6126  0.8246  0.1597
 9138TIP3    H248906   3.016   0.320   4.582  1.1357 -0.3426  0.4823
 9139TIP3   OH248907   6.475   1.525   5.119 -0.7237  0.1172  0.2270
 9139TIP3    H148908   6.516   1.610   5.105 -0.8260  0.1421  0.0636
 9139TIP3    H248909   6.516   1.491   5.198  0.1277 -0.1759 -0.3258
 9140TIP3   OH248910   0.953   4.236   2.798  0.2310 -0.5943  0.2442
 9140TIP3    H148911   1.005   4.289   2.858  0.6149 -0.2316 -0.4093
 9140TIP3    H248912   0.884   4.199   2.854  0.7446 -0.4890  0.9650
 9141TIP3   OH248913   0.494   4.676   0.316 -0.2880 -0.1849  0.1948
 9141TIP3    H148914   0.497   4.597   0.369  0.0930 -0.0005  0.4549
 9141TIP3    H248915   0.410   4.672   0.271 -0.7541 -0.2052  1.0361
 9142TIP3   OH248916   2.985   5.614  10.577  0.0836 -0.6490  0.1034
 9142TIP3    H148917   2.904   5.642  10.619  0.0723 -0.1837 -0.2170
 9142TIP3    H248918   3.043   5.591  10.649  0.5114  1.3590  0.4454
 9143TIP3   OH248919   5.671   6.629  12.092  0.2168  0.6485  0.0652
 9143TIP3    H148920   5.679   6.569  12.018  0.7740  0.8562 -0.0500
 9143TIP3    H248921   5.758   6.667  12.101 -0.4047  2.3584 -0.6404
 9144TIP3   OH248922   5.091   3.624  11.463 -0.4715 -0.5034  0.0714
 9144TIP3    H148923   5.019   3.675  11.426 -1.2885 -1.6110  0.0710
 9144TIP3    H248924   5.084   3.639  11.557  0.9606  1.4827 -0.0918
 9145TIP3   OH248925   3.793   2.670  16.472  0.2085  0.2884  0.1133
 9145TIP3    H148926   3.842   2.607  16.418  0.6900  0.6695  0.0962
 9145TIP3    H248927   3.755   2.617  16.542  0.4321 -0.0541 -0.0209
 9146TIP3   OH248928   0.952   4.965   2.459 -0.2813 -0.1623  0.0687
 9146TIP3    H148929   1.048   4.955   2.460 -0.2072  0.4393 -0.4783
 9146TIP3    H248930   0.923   4.907   2.388 -0.1954  0.6385 -0.6324
 9147TIP3   OH248931   0.688   3.632  12.076  0.5224  0.0504 -0.1708
 9147TIP3    H148932   0.750   3.576  12.030  1.0627 -0.0778  0.6951
 9147TIP3    H248933   0.713   3.721  12.052  2.9155  0.2003  2.3323
 9148TIP3   OH248934   6.563   4.157   6.027  0.4481  0.2319  0.1954
 9148TIP3    H148935   6.616   4.079   6.009  1.9537  1.2399 -0.0094
 9148TIP3    H248936   6.576   4.212   5.949  0.2602  1.1203  0.7831
 9149TIP3   OH248937   1.334   0.078  16.552 -0.2776 -0.3002 -0.2799
 9149TIP3    H148938   1.330  -0.016  16.533 -1.5675 -0.0899 -1.1644
 9149TIP3    H248939   1.251   0.098  16.595 -0.5877  0.6548 -1.2609
 9150TIP3   OH248940   4.281   6.528  14.380 -0.1070  0.3923 -0.3367
 9150TIP3    H148941   4.323   6.605  14.341 -0.3181  0.5435 -0.2674
 9150TIP3    H248942   4.349   6.460  14.379 -0.0900  0.4179 -0.8967
 9151TIP3   OH248943   3.312   4.213  15.035  0.3585  0.1912  0.2339
 9151TIP3    H148944   3.284   4.296  15.075 -0.4751  0.2933 -0.5199
 9151TIP3    H248945   3.255   4.147  15.075  0.6402  0.0579  0.4182
 9152TIP3   OH248946   3.556   6.583  13.910  0.3265  0.0587  0.7621
 9152TIP3    H148947   3.605   6.502  13.925  0.1800 -0.1075  0.3549
 9152TIP3    H248948   3.537   6.616  13.998  0.5396 -0.2552  0.9290
 9153TIP3   OH248949   4.599   2.058   2.288 -0.1539  0.5475  0.6556
 9153TIP3    H148950   4.622   1.990   2.225 -0.8995  1.1879 -0.3426
 9153TIP3    H248951   4.648   2.135   2.260 -2.7462  1.7149 -1.0665
 9154TIP3   OH248952   0.863   3.497   2.252  0.2370  0.3762 -0.1690
 9154TIP3    H148953   0.893   3.433   2.317  0.5264 -0.9009 -1.5063
 9154TIP3    H248954   0.809   3.559   2.302 -0.9543 -1.5089  0.9919
 9155TIP3   OH248955   4.373   6.360  11.900 -0.2810  0.7035  0.3255
 9155TIP3    H148956   4.337   6.334  11.985 -2.1275 -0.3200 -0.7012
 9155TIP3    H248957   4.317   6.432  11.872 -0.9983 -0.3066 -0.9085
 9156TIP3   OH248958   4.122   2.617  13.073 -0.2995  0.1258  0.1583
 9156TIP3    H148959   4.133   2.574  13.158 -0.7428  0.6858  0.5023
 9156TIP3    H248960   4.068   2.555  13.022 -2.4750  0.9994  1.2519
 9157TIP3   OH248961   5.385   2.001  15.619  0.1728  0.3484 -0.3575
 9157TIP3    H148962   5.341   2.086  15.617 -0.7874 -0.1518 -1.4580
 9157TIP3    H248963   5.478   2.023  15.631 -0.1273  1.5127 -0.0172
 9158TIP3   OH248964   5.366   4.107  10.557 -0.2869  0.5183 -0.4035
 9158TIP3    H148965   5.420   4.183  10.536  0.3737 -0.1303 -1.1221
 9158TIP3    H248966   5.304   4.139  10.622  0.7482  1.3696  0.2016
 9159TIP3   OH248967   0.843   1.631   5.492 -0.0228  0.3155 -0.0764
 9159TIP3    H148968   0.821   1.710   5.542 -1.2496 -0.0038 -0.0604
 9159TIP3    H248969   0.835   1.560   5.556 -1.7701 -0.1132 -0.7196
 9160TIP3   OH248970   1.397   0.449   0.987 -0.0277  0.0379 -0.3904
 9160TIP3    H148971   1.419   0.542   0.998  0.9719 -0.3697  1.4752
 9160TIP3    H248972   1.478   0.409   0.955 -0.7440 -0.0550 -2.1576
 9161TIP3   OH248973   2.845   5.157  14.853 -0.0391  0.2499 -0.0600
 9161TIP3    H148974   2.793   5.238  14.855  0.5778  0.6824 -0.9687
 9161TIP3    H248975   2.909   5.171  14.783  1.6935 -0.0419  1.4147
 9162TIP3   OH248976   2.803   0.437  13.127 -0.0572  0.4512  0.7911
 9162TIP3    H148977   2.733   0.405  13.184  0.9767 -1.2464  1.2123
 9162TIP3    H248978   2.882   0.432  13.183  0.7806 -0.0935 -0.3916
 9163TIP3   OH248979   4.660   0.689  13.663 -0.1130 -0.1279 -0.4647
 9163TIP3    H148980   4.673   0.744  13.585 -0.8283 -0.7785 -1.0629
 9163TIP3    H248981   4.652   0.751  13.735  0.4881  0.4942 -0.9203
 9164TIP3   OH248982   3.547   4.882   1.932  0.5124  0.6114 -0.2213
 9164TIP3    H148983   3.610   4.883   2.005 -0.2026  0.5811  0.4052
 9164TIP3    H248984   3.598   4.848   1.858  0.7119 -1.4812  0.7953
 9165TIP3   OH248985   5.482   0.506  11.677 -0.4653  0.2044  0.8943
 9165TIP3    H148986   5.389   0.498  11.700 -0.9285 -1.0635 -1.1010
 9165TIP3    H248987   5.526   0.441  11.732 -1.2148 -1.1966 -0.0771
 9166TIP3   OH248988   4.296   4.751   5.093  0.4486 -0.3326  0.2888
 9166TIP3    H148989   4.313   4.686   5.160  0.6917 -2.0377 -1.3478
 9166TIP3    H248990   4.382   4.786   5.071  0.5394 -0.7790 -0.0837
 9167TIP3   OH248991   6.793   1.813  13.917 -0.3353  0.2346  0.3561
 9167TIP3    H148992   6.770   1.906  13.913 -1.9100 -0.1573 -0.7211
 9167TIP3    H248993   6.883   1.810  13.883 -0.7241  1.2370 -0.8619
 9168TIP3   OH248994   6.598   5.832   5.953 -0.4859 -0.1303 -0.2447
 9168TIP3    H148995   6.567   5.749   5.918  0.6032 -1.0166  0.7836
 9168TIP3    H248996   6.673   5.855   5.898  1.0027 -1.3406  1.1954
 9169TIP3   OH248997   4.067   1.168  15.265 -0.3344 -0.1993 -0.3843
 9169TIP3    H148998   4.099   1.235  15.324 -1.1556  2.9029 -3.1629
 9169TIP3    H248999   4.146   1.121  15.237  0.9211  2.2374 -1.2556
 9170TIP3   OH249000   2.376   4.410   3.429 -0.6134 -0.2713  0.1614
 9170TIP3    H149001   2.330   4.339   3.383  0.5766 -0.8211 -0.2081
 9170TIP3    H249002   2.466   4.403   3.399 -0.3057  0.8662  0.7970
 9171TIP3   OH249003   0.847   2.087   1.222  0.2505 -0.3638 -0.0799
 9171TIP3    H149004   0.866   2.012   1.165 -1.6173 -0.0551 -1.2002
 9171TIP3    H249005   0.882   2.162   1.174 -1.3774 -0.0962 -0.9233
 9172TIP3   OH249006   3.106   3.797   0.202 -0.4637 -0.2405 -0.2008
 9172TIP3    H149007   3.108   3.701   0.203 -0.0286 -0.2325 -0.0928
 9172TIP3    H249008   3.179   3.822   0.145 -1.2016  0.0103 -1.0542
 9173TIP3   OH249009   3.264   0.593  15.936 -0.1170 -0.0078 -0.0552
 9173TIP3    H149010   3.177   0.552  15.934 -0.0207 -0.2253  0.1274
 9173TIP3    H249011   3.314   0.547  15.869 -0.1404  0.1146 -0.1571
 9174TIP3   OH249012   6.094   1.083  12.154 -0.0888  0.1485 -0.0484
 9174TIP3    H149013   6.108   1.002  12.203  1.3716 -0.4727 -1.3801
 9174TIP3    H249014   6.108   1.058  12.062 -0.1302  1.8006 -0.5370
 9175TIP3   OH249015   6.378   2.453   1.545  0.1111 -0.0746  0.1759
 9175TIP3    H149016   6.284   2.445   1.565  0.0982 -0.2969  0.0214
 9175TIP3    H249017   6.387   2.541   1.508  0.1225  0.3264  1.1026
 9176TIP3   OH249018   0.981   2.621   3.688 -0.6401 -0.0572  0.7221
 9176TIP3    H149019   1.064   2.600   3.645  0.0663  2.1989  0.8707
 9176TIP3    H249020   0.915   2.607   3.620 -0.0608 -1.0054  0.3308
 9177TIP3   OH249021   0.291   3.815   1.868  0.1908 -0.1451  0.3903
 9177TIP3    H149022   0.373   3.765   1.876 -0.4526 -1.3636 -0.2413
 9177TIP3    H249023   0.235   3.760   1.813 -0.8867  0.8906  0.4082
 9178TIP3   OH249024   0.320   1.110  15.648  0.3184  0.1990 -0.0837
 9178TIP3    H149025   0.322   1.015  15.640 -0.9222  0.1869 -0.3983
 9178TIP3    H249026   0.383   1.141  15.582 -1.3416 -0.3204 -1.9922
 9179TIP3   OH249027   2.809   1.298  10.972 -0.3362  0.0524  0.6080
 9179TIP3    H149028   2.866   1.221  10.975 -0.0505  0.2729  0.8396
 9179TIP3    H249029   2.767   1.293  10.886 -2.2239 -1.7320  1.5212
 9180TIP3   OH249030   4.895   2.597  14.044  0.6727  0.1008 -0.2645
 9180TIP3    H149031   4.825   2.543  14.006 -0.7854  1.0628  0.9139
 9180TIP3    H249032   4.928   2.649  13.971  1.0723 -1.2711 -1.1039
 9181TIP3   OH249033   6.133   6.617   0.982  0.0069 -0.3767  0.0873
 9181TIP3    H149034   6.180   6.697   0.957 -2.7077  0.9980 -0.9765
 9181TIP3    H249035   6.197   6.567   1.034  2.1450  1.9532 -0.1089
 9182TIP3   OH249036   2.480   5.143  13.957  0.3799 -0.0588 -0.5931
 9182TIP3    H149037   2.506   5.224  14.002  0.5135 -0.5089  0.1492
 9182TIP3    H249038   2.561   5.107  13.923  0.4385 -0.3126 -0.1932
 9183TIP3   OH249039   3.239   2.001   0.722 -0.2381 -0.1473  0.0328
 9183TIP3    H149040   3.152   2.002   0.682 -0.1446  1.3415 -0.1905
 9183TIP3    H249041   3.248   1.914   0.759 -1.4342 -0.6458 -0.8078
 9184TIP3   OH249042   6.705   0.088   3.137 -0.5462  0.1532 -0.3953
 9184TIP3    H149043   6.634   0.113   3.078 -0.8937 -2.1432 -1.0182
 9184TIP3    H249044   6.752   0.019   3.091  0.2888 -0.4450  1.2666
 9185TIP3   OH249045   5.209   1.266  14.737 -0.0597  0.0371 -0.2729
 9185TIP3    H149046   5.210   1.321  14.816 -1.2936  0.8229 -0.7857
 9185TIP3    H249047   5.275   1.199  14.755 -0.3378  0.1691  1.4552
 9186TIP3   OH249048   0.308   4.981  11.945 -0.0852 -0.1976 -0.4155
 9186TIP3    H149049   0.233   5.036  11.966 -2.6023 -2.8689 -1.6237
 9186TIP3    H249050   0.351   5.026  11.873 -0.4324  1.4659  0.3766
 9187TIP3   OH249051   2.897   2.208  12.568  0.5426  0.0183  0.5056
 9187TIP3    H149052   2.813   2.210  12.613 -0.5828  0.4464 -1.5169
 9187TIP3    H249053   2.875   2.205  12.475  2.7389  1.3410 -0.1353
 9188TIP3   OH249054   0.814   0.907   5.702  0.0023 -0.6721  0.0500
 9188TIP3    H149055   0.816   0.818   5.739 -2.1060 -0.9442 -0.3678
 9188TIP3    H249056   0.888   0.909   5.642  0.5910 -1.8547  0.6843
 9189TIP3   OH249057   5.962   4.179   6.187  0.4239 -0.3117 -0.6458
 9189TIP3    H149058   5.937   4.112   6.123 -1.5413  0.0915 -0.3619
 9189TIP3    H249059   6.055   4.164   6.203  0.6234 -1.3158 -2.5290
 9190TIP3   OH249060   0.792   5.718   6.157 -0.0096 -0.3079 -0.6343
 9190TIP3    H149061   0.878   5.676   6.150  0.1154 -0.2491  0.4229
 9190TIP3    H249062   0.765   5.732   6.066  2.3037  2.2071 -1.0716
 9191TIP3   OH249063   3.473   2.197  11.736 -0.5971  0.3330  0.5685
 9191TIP3    H149064   3.433   2.257  11.673 -0.7133 -0.8222 -0.4956
 9191TIP3    H249065   3.425   2.115  11.726  0.1438 -0.2188  1.3469
 9192TIP3   OH249066   6.585   5.026   4.688  0.2453 -0.4094 -0.0299
 9192TIP3    H149067   6.562   4.987   4.603  1.2609 -0.0784 -0.4674
 9192TIP3    H249068   6.549   4.965   4.753 -0.0220 -0.9771 -0.7019
 9193TIP3   OH249069   5.124   6.284   4.168  1.1853 -0.1217 -0.2932
 9193TIP3    H149070   5.207   6.325   4.191  1.3311 -0.1303 -0.8045
 9193TIP3    H249071   5.095   6.329   4.089 -0.2370  1.1657  0.9073
 9194TIP3   OH249072   0.899   5.339   3.222 -0.0633 -0.3481  0.1505
 9194TIP3    H149073   0.884   5.275   3.292 -0.2467  0.3114  0.7226
 9194TIP3    H249074   0.814   5.382   3.210  0.0449 -0.2433 -0.2653
 9195TIP3   OH249075   2.730   5.505   0.029  0.3181 -0.4510 -0.9574
 9195TIP3    H149076   2.733   5.528   0.121 -4.0514 -0.3948 -0.6194
 9195TIP3    H249077   2.769   5.580  -0.016  1.0203  0.2548  0.7292
 9196TIP3   OH249078   2.518   2.146  13.071 -0.1201  0.0458  0.4516
 9196TIP3    H149079   2.562   2.231  13.080 -0.0164  0.0457 -0.0430
 9196TIP3    H249080   2.498   2.120  13.161  1.8457 -0.4592  0.7832
 9197TIP3   OH249081   4.324   3.366  16.231  0.1813 -0.1855  0.3471
 9197TIP3    H149082   4.237   3.341  16.202  0.1005 -0.4715  0.8168
 9197TIP3    H249083   4.308   3.437  16.294  0.2658 -0.4364  0.6525
 9198TIP3   OH249084   6.256   0.839  16.675 -0.1487 -0.2560 -0.5213
 9198TIP3    H149085   6.277   0.824  16.767  1.3794  1.1083 -0.6234
 9198TIP3    H249086   6.337   0.819  16.628 -0.4573  0.5669 -1.4172
 9199TIP3   OH249087   2.965   3.372   3.571  0.0964 -0.3200  0.0758
 9199TIP3    H149088   2.907   3.309   3.528  0.2575  0.1638 -0.8858
 9199TIP3    H249089   2.921   3.393   3.653 -0.4434 -0.9345 -0.0439
 9200TIP3   OH249090   1.701   2.869  12.488 -0.4455  0.0919 -0.3718
 9200TIP3    H149091   1.652   2.846  12.567  0.6620  0.4732  0.4619
 9200TIP3    H249092   1.707   2.965  12.491 -0.5635  0.1248 -1.0319
 9201TIP3   OH249093   6.096   2.743  16.479  0.5315  0.1718 -0.2911
 9201TIP3    H149094   6.123   2.708  16.564  0.2685  0.6526 -0.0053
 9201TIP3    H249095   6.056   2.668  16.434  1.2230 -0.2411 -0.2394
 9202TIP3   OH249096   3.317   6.149   2.961 -0.0108  0.1933 -0.3721
 9202TIP3    H149097   3.266   6.088   3.015 -1.5708  1.0969 -0.7925
 9202TIP3    H249098   3.274   6.233   2.972  0.7796  0.7752 -1.5622
 9203TIP3   OH249099   4.371   4.647  13.882 -0.1859  0.0027  0.0858
 9203TIP3    H149100   4.394   4.561  13.849 -2.4747 -0.7178  0.2000
 9203TIP3    H249101   4.393   4.707  13.811  0.2601 -0.8129 -0.4794
 9204TIP3   OH249102   4.143   2.941  14.019  0.3076  0.0414 -0.2150
 9204TIP3    H149103   4.071   2.994  13.983  0.1709 -0.4847 -0.7360
 9204TIP3    H249104   4.100   2.874  14.071  0.5068  0.7804  0.9377
 9205TIP3   OH249105   2.252   1.151  15.736  0.1544  0.1028 -0.0439
 9205TIP3    H149106   2.254   1.097  15.815 -0.2994  0.7306  0.4068
 9205TIP3    H249107   2.293   1.097  15.669 -1.9549 -1.5526 -0.0892
 9206TIP3   OH249108   1.132   4.823  16.860 -0.2068  0.2714  0.2159
 9206TIP3    H149109   1.086   4.877  16.796  1.2675  2.1815  0.6516
 9206TIP3    H249110   1.117   4.868  16.944  2.2082  0.8825  0.3956
 9207TIP3   OH249111   6.042   1.215   1.989 -0.4241 -0.3596 -0.3942
 9207TIP3    H149112   6.127   1.251   2.014 -0.3090 -1.1744  0.4587
 9207TIP3    H249113   6.010   1.273   1.920  0.9927 -0.2600 -0.9943
 9208TIP3   OH249114   3.917   1.120   0.643  0.0570 -0.2290 -0.1099
 9208TIP3    H149115   4.005   1.082   0.648 -0.8171 -2.3661  0.1052
 9208TIP3    H249116   3.885   1.119   0.733  0.5682  2.6876  0.2159
 9209TIP3   OH249117   1.079   2.660   4.319  0.1464 -0.1360  0.6017
 9209TIP3    H149118   1.024   2.602   4.267  1.6342 -2.4818  1.4660
 9209TIP3    H249119   1.165   2.618   4.318  1.9516  3.2217 -0.4875
 9210TIP3   OH249120   6.415   3.663   1.218  0.3022  0.5911 -0.2593
 9210TIP3    H149121   6.406   3.595   1.285  2.5807  0.0252 -0.4668
 9210TIP3    H249122   6.325   3.692   1.202 -0.7464 -2.2161 -0.0060
 9211TIP3   OH249123   1.197   1.749   6.289 -0.0767 -0.2072 -0.0619
 9211TIP3    H149124   1.282   1.786   6.264  0.0743 -0.6933 -0.2749
 9211TIP3    H249125   1.211   1.654   6.290 -0.8421 -0.3493 -0.9715
 9212TIP3   OH249126   2.020   2.663  13.445  0.3018  0.0539  0.0222
 9212TIP3    H149127   2.058   2.622  13.523  0.4766 -1.9174 -1.0278
 9212TIP3    H249128   1.930   2.631  13.443  0.0925  0.6516 -0.2110
 9213TIP3   OH249129   6.085   4.339   3.111 -0.0811 -0.3385  0.4901
 9213TIP3    H149130   6.116   4.285   3.039 -0.9178  1.1533 -1.0742
 9213TIP3    H249131   6.162   4.385   3.143  0.8255 -3.0125  2.4608
 9214TIP3   OH249132   1.620   3.613  11.487 -0.3592  0.4399  0.7739
 9214TIP3    H149133   1.661   3.687  11.533 -0.9330  1.0204  0.3652
 9214TIP3    H249134   1.590   3.555  11.557 -0.5558  0.9559  1.1248
 9215TIP3   OH249135   3.362   2.181  14.457  0.1211 -0.0446 -0.6890
 9215TIP3    H149136   3.297   2.223  14.513 -0.4762 -1.9876  0.1798
 9215TIP3    H249137   3.346   2.217  14.370 -3.3180 -1.5978 -0.8777
 9216TIP3   OH249138   4.134   2.889   3.542  0.1336  0.3213 -0.8314
 9216TIP3    H149139   4.120   2.807   3.588 -0.0623  0.3853 -0.7738
 9216TIP3    H249140   4.143   2.955   3.611 -0.7438  0.5113 -0.8760
 9217TIP3   OH249141   0.198   2.568  14.855  0.2431 -0.2710  0.1052
 9217TIP3    H149142   0.146   2.642  14.885 -1.0935 -1.8293  1.8511
 9217TIP3    H249143   0.240   2.599  14.775 -0.3088  2.3210  0.7403
 9218TIP3   OH249144   6.705   1.194   0.308 -0.1637  0.2750 -0.3493
 9218TIP3    H149145   6.705   1.105   0.274 -2.0769  0.6802 -1.5076
 9218TIP3    H249146   6.745   1.246   0.238  2.1199  0.2245  0.8165
 9219TIP3   OH249147   1.919   3.306   4.470  0.3198  0.1356 -0.5853
 9219TIP3    H149148   1.915   3.402   4.471 -1.9017  0.1137  1.8777
 9219TIP3    H249149   1.836   3.279   4.430  0.4836 -0.7763 -0.3237
 9220TIP3   OH249150   5.708   4.581   4.445  0.1110  0.2966 -0.8645
 9220TIP3    H149151   5.639   4.515   4.453  1.2121 -0.8261 -0.4354
 9220TIP3    H249152   5.734   4.576   4.353  1.1509 -0.8750 -0.5234
 9221TIP3   OH249153   3.289   2.748   2.888 -0.1624 -0.0968  0.5337
 9221TIP3    H149154   3.274   2.833   2.928 -0.6052  0.6364 -1.0900
 9221TIP3    H249155   3.379   2.752   2.856  0.7776 -1.3009  2.8108
 9222TIP3   OH249156   6.292   3.874  15.976 -0.8154 -0.2876 -0.5914
 9222TIP3    H149157   6.230   3.808  16.005 -2.8696  1.3479 -1.0369
 9222TIP3    H249158   6.298   3.862  15.882 -1.6492  0.4683 -0.7602
 9223TIP3   OH249159   6.396   3.174  13.751 -0.2185 -0.3813  0.5948
 9223TIP3    H149160   6.427   3.104  13.809 -0.5143 -0.0203  1.1990
 9223TIP3    H249161   6.355   3.127  13.678 -0.3143 -0.8456  0.9395
 9224TIP3   OH249162   6.476   5.062   1.248  0.6342 -0.6429  0.0529
 9224TIP3    H149163   6.422   5.026   1.178 -0.8985 -1.4453  1.5702
 9224TIP3    H249164   6.476   5.157   1.233  0.7359 -0.8319 -1.2640
 9225TIP3   OH249165   2.412   1.157  12.975  0.0875  0.1399  0.3676
 9225TIP3    H149166   2.400   1.088  12.910 -0.5599 -0.1319  0.7656
 9225TIP3    H249167   2.332   1.210  12.969 -0.4248 -0.4460  1.5853
 9226TIP3   OH249168   6.529   4.767  15.086  0.7400 -0.5290  0.0760
 9226TIP3    H149169   6.582   4.845  15.071  1.9809 -1.1196  1.2683
 9226TIP3    H249170   6.534   4.718  15.004 -0.1592  0.6742 -0.7312
 9227TIP3   OH249171   4.976   2.741   4.947 -0.9791 -0.4750  0.1838
 9227TIP3    H149172   4.973   2.832   4.975  1.8415 -0.1747 -0.1973
 9227TIP3    H249173   4.884   2.714   4.941 -1.8803  2.3003  0.3418
 9228TIP3   OH249174   0.867   0.696  15.599 -0.0038  0.4884  0.1977
 9228TIP3    H149175   0.932   0.629  15.621 -0.2756  0.1072 -0.1533
 9228TIP3    H249176   0.785   0.663  15.634 -0.6161 -0.5163 -2.0016
 9229TIP3   OH249177   6.664   4.785   3.966 -0.2091 -0.1148  0.7959
 9229TIP3    H149178   6.751   4.798   4.003  0.7358  0.3707 -1.4440
 9229TIP3    H249179   6.608   4.848   4.012  0.4227 -0.8493  2.6972
 9230TIP3   OH249180   1.686   0.407   4.705  0.2937 -0.1550  0.0344
 9230TIP3    H149181   1.635   0.485   4.728  0.5771  0.1275 -0.2856
 9230TIP3    H249182   1.665   0.344   4.774 -1.3686 -0.4529 -0.6971
 9231TIP3   OH249183   0.011   1.516   3.563  0.6546  0.2468 -0.1721
 9231TIP3    H149184   0.017   1.421   3.571  1.8091  0.2743 -0.6171
 9231TIP3    H249185   0.082   1.541   3.504 -0.0935  1.3190 -0.6583
 9232TIP3   OH249186   1.011   5.956  16.689  0.2951  0.4583 -0.2309
 9232TIP3    H149187   0.932   5.903  16.704  1.6866 -1.7004 -0.1246
 9232TIP3    H249188   1.036   5.986  16.776 -0.3984  1.1553 -0.2645
 9233TIP3   OH249189   4.807   2.564  17.083 -0.1152 -0.3053  0.4366
 9233TIP3    H149190   4.821   2.593  17.173  0.7796 -0.1478  0.2642
 9233TIP3    H249191   4.788   2.470  17.090  0.7173 -0.4638  0.7489
 9234TIP3   OH249192   4.606   3.551   3.725  0.7376  0.0250  0.1959
 9234TIP3    H149193   4.523   3.503   3.725  1.9600 -2.3227  1.8628
 9234TIP3    H249194   4.583   3.640   3.753 -1.1311 -0.7930  1.4266
 9235TIP3   OH249195   1.705   5.729  11.283  0.3428 -0.3353  0.0509
 9235TIP3    H149196   1.644   5.713  11.211  0.3497 -0.4386  0.0675
 9235TIP3    H249197   1.720   5.823  11.281  0.7747 -0.4066 -0.4353
 9236TIP3   OH249198   4.529   6.493   0.089 -0.1519  0.1049  0.2460
 9236TIP3    H149199   4.490   6.568   0.046  0.1897  0.0581 -0.1574
 9236TIP3    H249200   4.545   6.430   0.018  0.2865 -0.0291  0.4563
 9237TIP3   OH249201   4.489   5.667   4.266  0.0140  0.4365 -0.0054
 9237TIP3    H149202   4.444   5.682   4.349 -0.0663  0.3275 -0.0299
 9237TIP3    H249203   4.427   5.697   4.199  0.6370  1.9040  0.0295
 9238TIP3   OH249204   0.235   3.669   0.227 -0.1721  0.0798  0.7712
 9238TIP3    H149205   0.188   3.621   0.295 -0.3791  0.3878  0.8452
 9238TIP3    H249206   0.167   3.697   0.165 -0.0655  0.3674  0.7818
 9239TIP3   OH249207   5.032   1.254  12.133 -0.1512  0.3117 -0.3806
 9239TIP3    H149208   5.096   1.185  12.114 -0.0843  0.3639 -0.3410
 9239TIP3    H249209   4.973   1.253  12.058 -0.4126 -0.0948 -0.1781
 9240TIP3   OH249210   4.227   6.337  13.732 -0.3172 -0.0827  0.0406
 9240TIP3    H149211   4.239   6.407  13.796 -0.9403 -0.8426  1.0252
 9240TIP3    H249212   4.163   6.372  13.670 -1.6070 -0.2045  1.2477
 9241TIP3   OH249213   5.372   4.658   5.317  0.4814  0.4827  0.1840
 9241TIP3    H149214   5.357   4.588   5.380 -0.2256  0.1557 -0.3429
 9241TIP3    H249215   5.296   4.656   5.260  0.6710  1.3907 -0.1136
 9242TIP3   OH249216   0.557   5.256  17.172  0.6895 -0.2492 -0.3540
 9242TIP3    H149217   0.511   5.185  17.127  1.8383  0.1867 -2.3409
 9242TIP3    H249218   0.488   5.309  17.211 -0.3710 -0.8265 -1.3856
 9243TIP3   OH249219   0.200   0.674  14.600 -0.3527  0.4292 -0.6181
 9243TIP3    H149220   0.171   0.761  14.573  1.1237  1.0091 -0.4169
 9243TIP3    H249221   0.238   0.636  14.520  0.1905  0.4923 -0.3923
 9244TIP3   OH249222   6.420   5.145  15.779  0.3053  0.6323  0.2406
 9244TIP3    H149223   6.375   5.204  15.718 -1.2969  1.3463  2.0278
 9244TIP3    H249224   6.456   5.203  15.846 -0.2793 -0.3191  1.3967
 9245TIP3   OH249225   0.526   5.668  14.209 -0.2317 -0.4278  0.1755
 9245TIP3    H149226   0.607   5.676  14.260 -1.2027  2.1740  1.4689
 9245TIP3    H249227   0.547   5.708  14.125 -0.1144  0.0842  0.4445
 9246TIP3   OH249228   1.393   2.924   5.352 -0.2928  0.5400  0.2455
 9246TIP3    H149229   1.353   2.863   5.291  1.3368  0.8368 -1.2158
 9246TIP3    H249230   1.363   3.011   5.323  0.8503  0.7164 -0.4775
 9247TIP3   OH249231   5.016   6.562  17.202 -0.0904 -0.0211 -0.0066
 9247TIP3    H149232   4.989   6.478  17.166  0.6542 -0.8846  1.3924
 9247TIP3    H249233   5.111   6.564  17.189 -0.1401  0.7675 -0.3288
 9248TIP3   OH249234   3.759   4.592  10.876 -0.1341 -0.2332 -0.1478
 9248TIP3    H149235   3.840   4.577  10.925 -1.1379 -1.4595  1.2193
 9248TIP3    H249236   3.712   4.509  10.883 -1.1955  0.2205 -1.5544
 9249TIP3   OH249237   0.823   3.794  17.274  0.2210 -0.0128 -0.4250
 9249TIP3    H149238   0.818   3.719  17.214  1.2143 -1.3214  1.0427
 9249TIP3    H249239   0.865   3.759  17.352 -1.8830  1.3736  1.4560
 9250TIP3   OH249240   3.083   3.085   3.907  0.1162 -0.0789 -0.2466
 9250TIP3    H149241   3.020   3.049   3.969 -0.0802 -2.3878 -1.6633
 9250TIP3    H249242   3.030   3.115   3.833  0.4386  1.5266  0.1340
 9251TIP3   OH249243   3.280   0.110  14.165 -0.1054 -0.4563  0.3260
 9251TIP3    H149244   3.187   0.123  14.150  0.3626  2.2804 -0.8552
 9251TIP3    H249245   3.293   0.133  14.258 -0.8130 -2.8122  1.0829
 9252TIP3   OH249246   6.487   6.242  10.754 -0.3954 -0.3435 -0.1771
 9252TIP3    H149247   6.432   6.169  10.781  1.0764 -0.2843  3.6037
 9252TIP3    H249248   6.574   6.205  10.744  0.6705  0.8515  3.1086
 9253TIP3   OH249249   0.038   1.595   4.281 -0.3767 -0.3746  0.3625
 9253TIP3    H149250   0.015   1.503   4.270  2.9021 -1.3035  0.2018
 9253TIP3    H249251   0.125   1.593   4.322  0.4071  2.5936 -0.8755
 9254TIP3   OH249252   3.692   0.756  11.883  0.4913  0.3877  0.1258
 9254TIP3    H149253   3.745   0.739  11.805 -1.6404  1.1437 -1.5968
 9254TIP3    H249254   3.628   0.822  11.855  0.5054  1.7445  2.9318
 9255TIP3   OH249255   1.898   2.318   3.620 -0.0731  0.2496  0.0405
 9255TIP3    H149256   1.840   2.388   3.648 -0.3596 -0.6807  1.9153
 9255TIP3    H249257   1.840   2.249   3.588  0.0971  0.0640  0.1239
 9256TIP3   OH249258   5.167   1.048  12.808  0.1547 -0.2086 -0.2316
 9256TIP3    H149259   5.161   1.042  12.903  0.9647  0.2811 -0.1351
 9256TIP3    H249260   5.255   1.015  12.787  0.9224  1.8898 -0.5604
 9257TIP3   OH249261   5.968   2.039  13.207 -0.2774  0.2277  0.3647
 9257TIP3    H149262   5.924   1.986  13.273 -0.4703 -0.9393 -0.6622
 9257TIP3    H249263   5.940   2.129  13.226 -0.6882 -0.1360  1.5693
 9258TIP3   OH249264   5.913   1.071  13.417 -0.5144 -0.2007 -0.1861
 9258TIP3    H149265   5.866   1.142  13.375 -0.1387 -1.1880 -2.3919
 9258TIP3    H249266   5.957   1.025  13.346  0.8518 -1.4826  1.3884
 9259TIP3   OH249267   0.314   3.866  13.184  0.3700  0.2980  0.2538
 9259TIP3    H149268   0.219   3.858  13.191  0.3315  0.6392  0.1662
 9259TIP3    H249269   0.348   3.784  13.218  0.0334  0.0553  0.0122
 9260TIP3   OH249270   2.858   2.717   3.932 -0.3301 -0.7021  0.3969
 9260TIP3    H149271   2.801   2.793   3.923 -1.5456 -1.4461  1.5473
 9260TIP3    H249272   2.859   2.677   3.845  1.6396  1.4629 -0.6967
 9261TIP3   OH249273   1.632   6.440  13.325 -0.1136 -0.0659  0.1446
 9261TIP3    H149274   1.562   6.387  13.287  0.4084  0.5827 -1.8970
 9261TIP3    H249275   1.595   6.528  13.330 -0.9917 -0.4858  3.5572
 9262TIP3   OH249276   3.784   6.754  11.145  0.4811 -0.8851 -0.0928
 9262TIP3    H149277   3.761   6.811  11.218  0.4801  0.9234 -1.4193
 9262TIP3    H249278   3.879   6.760  11.139  0.3835  0.0283 -1.0048
 9263TIP3   OH249279   4.140   4.443   6.222  0.0397 -0.3606  0.2126
 9263TIP3    H149280   4.202   4.481   6.160  1.7864 -1.4139  1.2416
 9263TIP3    H249281   4.064   4.501   6.219  1.1330  1.0728 -0.9573
 9264TIP3   OH249282   1.022   5.801  12.712 -0.1741 -0.5856  0.3965
 9264TIP3    H149283   1.105   5.846  12.698 -0.2695 -0.3356  0.6324
 9264TIP3    H249284   0.975   5.855  12.775 -0.9024 -0.2301 -0.4332
 9265TIP3   OH249285   2.119   1.398  10.508  0.4337 -0.5422  0.0932
 9265TIP3    H149286   2.061   1.323  10.517  2.3609 -2.0134  0.9388
 9265TIP3    H249287   2.183   1.372  10.442 -0.3861  1.4671 -1.6414
 9266TIP3   OH249288   5.143   4.091   0.443  0.2522 -0.4389  0.3178
 9266TIP3    H149289   5.111   4.003   0.463 -0.1870 -0.5168 -0.6333
 9266TIP3    H249290   5.233   4.093   0.476  0.3166 -1.3007  0.2089
 9267TIP3   OH249291   2.100   6.507  14.266  0.5071 -0.4367  0.3623
 9267TIP3    H149292   2.068   6.417  14.275  1.2545 -0.5757  1.7722
 9267TIP3    H249293   2.054   6.540  14.188  0.0921 -1.9656 -0.0842
 9268TIP3   OH249294   2.874   0.993   3.035  0.2033  0.5391 -0.2498
 9268TIP3    H149295   2.931   1.020   2.963  0.5233  1.1621  0.2338
 9268TIP3    H249296   2.812   1.065   3.045 -1.2207 -0.4768 -1.3134
 9269TIP3   OH249297   4.304   6.615   5.757  0.4300 -0.3397 -0.2077
 9269TIP3    H149298   4.353   6.697   5.750  0.5391 -0.3607  0.2396
 9269TIP3    H249299   4.212   6.641   5.750  0.5246 -0.3961 -1.8777
 9270TIP3   OH249300   3.617   4.185  14.338  0.2146 -0.5839  0.1629
 9270TIP3    H149301   3.623   4.090  14.324  0.7221 -0.9823  2.6873
 9270TIP3    H249302   3.679   4.203  14.408 -0.0016  1.6243 -0.1503
 9271TIP3   OH249303   4.968   5.349   4.318  0.1386  0.2929  0.2558
 9271TIP3    H149304   4.993   5.277   4.377 -1.1443 -0.5198 -0.1424
 9271TIP3    H249305   4.930   5.415   4.377 -0.1342 -0.0448  0.4666
 9272TIP3   OH249306   4.912   2.721  11.856  0.3769  0.4036 -0.6615
 9272TIP3    H149307   4.850   2.733  11.929 -0.4311 -1.8321 -0.9115
 9272TIP3    H249308   4.992   2.692  11.898  0.1071 -0.2649 -0.5959
 9273TIP3   OH249309   3.891   5.741   5.252 -0.1910  0.1336  0.3018
 9273TIP3    H149310   3.894   5.782   5.166 -0.2577 -1.5204 -0.5442
 9273TIP3    H249311   3.938   5.659   5.241 -0.7570 -0.4172  1.6730
 9274TIP3   OH249312   3.634   0.390   4.338 -0.2480  0.2113 -0.1107
 9274TIP3    H149313   3.619   0.479   4.307  0.9414  1.2500  2.0619
 9274TIP3    H249314   3.646   0.399   4.433 -0.0249 -2.2561  0.1678
 9275TIP3   OH249315   5.033   0.869   2.504 -0.5892 -0.8091 -0.3260
 9275TIP3    H149316   5.017   0.963   2.500 -0.3411 -0.5093  2.9136
 9275TIP3    H249317   4.987   0.840   2.583  2.1497 -2.7020  0.7535
 9276TIP3   OH249318   2.711   0.192   4.681  0.7689  0.4779 -0.4312
 9276TIP3    H149319   2.693   0.119   4.739  1.1848  1.2289  0.6678
 9276TIP3    H249320   2.691   0.158   4.593  1.6362 -1.1641 -0.0329
 9277TIP3   OH249321   2.752   2.232  13.975 -0.5247  0.3833  0.0931
 9277TIP3    H149322   2.729   2.185  14.055 -0.7918 -0.0170 -0.2140
 9277TIP3    H249323   2.680   2.212  13.914  0.4865 -0.6849 -0.7995
 9278TIP3   OH249324   0.287   4.427   0.169 -0.6458 -0.4186 -0.1799
 9278TIP3    H149325   0.252   4.472   0.246  1.0326 -1.6251  1.3760
 9278TIP3    H249326   0.220   4.437   0.102 -1.1750  2.6935  0.6698
 9279TIP3   OH249327   3.225   5.600  12.170 -0.2850  0.0024  0.1838
 9279TIP3    H149328   3.186   5.687  12.155  0.2105  0.2812  0.4787
 9279TIP3    H249329   3.310   5.605  12.125  0.0953 -0.0454  0.8878
 9280TIP3   OH249330   0.517   0.489  13.195  0.1698 -0.2631 -0.1653
 9280TIP3    H149331   0.514   0.562  13.257  1.9742 -0.3604  0.1081
 9280TIP3    H249332   0.578   0.427  13.235  1.1295 -0.4741 -1.8508
 9281TIP3   OH249333   1.355   4.849   0.835 -0.5680 -0.0602  0.7015
 9281TIP3    H149334   1.414   4.827   0.908 -0.2990 -0.7101  0.3026
 9281TIP3    H249335   1.398   4.813   0.758 -0.8105  0.7002  0.2033
 9282TIP3   OH249336   3.726   4.730   1.753  0.7872 -0.4115 -0.3192
 9282TIP3    H149337   3.673   4.782   1.693  1.5615 -0.2538 -0.8879
 9282TIP3    H249338   3.794   4.692   1.698 -0.0606 -2.4922 -0.0152
 9283TIP3   OH249339   2.716   4.047   2.627  0.4433 -0.0818 -0.3375
 9283TIP3    H149340   2.707   4.137   2.658  2.2868  0.4732 -1.2669
 9283TIP3    H249341   2.809   4.027   2.640  0.0727 -1.8712 -0.1502
 9284TIP3   OH249342   2.460   5.000  11.694  0.2572 -0.2573 -0.5583
 9284TIP3    H149343   2.379   4.966  11.731 -0.4127  0.8575 -0.9473
 9284TIP3    H249344   2.528   4.969  11.753 -0.6369  0.2221  0.7730
 9285TIP3   OH249345   3.481   4.841  12.962  0.5376  0.0738  0.0713
 9285TIP3    H149346   3.575   4.851  12.949  0.8640 -1.7513  0.7121
 9285TIP3    H249347   3.445   4.842  12.873  1.4289 -1.3294 -0.3354
 9286TIP3   OH249348   5.786   4.001  11.900  0.1892 -0.5312  0.5834
 9286TIP3    H149349   5.778   3.995  11.805 -2.7360  0.2844  0.6612
 9286TIP3    H249350   5.811   4.092  11.916 -0.8107 -0.2513  0.6080
 9287TIP3   OH249351   5.292   2.198  16.776  0.4245 -0.0843 -0.4996
 9287TIP3    H149352   5.327   2.245  16.700  1.1842  0.8748  0.3942
 9287TIP3    H249353   5.201   2.227  16.783  0.4516  0.0883 -0.8429
 9288TIP3   OH249354   5.001   1.724   5.536  0.2677  0.3119  0.1049
 9288TIP3    H149355   5.025   1.813   5.511 -0.8466  0.2704 -1.2744
 9288TIP3    H249356   4.959   1.732   5.621  0.0001  1.1334 -0.1006
 9289TIP3   OH249357   5.589   5.138   3.978  0.5255 -0.2652  0.0426
 9289TIP3    H149358   5.537   5.125   3.898  0.9496  3.0430 -0.9299
 9289TIP3    H249359   5.538   5.200   4.030  2.0408  0.6368  0.5077
 9290TIP3   OH249360   6.752   4.471  15.699  0.2798 -0.3315 -0.3201
 9290TIP3    H149361   6.729   4.532  15.769 -1.5300  0.5139 -1.5672
 9290TIP3    H249362   6.693   4.397  15.711  0.0139 -0.2192 -0.8811
 9291TIP3   OH249363   5.183   1.792   1.843  0.0250  0.3793 -0.1026
 9291TIP3    H149364   5.121   1.835   1.784  1.2640  0.4927 -1.3880
 9291TIP3    H249365   5.263   1.845   1.836  0.5670 -0.2969  0.7776
 9292TIP3   OH249366   6.588   4.070   1.804 -0.9912 -0.1396 -0.1192
 9292TIP3    H149367   6.657   4.006   1.788 -2.0288 -0.8663 -2.0446
 9292TIP3    H249368   6.508   4.018   1.814 -2.5696  0.6994 -5.3514
 9293TIP3   OH249369   4.808   5.841   3.821  0.2915 -0.2155  0.3984
 9293TIP3    H149370   4.811   5.875   3.732 -2.1555  0.0686  0.3755
 9293TIP3    H249371   4.851   5.908   3.874  1.5112 -0.2572 -0.4760
 9294TIP3   OH249372   5.563   4.863   2.452 -0.1489  0.2799  0.1762
 9294TIP3    H149373   5.586   4.826   2.367 -2.1621 -0.1386 -0.2577
 9294TIP3    H249374   5.646   4.874   2.498  1.1905  2.0717 -2.4302
 9295TIP3   OH249375   6.092   0.862   2.426 -0.3854  0.0746  0.1835
 9295TIP3    H149376   6.174   0.846   2.474  0.4969 -0.2900 -1.3603
 9295TIP3    H249377   6.121   0.884   2.337 -1.9648  0.3477 -0.2847
 9296TIP3   OH249378   4.060   5.713  12.566  0.2520  0.2383 -0.0853
 9296TIP3    H149379   4.093   5.685  12.651 -0.6684 -0.9202 -0.0752
 9296TIP3    H249380   4.032   5.632  12.524 -3.4012  1.1502  0.2796
 9297TIP3   OH249381   0.701   4.194   1.387 -0.1910 -0.1051 -0.1202
 9297TIP3    H149382   0.615   4.152   1.395  0.1893 -0.6315  1.5953
 9297TIP3    H249383   0.715   4.236   1.472  1.3245 -0.1885 -0.3109
 9298TIP3   OH249384   6.566   6.658  15.506 -0.0098 -0.3330  0.2087
 9298TIP3    H149385   6.659   6.680  15.513  0.1133 -1.0001  0.8733
 9298TIP3    H249386   6.560   6.607  15.425  0.2416 -0.4437  0.2572
 9299TIP3   OH249387   5.313   6.336   0.795 -0.9284  0.2262  0.2385
 9299TIP3    H149388   5.283   6.367   0.710 -1.3510 -0.4235  0.1451
 9299TIP3    H249389   5.300   6.410   0.854 -1.9700  0.2179  0.0314
 9300TIP3   OH249390   3.316   1.705   4.534  0.1525 -0.2585  0.4330
 9300TIP3    H149391   3.362   1.788   4.531  0.0274 -0.2104 -1.9267
 9300TIP3    H249392   3.385   1.638   4.534  0.2593 -0.1643 -0.8457
 9301TIP3   OH249393   2.137   1.282  14.734 -0.0496 -0.7102  0.3205
 9301TIP3    H149394   2.108   1.191  14.725 -1.2125 -0.5355  1.8489
 9301TIP3    H249395   2.200   1.294  14.663  0.7940 -2.9642  0.5785
 9302TIP3   OH249396   1.605   5.548  15.369 -0.4297  0.2576 -0.4848
 9302TIP3    H149397   1.522   5.553  15.320 -0.4936 -1.3060 -0.5781
 9302TIP3    H249398   1.639   5.461  15.350  0.0910  0.0067  1.4057
 9303TIP3   OH249399   1.531   0.917  13.893  0.4740  0.4506  0.3206
 9303TIP3    H149400   1.461   0.858  13.921  0.7962 -0.6877 -1.1469
 9303TIP3    H249401   1.485   0.988  13.847  0.2817 -1.0488 -1.9639
 9304TIP3   OH249402   5.285   0.065  14.032 -0.3795 -0.3155  0.0894
 9304TIP3    H149403   5.368   0.108  14.056  0.7545 -2.4388  0.2609
 9304TIP3    H249404   5.251   0.117  13.960 -0.3656  2.2553  1.8071
 9305TIP3   OH249405   5.289   1.589   4.471 -0.0654 -0.2016 -0.1375
 9305TIP3    H149406   5.354   1.647   4.431 -0.8643  0.7804 -0.0351
 9305TIP3    H249407   5.328   1.563   4.555  1.1642 -1.4418 -1.0375
 9306TIP3   OH249408   2.429   2.877  14.763 -0.5385  0.2188  0.6468
 9306TIP3    H149409   2.434   2.823  14.684  2.3204  1.9119 -0.4853
 9306TIP3    H249410   2.382   2.956  14.736 -0.4153  0.3856  0.9185
 9307TIP3   OH249411   1.654   1.611   1.664  0.0761  0.1088 -0.2822
 9307TIP3    H149412   1.745   1.643   1.665  0.3144 -0.5591 -0.1858
 9307TIP3    H249413   1.656   1.535   1.606 -0.3052 -0.2419  0.1623
 9308TIP3   OH249414   6.481   5.177   6.078 -1.0418 -0.3509  0.3357
 9308TIP3    H149415   6.447   5.158   6.166 -1.3623  0.5028  0.4005
 9308TIP3    H249416   6.554   5.237   6.093 -0.2263 -1.2593  0.1068
 9309TIP3   OH249417   3.183   4.426  15.160 -0.1763  0.0813  0.6287
 9309TIP3    H149418   3.265   4.471  15.181  0.4879 -0.9898  0.4090
 9309TIP3    H249419   3.142   4.411  15.245 -0.3725  1.0013  0.7115
 9310TIP3   OH249420   4.357   3.570  16.760  0.4566 -0.1423 -0.3619
 9310TIP3    H149421   4.355   3.606  16.849  0.0683  0.1012 -0.4653
 9310TIP3    H249422   4.281   3.511  16.757  0.0126  0.4429 -0.7733
 9311TIP3   OH249423   0.882   6.788  17.140 -0.6604  0.5280  0.1631
 9311TIP3    H149424   0.933   6.855  17.094  1.6808  0.3860  2.3505
 9311TIP3    H249425   0.915   6.790  17.230 -3.7273 -0.4633  1.4533
 9312TIP3   OH249426   5.054   2.536   0.541  0.1914 -0.0285 -0.2818
 9312TIP3    H149427   5.104   2.613   0.568  1.8485 -0.3624 -2.1631
 9312TIP3    H249428   5.071   2.527   0.447 -1.2795 -1.7599 -0.4596
 9313TIP3   OH249429   4.179   4.673   2.826  0.2510  0.7131  0.5359
 9313TIP3    H149430   4.258   4.692   2.876  0.4393 -0.2714  0.6250
 9313TIP3    H249431   4.199   4.594   2.776 -0.8067  0.2182  0.8569
 9314TIP3   OH249432   0.678   2.982  13.596  0.0274  0.6599 -0.3938
 9314TIP3    H149433   0.737   2.914  13.628  1.4323  2.4267  1.0623
 9314TIP3    H249434   0.594   2.939  13.585  1.2765 -1.7177 -1.4414
 9315TIP3   OH249435   6.699   2.009  11.509  0.0446  0.2367 -0.7740
 9315TIP3    H149436   6.788   2.035  11.533 -0.0586  0.3917 -0.5544
 9315TIP3    H249437   6.703   1.914  11.500  0.0846  0.1779 -0.1419
 9316TIP3   OH249438   6.511   3.398   2.611 -0.1196  0.0362  0.0960
 9316TIP3    H149439   6.505   3.491   2.633 -0.8127  0.0404 -0.0867
 9316TIP3    H249440   6.445   3.356   2.666  1.2989 -0.5922  1.4041
 9317TIP3   OH249441   4.604   4.837   3.803 -0.1390 -0.2707 -0.5294
 9317TIP3    H149442   4.679   4.861   3.858  0.9797 -0.8750 -1.7380
 9317TIP3    H249443   4.589   4.744   3.821  0.0982 -0.4190 -1.0802
 9318TIP3   OH249444   2.254   4.270  16.431  0.3387 -0.1919  0.7811
 9318TIP3    H149445   2.313   4.335  16.393  1.4227 -1.1938  0.6949
 9318TIP3    H249446   2.310   4.195  16.451 -1.2619 -2.2745 -1.7545
 9319TIP3   OH249447   3.885   6.075   6.393  0.9547 -0.0423 -0.1442
 9319TIP3    H149448   3.956   6.139   6.401  0.4680  0.4901  0.0083
 9319TIP3    H249449   3.815   6.110   6.449 -0.1314  0.4203 -1.7244
 9320TIP3   OH249450   2.998   3.457  13.206 -0.3702 -0.5345  0.3725
 9320TIP3    H149451   2.917   3.453  13.255 -1.3388  1.1870 -0.9656
 9320TIP3    H249452   3.019   3.551  13.202  0.2106 -0.7073 -1.5835
 9321TIP3   OH249453   2.907   0.857   0.176  0.0274  0.0502 -0.3895
 9321TIP3    H149454   2.875   0.805   0.250 -0.1264  0.0686 -0.4414
 9321TIP3    H249455   2.994   0.822   0.157  0.2727  0.3747  0.1179
 9322TIP3   OH249456   5.778   5.580  12.962  0.0579 -0.4376  0.5874
 9322TIP3    H149457   5.737   5.660  12.930 -0.6496 -0.7674  0.6589
 9322TIP3    H249458   5.825   5.608  13.041  0.8315  0.1407 -0.0557
 9323TIP3   OH249459   2.237   4.492   5.252 -0.2902 -0.7093  0.5934
 9323TIP3    H149460   2.213   4.573   5.297  1.2857 -1.2789  2.5961
 9323TIP3    H249461   2.283   4.521   5.173 -2.6741  0.3071 -0.5234
 9324TIP3   OH249462   6.564   4.839  13.414 -0.2068 -0.4024 -0.2740
 9324TIP3    H149463   6.633   4.773  13.412 -0.2056 -0.4522  0.9234
 9324TIP3    H249464   6.589   4.902  13.345  0.0080 -1.4075 -1.1405
 9325TIP3   OH249465   4.522   6.784   1.591 -0.0444 -0.1980  0.1552
 9325TIP3    H149466   4.463   6.712   1.569 -1.2879  0.0758  2.3065
 9325TIP3    H249467   4.577   6.794   1.513 -1.2052 -2.0765 -1.0023
 9326TIP3   OH249468   1.034   3.246  11.850  0.2723 -0.3895  1.0016
 9326TIP3    H149469   1.039   3.166  11.798 -0.7626 -0.2402  0.6448
 9326TIP3    H249470   0.992   3.219  11.932 -0.8137 -0.0753  0.5612
 9327TIP3   OH249471   2.444   3.316  13.365  0.1437  0.5150  0.3031
 9327TIP3    H149472   2.478   3.273  13.287  0.9960  0.0587  0.9006
 9327TIP3    H249473   2.435   3.408  13.341  0.2995  0.3572 -0.3619
 9328TIP3   OH249474   0.567   6.573  14.147 -0.2548  0.4835 -0.1718
 9328TIP3    H149475   0.474   6.596  14.144 -0.3005  0.1854 -3.0949
 9328TIP3    H249476   0.612   6.649  14.112  0.6147  0.4382  0.7796
 9329TIP3   OH249477   5.095   5.639   3.070 -0.1740 -0.0625  0.7832
 9329TIP3    H149478   5.163   5.706   3.080  0.3916 -0.7635  1.9696
 9329TIP3    H249479   5.050   5.662   2.989  0.7332  1.0907  0.5720
 9330TIP3   OH249480   3.230   3.571  13.870  0.1655 -0.5725 -0.3418
 9330TIP3    H149481   3.262   3.481  13.861 -0.1401 -0.5436 -1.9157
 9330TIP3    H249482   3.139   3.567  13.840 -0.1349  0.0911  0.4510
 9331TIP3   OH249483   0.353   3.878   1.150 -0.2920  0.1226  0.1273
 9331TIP3    H149484   0.288   3.810   1.167  0.1550 -0.5033 -0.5957
 9331TIP3    H249485   0.396   3.851   1.069  0.2999  0.9640  0.1396
 9332TIP3   OH249486   4.464   3.336   5.059 -0.5269  0.3153 -0.2102
 9332TIP3    H149487   4.475   3.387   4.978  0.2100  0.6637  0.0936
 9332TIP3    H249488   4.538   3.363   5.114 -1.2681  0.4275  0.7688
 9333TIP3   OH249489   0.980   4.214  12.320  0.2567  0.5295 -0.0894
 9333TIP3    H149490   1.036   4.137  12.313 -1.4945 -0.9139  1.1776
 9333TIP3    H249491   0.913   4.202  12.252 -0.5773  0.4313  0.7377
 9334TIP3   OH249492   0.660   4.666   1.997  0.9851 -0.1929  0.0583
 9334TIP3    H149493   0.620   4.603   1.937  1.0612 -0.1611 -0.0262
 9334TIP3    H249494   0.738   4.621   2.029  0.2101 -0.7690  1.2166
 9335TIP3   OH249495   6.386   1.968   6.263  0.0604 -0.2289  0.2890
 9335TIP3    H149496   6.447   1.932   6.327  2.9296 -1.7151 -2.9865
 9335TIP3    H249497   6.304   1.920   6.280  0.4203 -0.0297  3.1656
 9336TIP3   OH249498   3.113   4.915  13.624 -0.0682 -0.1278  0.3833
 9336TIP3    H149499   3.182   4.898  13.559 -1.2123 -1.1827 -0.5967
 9336TIP3    H249500   3.068   4.992  13.591  0.4828  0.4217  0.9007
 9337TIP3   OH249501   5.534   3.042   1.401 -0.1993 -0.4780 -0.1516
 9337TIP3    H149502   5.469   2.976   1.425  1.5157 -2.3263 -0.2888
 9337TIP3    H249503   5.490   3.096   1.336 -1.6825 -1.4871 -0.0447
 9338TIP3   OH249504   4.895   5.848   0.202  0.1179 -0.2225  0.1835
 9338TIP3    H149505   4.899   5.860   0.297  0.4123 -1.7514  0.3825
 9338TIP3    H249506   4.840   5.771   0.190 -0.4365  0.3191 -0.9353
 9339TIP3   OH249507   6.708   4.749  13.104 -0.5231 -0.4073 -0.2707
 9339TIP3    H149508   6.627   4.698  13.100 -2.1182  1.9637 -0.1074
 9339TIP3    H249509   6.770   4.700  13.050 -2.1821 -2.0781 -0.7514
 9340TIP3   OH249510   3.495   3.703  10.974 -0.3370 -0.1484  0.0179
 9340TIP3    H149511   3.517   3.689  10.882 -1.6614  0.3885 -0.4008
 9340TIP3    H249512   3.577   3.685  11.021  0.4944  0.0505 -1.3007
 9341TIP3   OH249513   1.417   6.731  16.034  0.0429  0.0136 -0.1583
 9341TIP3    H149514   1.433   6.750  15.941 -0.7345  1.4230 -0.0293
 9341TIP3    H249515   1.425   6.815  16.078 -1.0074 -0.3812  0.8537
 9342TIP3   OH249516   5.586   5.151   2.662  0.3011 -0.1603 -0.2537
 9342TIP3    H149517   5.668   5.136   2.614  0.6536 -0.3627  0.3924
 9342TIP3    H249518   5.523   5.176   2.595  1.3206  1.7835 -0.5663
 9343TIP3   OH249519   1.351   0.548  10.689 -0.5210 -0.9896 -0.5168
 9343TIP3    H149520   1.369   0.454  10.689  0.8150 -0.7479  0.4421
 9343TIP3    H249521   1.256   0.554  10.679 -0.6994 -2.4556  0.1335
 9344TIP3   OH249522   1.749   1.571  14.840 -0.2202 -0.0907 -0.1741
 9344TIP3    H149523   1.688   1.627  14.888  0.4832 -0.8921  1.7506
 9344TIP3    H249524   1.759   1.494  14.896  1.8671 -0.3672 -0.8650
 9345TIP3   OH249525   1.677   3.003   5.787 -0.2639  0.0872  0.3775
 9345TIP3    H149526   1.629   2.942   5.731 -0.2460 -0.1523  0.6200
 9345TIP3    H249527   1.673   2.963   5.874  0.5828 -0.0481  0.3560
 9346TIP3   OH249528   0.312   1.468   1.691 -0.4701 -0.1323  0.9355
 9346TIP3    H149529   0.218   1.484   1.686 -0.7673 -1.6025  1.2001
 9346TIP3    H249530   0.322   1.375   1.671  0.8673 -0.1474  1.5037
 9347TIP3   OH249531   1.760   4.839  15.716 -0.5262 -0.3002 -0.1390
 9347TIP3    H149532   1.854   4.840  15.696 -0.7427 -0.5989 -1.2204
 9347TIP3    H249533   1.728   4.924  15.683 -0.4678  0.2445  1.1516
 9348TIP3   OH249534   3.546   6.085  11.866 -0.4658  0.1593 -0.0144
 9348TIP3    H149535   3.614   6.147  11.842 -0.8691  1.2864  1.6258
 9348TIP3    H249536   3.594   6.005  11.890  0.2742  0.8161  0.7644
 9349TIP3   OH249537   5.302   2.515  12.787  0.0184 -0.4380 -0.8050
 9349TIP3    H149538   5.243   2.576  12.832 -1.7309 -1.4250 -1.6424
 9349TIP3    H249539   5.358   2.480  12.857 -0.8610  0.0053  0.1548
 9350TIP3   OH249540   0.279   3.255  12.445 -0.2790  0.2435  0.5211
 9350TIP3    H149541   0.238   3.178  12.484 -0.9422  0.7549  0.8406
 9350TIP3    H249542   0.322   3.221  12.366 -3.8572  0.1452 -1.5631
 9351TIP3   OH249543   1.989   3.415   6.040  0.3138 -0.2716  0.0048
 9351TIP3    H149544   1.921   3.362   5.997  0.5936 -1.8405  1.4031
 9351TIP3    H249545   1.944   3.457   6.113  0.2772  0.8426 -0.6351
 9352TIP3   OH249546   1.629   6.451   0.613  0.1201 -0.4363 -0.2084
 9352TIP3    H149547   1.708   6.457   0.559 -0.1157  0.9480 -0.4350
 9352TIP3    H249548   1.577   6.527   0.587 -0.3246 -0.1362  1.4625
 9353TIP3   OH249549   2.487   5.055   5.650  0.6545 -0.7685  0.0418
 9353TIP3    H149550   2.397   5.087   5.643  0.7730  0.0023  1.4545
 9353TIP3    H249551   2.534   5.100   5.580  0.4644  0.9851  0.9786
 9354TIP3   OH249552   5.386   3.022  13.710  0.8209  0.1827  0.3348
 9354TIP3    H149553   5.379   3.063  13.796 -2.1218 -1.9841  1.3018
 9354TIP3    H249554   5.429   2.938  13.728 -2.2780 -1.5469  0.3764
 9355TIP3   OH249555   2.879   0.254  16.934 -0.4657  0.2553  0.1461
 9355TIP3    H149556   2.846   0.278  16.847  0.8846 -0.2742 -0.5414
 9355TIP3    H249557   2.951   0.315  16.950 -1.2331  0.9023  1.2950
 9356TIP3   OH249558   3.592   3.105   3.187  0.3127 -0.2249  0.5606
 9356TIP3    H149559   3.514   3.153   3.215 -1.0655 -1.2360 -1.2506
 9356TIP3    H249560   3.641   3.167   3.133  0.5057  0.2618  1.2864
 9357TIP3   OH249561   3.870   3.033  14.531  0.7270  0.5433 -0.3202
 9357TIP3    H149562   3.927   3.072  14.465 -0.0518  0.3275 -1.1309
 9357TIP3    H249563   3.859   3.102  14.597  1.3169  0.8396 -0.5288
 9358TIP3   OH249564   4.966   5.025  12.888  0.2536  0.2239  0.5385
 9358TIP3    H149565   5.052   5.015  12.846  0.4107 -2.5654  1.3194
 9358TIP3    H249566   4.912   5.069  12.822  1.3643 -1.0803 -1.3589
 9359TIP3   OH249567   1.240   1.417  11.261  0.3552 -0.2458  0.1016
 9359TIP3    H149568   1.148   1.441  11.250  0.4130  1.2407  2.2940
 9359TIP3    H249569   1.286   1.469  11.194 -0.0453  2.2066  1.6078
 9360TIP3   OH249570   4.743   6.588  15.657  0.6071  0.2952  0.1743
 9360TIP3    H149571   4.719   6.627  15.573 -0.4655  0.9618  0.7605
 9360TIP3    H249572   4.706   6.500  15.653  0.2776  0.4354  0.0663
 9361TIP3   OH249573   1.717   4.424  13.913  0.6721  0.1453  0.0164
 9361TIP3    H149574   1.723   4.354  13.848 -0.3655  0.3958 -0.3769
 9361TIP3    H249575   1.661   4.490  13.871 -1.2070 -0.3096  1.6742
 9362TIP3   OH249576   3.629   1.514  15.001 -0.8153 -0.3807  0.2185
 9362TIP3    H149577   3.653   1.586  15.060  0.7413 -0.5585 -0.1690
 9362TIP3    H249578   3.533   1.519  14.996 -0.7100  2.3058 -0.5764
 9363TIP3   OH249579   0.675   0.434  11.211 -0.2463 -0.2689 -0.1971
 9363TIP3    H149580   0.681   0.460  11.303 -0.5075  0.5722 -0.4089
 9363TIP3    H249581   0.602   0.484  11.176  0.7019  0.4720 -1.2020
 9364TIP3   OH249582   3.183   4.747   3.670 -0.1796 -0.5738 -0.0725
 9364TIP3    H149583   3.171   4.841   3.655  0.2032 -0.1279  2.0991
 9364TIP3    H249584   3.259   4.742   3.728 -1.1945 -2.1117  1.1849
 9365TIP3   OH249585   0.629   3.000   6.507 -0.1579 -0.6918 -0.0583
 9365TIP3    H149586   0.674   2.918   6.485 -3.4512 -2.6474 -0.2437
 9365TIP3    H249587   0.611   2.992   6.601 -1.7916 -0.9945 -0.3561
 9366TIP3   OH249588   0.199   6.797  17.197  0.6535 -0.0099  0.1049
 9366TIP3    H149589   0.221   6.761  17.283  0.3246  0.4341  0.3729
 9366TIP3    H249590   0.248   6.879  17.192  1.2203 -0.3673 -0.4159
 9367TIP3   OH249591   4.913   1.477  14.639  0.2050 -0.3540 -0.1319
 9367TIP3    H149592   4.934   1.562  14.678  2.2254 -1.4671  1.4036
 9367TIP3    H249593   4.985   1.460  14.579 -0.1668 -1.0110 -0.4021
 9368TIP3   OH249594   5.218   5.499  17.030 -0.1726  0.4840  0.2521
 9368TIP3    H149595   5.177   5.543  17.105 -1.1619 -0.3657  0.2241
 9368TIP3    H249596   5.262   5.424  17.069  0.0094  0.4986  0.0725
 9369TIP3   OH249597   1.650   5.544   5.362 -0.4745  0.2816 -0.1425
 9369TIP3    H149598   1.730   5.515   5.407 -1.0797 -0.0264  0.7705
 9369TIP3    H249599   1.678   5.563   5.273  0.5476 -0.1687  0.0690
 9370TIP3   OH249600   4.666   0.860  14.424 -0.0254  0.1071  0.4572
 9370TIP3    H149601   4.668   0.818  14.338  0.8367  2.2042 -0.6421
 9370TIP3    H249602   4.758   0.882  14.442 -0.3791  1.0831  1.1598
 9371TIP3   OH249603   4.268   4.263   0.205 -0.7439  0.1683  0.1121
 9371TIP3    H149604   4.291   4.208   0.279 -1.5027 -0.4628 -0.1115
 9371TIP3    H249605   4.341   4.325   0.197 -0.3544 -0.1707  0.9732
 9372TIP3   OH249606   0.526   1.438   0.617 -0.4500  0.0196  0.1900
 9372TIP3    H149607   0.477   1.491   0.555 -1.5731 -0.4458  0.6447
 9372TIP3    H249608   0.616   1.439   0.585 -1.1299 -0.8333 -1.8603
 9373TIP3   OH249609   3.615   3.502   3.104 -0.4899 -0.1272 -0.5435
 9373TIP3    H149610   3.648   3.591   3.117 -0.1583 -0.3212 -0.0068
 9373TIP3    H249611   3.603   3.494   3.010 -0.1317  0.3492 -0.6318
 9374TIP3   OH249612   1.973   5.614  14.895 -0.1231  0.2604  0.0762
 9374TIP3    H149613   1.939   5.576  14.814 -1.7233  0.8644  0.4381
 9374TIP3    H249614   1.917   5.578  14.964  0.8353  0.2301  0.8547
 9375TIP3   OH249615   1.351   2.343  12.766  0.5412 -0.4781 -0.0759
 9375TIP3    H149616   1.364   2.257  12.727  0.8745 -0.3423 -0.2685
 9375TIP3    H249617   1.399   2.403  12.709  3.0093 -0.5495  1.8031
 9376TIP3   OH249618   5.419   3.105  11.744 -0.4409  0.4498  0.1152
 9376TIP3    H149619   5.343   3.128  11.796 -1.3644  1.4831 -1.6380
 9376TIP3    H249620   5.484   3.172  11.764 -0.4370  0.3038  0.6142
 9377TIP3   OH249621   6.093   6.130   5.557  0.2355 -0.9046 -0.1537
 9377TIP3    H149622   6.045   6.063   5.605  1.1801 -1.1131  0.5304
 9377TIP3    H249623   6.182   6.125   5.591  0.2449  0.9845  0.2440
 9378TIP3   OH249624   3.615   0.048   0.656  0.3601 -0.5771  0.4177
 9378TIP3    H149625   3.534   0.081   0.694  0.3702  1.6318 -1.2306
 9378TIP3    H249626   3.592   0.024   0.566  1.3599 -0.7155  0.1837
 9379TIP3   OH249627   6.597   6.014  11.925  0.2772  0.3233  0.0150
 9379TIP3    H149628   6.527   5.959  11.890  0.0678 -0.3629  1.4468
 9379TIP3    H249629   6.553   6.070  11.989  0.6478  1.5787 -0.7870
 9380TIP3   OH249630   5.898   6.476  15.253 -0.1111  0.6858  0.1008
 9380TIP3    H149631   5.957   6.520  15.191  1.4179 -1.4877 -0.0949
 9380TIP3    H249632   5.852   6.411  15.200 -0.9829  0.7909  0.7098
 9381TIP3   OH249633   4.895   6.691   3.797 -0.2734  0.0654 -0.0811
 9381TIP3    H149634   4.844   6.631   3.742 -0.9107 -0.8761  1.4940
 9381TIP3    H249635   4.947   6.742   3.734 -1.5556 -0.4174 -1.6046
 9382TIP3   OH249636   5.905   2.131   3.868 -0.1016 -0.2201  0.1978
 9382TIP3    H149637   5.902   2.176   3.783 -2.7545  0.6305  0.6567
 9382TIP3    H249638   5.895   2.201   3.933 -1.4612 -1.1526  1.0416
 9383TIP3   OH249639   4.159   1.887   4.309 -0.3841  0.0732 -0.7428
 9383TIP3    H149640   4.096   1.862   4.376  0.1901 -0.3501 -0.3425
 9383TIP3    H249641   4.220   1.813   4.305 -1.2147 -0.5897 -2.7792
 9384TIP3   OH249642   0.947   4.424  13.137 -0.3756  0.1536  0.8045
 9384TIP3    H149643   0.875   4.424  13.074 -0.4028 -1.8375  0.7706
 9384TIP3    H249644   1.001   4.349  13.111  1.4932  1.3132  1.1029
 9385TIP3   OH249645   1.852   0.186   6.342  0.0613 -0.2924 -0.0015
 9385TIP3    H149646   1.788   0.253   6.318 -1.9139 -2.5964 -1.6168
 9385TIP3    H249647   1.934   0.215   6.302 -1.2147  0.1827 -2.4365
 9386TIP3   OH249648   0.282   1.451   3.900  0.3624 -0.2011 -0.0365
 9386TIP3    H149649   0.359   1.394   3.910  0.2641 -1.0315 -2.9885
 9386TIP3    H249650   0.209   1.397   3.931  0.6980 -0.2669  0.6568
 9387TIP3   OH249651   3.325   2.619   1.520 -0.5059 -0.4990  0.2892
 9387TIP3    H149652   3.368   2.582   1.597  0.4336 -1.1869 -0.5437
 9387TIP3    H249653   3.239   2.648   1.552 -0.3092 -1.1716  1.4841
 9388TIP3   OH249654   1.089   2.952   4.461  0.1690  0.6628 -0.1065
 9388TIP3    H149655   1.100   2.863   4.427  3.5379  0.8882  0.0512
 9388TIP3    H249656   1.160   2.962   4.525 -0.6056  3.2244  0.4635
 9389TIP3   OH249657   5.936   1.337   3.272 -0.4925 -0.4352  0.3357
 9389TIP3    H149658   5.922   1.430   3.256 -0.2653  0.0329  2.5133
 9389TIP3    H249659   5.870   1.314   3.338 -1.2715 -2.1177 -0.9281
 9390TIP3   OH249660   5.780   0.094   0.762 -0.5641 -0.4213  0.5132
 9390TIP3    H149661   5.860   0.137   0.792 -0.9327 -0.3619  1.4395
 9390TIP3    H249662   5.805   0.052   0.679  0.2532  0.1173  0.4800
 9391TIP3   OH249663   1.135   3.247  14.113  0.5632  0.0363  0.2175
 9391TIP3    H149664   1.124   3.300  14.192  0.6594  0.2809  0.0674
 9391TIP3    H249665   1.221   3.205  14.123  1.1061  0.9960 -0.2978
 9392TIP3   OH249666   3.970   3.638  13.344  0.3047 -0.6651 -0.7070
 9392TIP3    H149667   4.057   3.668  13.369 -1.1789  1.6012  2.3829
 9392TIP3    H249668   3.974   3.543  13.351  2.2535 -0.5445  0.4799
 9393TIP3   OH249669   3.174   1.081  17.252 -0.1113  0.3030  0.2782
 9393TIP3    H149670   3.167   1.046  17.340 -1.4485 -2.9815 -0.9637
 9393TIP3    H249671   3.118   1.158  17.252 -0.9759 -0.2803  2.0413
 9394TIP3   OH249672   3.666   4.317   0.798 -0.9924 -0.0381  0.3044
 9394TIP3    H149673   3.708   4.239   0.835 -1.5006 -0.4528  0.0223
 9394TIP3    H249674   3.609   4.349   0.869  0.1888  0.8522  0.8894
 9395TIP3   OH249675   0.113   2.764  13.231 -0.0012  0.2491  0.6686
 9395TIP3    H149676   0.104   2.770  13.326  1.9298 -3.7435  1.2966
 9395TIP3    H249677   0.043   2.706  13.203  0.8283 -0.4681  0.0247
 9396TIP3   OH249678   4.756   6.026  12.219 -0.3707  0.3140 -0.2062
 9396TIP3    H149679   4.786   6.106  12.263  0.4191 -0.3432  0.4960
 9396TIP3    H249680   4.696   5.986  12.281 -1.8944  1.0544 -1.1487
 9397TIP3   OH249681   5.635   6.117   4.482  0.0580  0.2860  0.0485
 9397TIP3    H149682   5.712   6.167   4.510  0.1376  0.2342 -0.0779
 9397TIP3    H249683   5.561   6.175   4.500  0.1743  0.5685 -0.3792
 9398TIP3   OH249684   6.273   1.401  12.236  0.4373  0.0061 -0.0718
 9398TIP3    H149685   6.216   1.442  12.301 -2.0490  0.5498 -2.3922
 9398TIP3    H249686   6.283   1.311  12.266 -1.0086  0.1144  0.8463
 9399TIP3   OH249687   0.508   6.158   1.627  0.6847 -0.2762  0.1156
 9399TIP3    H149688   0.492   6.073   1.585  1.2459  0.2088 -1.0961
 9399TIP3    H249689   0.540   6.135   1.714  1.8322 -1.3376 -0.5483
 9400TIP3   OH249690   3.640   1.318  15.209 -0.3646 -0.0517  0.4096
 9400TIP3    H149691   3.576   1.345  15.274 -0.8584  0.9249 -0.4472
 9400TIP3    H249692   3.632   1.383  15.139 -0.2675 -1.3845 -0.8979
 9401TIP3   OH249693   3.520   2.322  14.036 -0.2180  0.5162  0.0643
 9401TIP3    H149694   3.547   2.241  13.993 -0.3941  0.8666 -0.7191
 9401TIP3    H249695   3.591   2.383  14.019 -0.4873  0.7860 -0.1014
 9402TIP3   OH249696   1.036   2.628   1.095  0.5042  0.0047 -0.3772
 9402TIP3    H149697   0.966   2.612   1.159  1.5791  2.5969  1.6314
 9402TIP3    H249698   0.994   2.613   1.010 -2.0583  0.0270  0.7773
 9403TIP3   OH249699   1.767   6.002  11.280  0.0904  0.2553  0.1824
 9403TIP3    H149700   1.718   6.032  11.203  0.0829  0.6818  0.3511
 9403TIP3    H249701   1.824   6.076  11.302  1.0233 -0.3369 -0.1862
 9404TIP3   OH249702   6.108   4.182   2.873 -0.1571  0.2968  0.2189
 9404TIP3    H149703   6.018   4.158   2.850 -1.0578 -0.9276  4.2281
 9404TIP3    H249704   6.161   4.109   2.840 -0.6333  0.7955 -1.7560
 9405TIP3   OH249705   5.207   1.391   2.595  0.3572 -0.0144  0.2705
 9405TIP3    H149706   5.117   1.418   2.614 -0.2548 -0.7421 -1.4319
 9405TIP3    H249707   5.245   1.467   2.550  0.9224  0.6495  1.8123
 9406TIP3   OH249708   4.338   5.150   2.181  0.0549  0.3078 -0.1986
 9406TIP3    H149709   4.371   5.127   2.268  0.5642 -0.9788 -0.7139
 9406TIP3    H249710   4.303   5.238   2.192  0.1762  0.2021  1.2948
 9407TIP3   OH249711   3.786   0.578  12.067 -0.0193  0.4242  0.2099
 9407TIP3    H149712   3.881   0.577  12.081  0.0745 -1.5119 -0.3052
 9407TIP3    H249713   3.771   0.654  12.011  1.4046 -0.0109 -0.8110
 9408TIP3   OH249714   1.578   5.815  13.304  0.2590 -0.2323 -0.5503
 9408TIP3    H149715   1.493   5.775  13.287  0.7023 -1.3864 -0.1647
 9408TIP3    H249716   1.588   5.882  13.237 -1.0997  0.1553 -0.3804
 9409TIP3   OH249717   6.737   6.713   4.054 -0.0780  0.0738  0.1994
 9409TIP3    H149718   6.791   6.737   4.129  0.2265 -1.0510  0.3669
 9409TIP3    H249719   6.798   6.670   3.993 -0.5339 -0.0464 -0.1842
 9410TIP3   OH249720   4.464   3.217   4.002 -0.0128 -0.0168 -0.0162
 9410TIP3    H149721   4.444   3.243   4.092  1.0212  0.0007  0.2171
 9410TIP3    H249722   4.461   3.122   4.003  0.3710 -0.0279  0.1274
 9411TIP3   OH249723   2.385   2.983   0.134 -0.6906  0.1915  0.3322
 9411TIP3    H149724   2.347   2.912   0.083 -0.6835  0.5265 -0.1520
 9411TIP3    H249725   2.479   2.966   0.133 -0.7066  0.1010  0.3832
 9412TIP3   OH249726   4.035   3.536  13.801  0.0017 -0.2518 -0.0049
 9412TIP3    H149727   4.115   3.578  13.833 -0.7852 -0.0749  1.8662
 9412TIP3    H249728   3.964   3.591  13.835 -0.9415  0.0349 -2.2691
 9413TIP3   OH249729   1.765   0.109   3.411 -0.2224  0.2671 -0.4551
 9413TIP3    H149730   1.730   0.165   3.480 -1.5643 -1.1132  0.0344
 9413TIP3    H249731   1.859   0.127   3.412 -0.1972  0.3191  1.7199
 9414TIP3   OH249732   5.548   0.590  14.993  0.4858  0.0427 -0.1727
 9414TIP3    H149733   5.506   0.544  14.921 -0.8066  0.8375  0.0428
 9414TIP3    H249734   5.482   0.652  15.024  0.3857 -1.2951  2.6824
 9415TIP3   OH249735   4.533   4.182  11.694 -0.1878  0.3019 -0.0162
 9415TIP3    H149736   4.550   4.226  11.777 -0.7124  1.7772 -0.6658
 9415TIP3    H249737   4.582   4.100  11.701 -1.3115 -0.2558  2.2788
 9416TIP3   OH249738   1.045   2.298   5.748 -0.3775  0.0532 -0.5880
 9416TIP3    H149739   1.067   2.216   5.791 -0.6872 -0.3341 -1.1545
 9416TIP3    H249740   1.103   2.363   5.788  1.2680 -0.7884 -1.5156
 9417TIP3   OH249741   3.446   0.294  15.773 -0.3550 -0.1989  0.3077
 9417TIP3    H149742   3.372   0.288  15.833 -0.8808  0.8614 -0.2140
 9417TIP3    H249743   3.410   0.330  15.692  0.2700 -1.9461 -0.8086
 9418TIP3   OH249744   4.776   2.575  13.537 -0.0040 -0.2406  0.3085
 9418TIP3    H149745   4.703   2.613  13.488  1.0176  0.9442 -0.3790
 9418TIP3    H249746   4.800   2.497  13.487 -0.6062 -0.4618  0.3643
 9419TIP3   OH249747   3.052   6.186   3.282 -0.4313 -0.0032  0.5301
 9419TIP3    H149748   3.112   6.231   3.343  0.0564 -1.6657  1.3303
 9419TIP3    H249749   2.969   6.232   3.293  0.4071  1.6659  0.1856
 9420TIP3   OH249750   3.197   3.130   5.935  0.1320  0.2523 -0.3403
 9420TIP3    H149751   3.203   3.076   6.014  0.6514  0.9136  0.0845
 9420TIP3    H249752   3.184   3.067   5.864  0.5509 -0.4176  0.1633
 9421TIP3   OH249753   3.443   1.906  11.397 -0.2621 -0.4442 -0.0245
 9421TIP3    H149754   3.397   1.975  11.444 -0.5556 -1.2443  0.8880
 9421TIP3    H249755   3.375   1.865  11.343 -0.9295 -2.2521  2.0368
 9422TIP3   OH249756   4.734   3.301   0.139 -0.1343  0.4735  0.0423
 9422TIP3    H149757   4.720   3.272   0.229 -2.7019  2.2783  0.3490
 9422TIP3    H249758   4.663   3.260   0.090  0.2711  0.7984 -0.8245
 9423TIP3   OH249759   5.131   1.147  13.549 -0.5770 -0.1052 -0.0475
 9423TIP3    H149760   5.155   1.152  13.457  0.1825 -3.0453 -0.0937
 9423TIP3    H249761   5.130   1.053  13.569  1.2738  0.4434  3.4412
 9424TIP3   OH249762   1.289   2.535   1.514 -0.3925  0.8264 -0.1673
 9424TIP3    H149763   1.341   2.473   1.463 -0.6126 -0.0488  0.6509
 9424TIP3    H249764   1.354   2.588   1.560 -0.2146  0.3293  0.1576
 9425TIP3   OH249765   5.492   3.755  14.695  0.9061  0.5151  1.0986
 9425TIP3    H149766   5.492   3.747  14.791 -0.1860 -1.2517  0.9959
 9425TIP3    H249767   5.401   3.774  14.673  0.9087 -0.3374  0.3321
 9426TIP3   OH249768   3.973   2.495  12.677 -0.8919  0.1699  0.0681
 9426TIP3    H149769   4.023   2.561  12.724 -0.2820 -0.7636  0.7698
 9426TIP3    H249770   3.896   2.479  12.731 -1.6082  1.0678 -0.6440
 9427TIP3   OH249771   1.403   4.465  12.570 -0.2132 -0.2745  0.3137
 9427TIP3    H149772   1.349   4.422  12.504  2.3286 -1.4394 -1.1806
 9427TIP3    H249773   1.453   4.393  12.609  0.2126  0.7230  1.6707
 9428TIP3   OH249774   2.178   3.636  11.846  0.2348 -0.7304  0.1040
 9428TIP3    H149775   2.153   3.599  11.931 -0.4935 -0.8148 -0.1402
 9428TIP3    H249776   2.191   3.729  11.863 -0.2687 -0.6802  0.2428
 9429TIP3   OH249777   0.808   3.027   0.778  0.2331 -0.2695 -0.4259
 9429TIP3    H149778   0.904   3.031   0.771  0.2699 -0.7778 -0.3048
 9429TIP3    H249779   0.789   3.069   0.862  0.4279 -0.9249 -0.0433
 9430TIP3   OH249780   4.484   2.296  15.751  0.2600 -0.1645 -0.8961
 9430TIP3    H149781   4.569   2.323  15.716  0.5399  0.5965  0.3350
 9430TIP3    H249782   4.427   2.294  15.674  1.0886  0.5201 -1.5582
 9431TIP3   OH249783   3.535   5.966  14.693 -0.3936  0.2066 -0.1480
 9431TIP3    H149784   3.442   5.959  14.669 -0.6508  3.6619 -0.6258
 9431TIP3    H249785   3.573   6.020  14.624  1.2993  1.3116  1.5615
 9432TIP3   OH249786   1.658   3.709   5.616 -0.1046 -0.3635 -0.1191
 9432TIP3    H149787   1.607   3.789   5.626 -0.2112 -0.2906 -1.1242
 9432TIP3    H249788   1.746   3.739   5.591 -0.0986 -0.5475 -0.3277
 9433TIP3   OH249789   1.226   5.462  11.174 -0.1612 -0.0127 -0.4136
 9433TIP3    H149790   1.259   5.382  11.214 -0.2345 -0.2581 -0.8394
 9433TIP3    H249791   1.135   5.469  11.205  0.4194  0.9666  1.2214
 9434TIP3   OH249792   3.831   6.478  12.558 -0.1391 -0.0771 -0.2529
 9434TIP3    H149793   3.854   6.395  12.600  0.0025 -0.1276 -0.4341
 9434TIP3    H249794   3.744   6.499  12.594 -0.7924 -0.9883 -1.2201
 9435TIP3   OH249795   5.497   5.689  15.478  0.1511 -0.0955  0.6347
 9435TIP3    H149796   5.562   5.704  15.547  0.0973 -0.6038  0.8041
 9435TIP3    H249797   5.502   5.767  15.423  0.0243  0.4311  1.3519
 9436TIP3   OH249798   3.963   6.217   2.061 -0.0140  0.4977  0.2997
 9436TIP3    H149799   3.888   6.246   2.113  0.4571  1.6408  0.3612
 9436TIP3    H249800   4.014   6.164   2.121  1.5110  3.3318  1.6759
 9437TIP3   OH249801   4.678   5.811   0.621 -0.0204  0.2600 -0.1807
 9437TIP3    H149802   4.665   5.827   0.715 -1.5074  0.0433 -0.3307
 9437TIP3    H249803   4.646   5.721   0.608  4.1762 -1.4556 -0.1349
 9438TIP3   OH249804   5.641   0.892   3.849 -0.1223  0.1338  0.2725
 9438TIP3    H149805   5.736   0.884   3.850 -0.1482 -0.1489  0.4839
 9438TIP3    H249806   5.614   0.869   3.938 -0.5821 -2.1719 -0.3835
 9439TIP3   OH249807   6.600   3.554  15.016  0.1159 -0.3905 -0.3197
 9439TIP3    H149808   6.679   3.606  15.030  1.2017 -1.6531 -1.4132
 9439TIP3    H249809   6.555   3.555  15.100  0.4759  1.6412 -0.1052
 9440TIP3   OH249810   2.714   2.642  11.928 -0.0386 -0.0544  0.1981
 9440TIP3    H149811   2.673   2.674  12.008 -0.1635  1.3175 -0.3862
 9440TIP3    H249812   2.723   2.720  11.872 -0.7924 -1.1063 -1.4829
 9441TIP3   OH249813   6.424   6.468  12.740 -0.2586 -0.3857  0.0787
 9441TIP3    H149814   6.437   6.563  12.746 -2.0508 -0.0787 -0.1312
 9441TIP3    H249815   6.329   6.458  12.729 -0.5702 -2.3429  3.2698
 9442TIP3   OH249816   0.944   6.295  13.852  0.5048  0.3585  0.1302
 9442TIP3    H149817   0.869   6.336  13.809  1.0297 -0.1611 -1.3357
 9442TIP3    H249818   1.020   6.325  13.801  1.0709 -0.9793  0.1563
 9443TIP3   OH249819   5.654   0.325   1.685 -0.3752 -0.3881  0.0770
 9443TIP3    H149820   5.607   0.264   1.743 -0.8288 -0.8721 -0.7825
 9443TIP3    H249821   5.620   0.306   1.598  0.4167  0.2256 -0.3771
 9444TIP3   OH249822   4.770   1.588  12.270  0.5824 -0.6340 -0.2314
 9444TIP3    H149823   4.821   1.510  12.288  0.3284 -0.7220  0.1200
 9444TIP3    H249824   4.693   1.581  12.328  0.8351  0.1455  0.2211
 9445TIP3   OH249825   1.271   1.652   3.364  0.1159  0.4610  0.3535
 9445TIP3    H149826   1.198   1.606   3.323  2.6080 -3.0026 -0.7155
 9445TIP3    H249827   1.333   1.668   3.292  1.7013  0.5086  1.6685
 9446TIP3   OH249828   1.317   3.660   5.430  0.0887 -0.0620  0.0852
 9446TIP3    H149829   1.395   3.713   5.417 -0.6941  0.6602 -2.1899
 9446TIP3    H249830   1.271   3.663   5.346 -0.6822 -3.3010  0.2332
 9447TIP3   OH249831   6.606   6.087   2.746 -0.1913  0.4730  0.2918
 9447TIP3    H149832   6.572   6.168   2.784 -1.2560  0.6408 -0.9613
 9447TIP3    H249833   6.576   6.018   2.806 -1.1264  0.8100  0.2175
 9448TIP3   OH249834   1.043   5.462   3.808 -0.2984  0.1623 -0.2259
 9448TIP3    H149835   0.978   5.393   3.796  1.1954 -1.3304 -0.1710
 9448TIP3    H249836   1.119   5.417   3.845 -0.2170  2.3271  2.6147
 9449TIP3   OH249837   4.179   3.334   0.355 -0.0424 -0.6943 -0.1398
 9449TIP3    H149838   4.166   3.424   0.324 -1.0022 -1.0850 -0.8905
 9449TIP3    H249839   4.102   3.315   0.408 -0.2947 -1.4012 -0.7517
 9450TIP3   OH249840   0.129   4.509  16.050  0.4738 -0.3439  0.3445
 9450TIP3    H149841   0.170   4.427  16.020 -1.2155 -0.6845 -1.1853
 9450TIP3    H249842   0.102   4.490  16.139 -0.0969 -1.5574 -0.0566
 9451TIP3   OH249843   0.692   0.032  15.260 -0.0984 -0.2591  0.3418
 9451TIP3    H149844   0.783   0.042  15.232  0.0128  3.0537  1.5019
 9451TIP3    H249845   0.649   0.113  15.233 -2.0749 -0.6354  2.0722
 9452TIP3   OH249846   0.743   4.895  12.762 -0.1678  0.1526  0.0490
 9452TIP3    H149847   0.757   4.842  12.683 -1.2068  0.2087 -0.2007
 9452TIP3    H249848   0.685   4.966  12.733 -2.1013 -0.8460  1.2136
 9453TIP3   OH249849   1.788   5.550  16.614 -0.0455 -0.2623 -0.2337
 9453TIP3    H149850   1.721   5.605  16.574 -0.1482 -0.1347  0.1106
 9453TIP3    H249851   1.803   5.589  16.700 -1.6926 -1.9785  0.9251
 9454TIP3   OH249852   3.875   1.288   6.038  0.5482  0.5140 -0.3760
 9454TIP3    H149853   3.900   1.281   6.130  0.3954 -0.7040 -0.4169
 9454TIP3    H249854   3.848   1.379   6.027 -0.6499  0.3683  1.0960
 9455TIP3   OH249855   4.749   2.183   1.674 -0.4202 -0.0349 -0.0180
 9455TIP3    H149856   4.741   2.277   1.662  0.4732 -0.1532 -1.8016
 9455TIP3    H249857   4.804   2.173   1.752 -0.8658  0.9004  0.4211
 9456TIP3   OH249858   4.561   5.277  13.049 -0.0162 -0.8359  0.9222
 9456TIP3    H149859   4.540   5.278  12.956 -1.3443 -0.9545  1.1977
 9456TIP3    H249860   4.630   5.211  13.057  1.3666  0.4016 -0.1866
 9457TIP3   OH249861   5.900   0.114   5.081  0.3843 -0.6584 -0.3723
 9457TIP3    H149862   5.882   0.141   5.171  0.7295 -0.6658 -0.3012
 9457TIP3    H249863   5.986   0.072   5.085  0.7535  0.0419 -0.8496
 9458TIP3   OH249864   5.380   0.936  14.060  0.1681  0.1899 -0.1554
 9458TIP3    H149865   5.397   1.006  13.997  0.2626 -0.4274 -0.8409
 9458TIP3    H249866   5.423   0.859  14.022  0.8311 -0.0417  1.0259
 9459TIP3   OH249867   0.023   5.900   1.532 -0.5004  0.4958  0.1709
 9459TIP3    H149868  -0.055   5.949   1.509 -1.0606 -0.3959  0.1115
 9459TIP3    H249869   0.001   5.858   1.616 -0.1889  0.0408  0.0323
 9460TIP3   OH249870   4.866   5.369  14.480 -0.2598  0.3713  0.2329
 9460TIP3    H149871   4.921   5.347  14.555  1.0291  0.3193 -0.6912
 9460TIP3    H249872   4.783   5.395  14.518 -0.4032 -1.8283  1.5694
 9461TIP3   OH249873   6.478   4.255  13.042  0.6286  0.0098  0.1273
 9461TIP3    H149874   6.410   4.240  13.107  0.3241 -1.0447 -0.4165
 9461TIP3    H249875   6.434   4.247  12.958  1.2738  0.0833 -0.2299
 9462TIP3   OH249876   3.194   5.965  12.469  0.3241  0.0891  0.2995
 9462TIP3    H149877   3.117   6.014  12.499 -0.2594  0.1322 -1.1560
 9462TIP3    H249878   3.159   5.878  12.446  0.5501  0.3357 -1.0490
 9463TIP3   OH249879   4.780   2.529  14.734  0.8655 -0.3889  0.2312
 9463TIP3    H149880   4.775   2.620  14.704 -2.0843 -0.1746  1.0589
 9463TIP3    H249881   4.761   2.477  14.656  1.4912 -0.2438 -0.0194
 9464TIP3   OH249882   4.617   5.213   0.171 -1.1272  0.5157  0.0555
 9464TIP3    H149883   4.541   5.269   0.189 -1.5473  0.0527 -0.2381
 9464TIP3    H249884   4.653   5.194   0.258 -0.2425  2.2165  0.0950
 9465TIP3   OH249885   4.581   6.682  12.092  0.3024 -0.0364  0.0875
 9465TIP3    H149886   4.655   6.732  12.127  0.9749 -0.8689 -0.0981
 9465TIP3    H249887   4.511   6.694  12.156  0.7210  0.4602  0.4587
 9466TIP3   OH249888   0.445   2.793  16.283  0.8197 -0.4888  0.0225
 9466TIP3    H149889   0.491   2.755  16.358 -0.7357 -1.8738  0.3296
 9466TIP3    H249890   0.432   2.885  16.305  0.5208 -0.8481  1.3843
 9467TIP3   OH249891   0.836   5.117   2.045  0.1882 -0.0575  0.0019
 9467TIP3    H149892   0.905   5.162   2.094  1.1274 -1.2414 -0.1961
 9467TIP3    H249893   0.832   5.030   2.084  0.6919 -0.8996 -1.7324
 9468TIP3   OH249894   6.772   4.332  14.804  0.4541 -0.1469  0.0273
 9468TIP3    H149895   6.777   4.260  14.741  0.4348 -0.4142  0.3311
 9468TIP3    H249896   6.769   4.290  14.890 -0.3170  0.1861  0.1812
 9469TIP3   OH249897   5.488   0.114  12.011  0.5808 -0.5114  0.3220
 9469TIP3    H149898   5.408   0.083  12.054  1.6758  0.6107  3.4724
 9469TIP3    H249899   5.504   0.052  11.940 -1.9657 -1.9155  0.8706
 9470TIP3   OH249900   2.097   1.255   4.326  0.1146  0.1048  0.0624
 9470TIP3    H149901   2.081   1.206   4.245 -3.3584  0.0738  0.6202
 9470TIP3    H249902   2.165   1.319   4.302 -1.2901  0.5845 -3.1347
 9471TIP3   OH249903   5.664   1.097   4.525 -0.4566 -0.3205  0.3144
 9471TIP3    H149904   5.586   1.104   4.470 -0.2937  0.8556  0.2167
 9471TIP3    H249905   5.683   1.187   4.552  2.0040 -0.2391 -1.3045
 9472TIP3   OH249906   3.152   1.980  15.984  0.5907 -0.3381  0.3722
 9472TIP3    H149907   3.204   1.928  16.046  0.5933  0.2089  0.8350
 9472TIP3    H249908   3.196   2.065  15.980  0.0106 -0.0307  0.4000
 9473TIP3   OH249909   0.160   2.299   0.457 -0.0316 -0.7042  0.3661
 9473TIP3    H149910   0.218   2.306   0.533 -0.4809 -1.0516  0.7417
 9473TIP3    H249911   0.119   2.213   0.465 -0.4481 -0.5461 -0.0073
 9474TIP3   OH249912   2.785   6.543  16.674 -0.1628  0.2629 -0.2146
 9474TIP3    H149913   2.710   6.499  16.715  0.5591  0.1735  1.0314
 9474TIP3    H249914   2.853   6.476  16.670  1.0722  1.2951  2.0325
 9475TIP3   OH249915   4.193   3.184  15.561 -0.4101 -0.4083  0.0528
 9475TIP3    H149916   4.111   3.230  15.543 -0.0833 -0.4847 -1.9204
 9475TIP3    H249917   4.255   3.222  15.498  0.5237 -1.7477  0.1282
 9476TIP3   OH249918   3.919   4.627   2.883  0.0193 -0.2066 -0.0212
 9476TIP3    H149919   4.012   4.616   2.866 -0.4217 -2.2585 -1.4773
 9476TIP3    H249920   3.892   4.543   2.921 -1.4795 -0.1816 -0.9422
 9477TIP3   OH249921   2.091   1.219   2.769 -0.2373  0.2227  0.9416
 9477TIP3    H149922   2.181   1.233   2.800 -0.3107 -1.3075  1.9631
 9477TIP3    H249923   2.040   1.205   2.849 -0.8498 -1.7063  0.2654
 9478TIP3   OH249924   0.453   2.785  12.680 -0.1292 -0.1797 -0.1860
 9478TIP3    H149925   0.403   2.707  12.701  1.3024 -1.2300 -0.5469
 9478TIP3    H249926   0.540   2.770  12.719  0.1411  1.2936 -0.1312
 9479TIP3   OH249927   0.424   2.374   4.588  0.0505  0.0218  0.0276
 9479TIP3    H149928   0.334   2.368   4.622 -0.2089 -2.1584 -0.8882
 9479TIP3    H249929   0.446   2.466   4.597 -2.2992  0.6418  0.2669
 9480TIP3   OH249930   3.177   5.138   2.979  0.0528 -0.6762  0.4218
 9480TIP3    H149931   3.196   5.229   2.958 -0.2935 -1.2180 -2.6979
 9480TIP3    H249932   3.260   5.092   2.964  0.0799 -0.9766  1.4182
 9481TIP3   OH249933   6.299   2.766  12.999 -0.4057 -0.1782  0.0669
 9481TIP3    H149934   6.369   2.803  12.944 -0.2287 -0.9764 -0.2516
 9481TIP3    H249935   6.345   2.712  13.063 -0.7229 -0.6428 -0.0933
 9482TIP3   OH249936   1.907   6.415  13.339 -0.0014  0.3468  0.2955
 9482TIP3    H149937   1.812   6.412  13.350 -0.1100  1.9335  0.0399
 9482TIP3    H249938   1.941   6.426  13.428 -0.1578  1.1370  0.2692
 9483TIP3   OH249939   1.674   3.938   4.378 -0.5515 -0.3414  0.9933
 9483TIP3    H149940   1.719   3.950   4.295 -1.0643 -2.0383  0.4284
 9483TIP3    H249941   1.721   3.995   4.439  1.3565 -0.8440  0.0732
 9484TIP3   OH249942   2.816   2.422  12.057  0.0904  0.5334 -0.0454
 9484TIP3    H149943   2.820   2.465  12.143  1.5450 -0.4308  0.4120
 9484TIP3    H249944   2.764   2.481  12.003 -2.2139  0.4403  1.8969
 9485TIP3   OH249945   0.009   3.987  12.671 -0.1772 -0.3851 -0.4220
 9485TIP3    H149946   0.047   3.903  12.696  0.5386 -0.6786 -2.3168
 9485TIP3    H249947  -0.079   3.985  12.708  0.8168 -0.6550  2.1312
 9486TIP3   OH249948   6.488   0.310   5.647  0.4918 -0.5125 -0.3222
 9486TIP3    H149949   6.426   0.322   5.718 -0.3438 -1.6807 -0.8202
 9486TIP3    H249950   6.441   0.341   5.569  1.8268  1.9089 -0.2523
 9487TIP3   OH249951   3.758   0.482   3.359 -0.1351 -0.2432  0.4662
 9487TIP3    H149952   3.757   0.386   3.356 -1.5084 -0.2373 -0.2048
 9487TIP3    H249953   3.835   0.508   3.309  0.2568 -0.9938  0.6739
 9488TIP3   OH249954   6.505   3.225  11.042 -0.3185  0.4129 -0.3370
 9488TIP3    H149955   6.547   3.263  10.966  0.7638 -0.1871 -0.0623
 9488TIP3    H249956   6.568   3.237  11.113  0.1393 -1.8772 -0.2528
 9489TIP3   OH249957   5.084   1.314   4.535  1.0222 -0.6083  0.7572
 9489TIP3    H149958   5.031   1.292   4.458  1.4063 -1.3290  0.6920
 9489TIP3    H249959   5.123   1.399   4.513  0.6710 -0.5315  0.4039
 9490TIP3   OH249960   4.761   2.317  15.680  0.3593 -0.5298 -0.2363
 9490TIP3    H149961   4.809   2.286  15.603  0.8745  0.4282 -0.3175
 9490TIP3    H249962   4.803   2.274  15.754  0.9454 -0.1868 -0.3620
 9491TIP3   OH249963   0.635   0.268  11.590 -0.2050  0.0396 -0.2458
 9491TIP3    H149964   0.658   0.261  11.683 -0.2203 -1.3817 -0.3371
 9491TIP3    H249965   0.691   0.340  11.558  1.2339 -0.7202  0.4365
 9492TIP3   OH249966   2.473   6.155  14.806 -0.3664 -0.0795  0.1879
 9492TIP3    H149967   2.436   6.241  14.787  0.8160  0.5326  0.5590
 9492TIP3    H249968   2.485   6.154  14.901  0.7355 -0.1754  0.0634
 9493TIP3   OH249969   1.236   6.573  12.161 -0.2473 -0.2112  0.5164
 9493TIP3    H149970   1.258   6.586  12.068 -1.3343  0.9134  0.3925
 9493TIP3    H249971   1.310   6.613  12.208 -0.3870  0.5474  0.1141
 9494TIP3   OH249972   6.251   1.524   4.402 -0.6568  0.4791 -0.0772
 9494TIP3    H149973   6.343   1.526   4.375 -0.5569  2.3386  0.2852
 9494TIP3    H249974   6.209   1.592   4.350 -1.9304 -0.5314 -0.4414
 9495TIP3   OH249975   6.022   5.838  11.311 -0.2992 -0.6290  0.3242
 9495TIP3    H149976   5.931   5.854  11.288 -0.1287 -0.7626 -0.4505
 9495TIP3    H249977   6.017   5.790  11.394 -0.8513  1.9393  1.8852
 9496TIP3   OH249978   4.383   3.182  14.884  0.2851  0.2077 -0.5808
 9496TIP3    H149979   4.303   3.225  14.912  0.3414  0.0764 -0.2185
 9496TIP3    H249980   4.355   3.120  14.817  0.0618  0.0511 -0.3462
 9497TIP3   OH249981   2.812   4.687  16.582 -0.1881  0.5371 -0.7880
 9497TIP3    H149982   2.808   4.723  16.671 -2.0699  0.6927 -0.8964
 9497TIP3    H249983   2.857   4.603  16.593  1.1989  1.3552  0.0092
 9498TIP3   OH249984   1.692   4.957  12.489 -0.1191 -0.2478 -0.2310
 9498TIP3    H149985   1.740   5.022  12.438 -0.1160  1.0600  1.3526
 9498TIP3    H249986   1.748   4.879  12.488  0.5599  0.2343 -0.9506
 9499TIP3   OH249987   3.191   4.909  10.447 -0.0755 -1.0602  0.8545
 9499TIP3    H149988   3.261   4.945  10.502 -1.6612 -1.6962  3.4698
 9499TIP3    H249989   3.204   4.814  10.451 -0.4628 -1.1320  0.5012
 9500TIP3   OH249990   5.205   2.307   0.626 -0.6048  0.0460 -0.7913
 9500TIP3    H149991   5.194   2.331   0.718 -1.8039  0.1155 -0.9415
 9500TIP3    H249992   5.168   2.380   0.577  0.5062  0.2482 -1.3526
 9501TIP3   OH249993   5.586   6.337  11.676 -0.0565 -0.6235 -0.0543
 9501TIP3    H149994   5.505   6.293  11.649 -0.4653 -0.1677  0.4117
 9501TIP3    H249995   5.616   6.381  11.596 -2.9526  3.3783  0.7530
 9502TIP3   OH249996   6.587   2.745   0.159 -0.1114  0.0693  0.2754
 9502TIP3    H149997   6.492   2.728   0.154 -0.3640  1.4343  0.0354
 9502TIP3    H249998   6.620   2.718   0.073 -0.1240 -1.2742  0.6819
 9503TIP3   OH249999   6.235   5.181  16.543 -0.6400  0.0956  0.1757
 9503TIP3    H150000   6.166   5.245  16.560 -1.5381 -0.4237 -1.3560
 9503TIP3    H250001   6.198   5.122  16.478  1.3306 -0.1012 -0.8396
 9504TIP3   OH250002   2.564   3.937  16.660  0.4274 -0.3942  0.2620
 9504TIP3    H150003   2.571   4.032  16.650  0.3847 -0.5369 -1.2746
 9504TIP3    H250004   2.654   3.907  16.671  0.5218 -0.2632 -0.1468
 9505TIP3   OH250005   4.077   3.353   4.945  0.4289  0.1517 -0.6072
 9505TIP3    H150006   4.104   3.430   4.995 -0.0579  1.1998 -1.8880
 9505TIP3    H250007   4.092   3.279   5.004 -0.3685  1.3471  1.1863
 9506TIP3   OH250008   0.765   2.046   1.750  0.7771  0.5766  0.0405
 9506TIP3    H150009   0.785   2.131   1.790 -1.2104  0.9402  0.3604
 9506TIP3    H250010   0.678   2.024   1.784  1.4758 -1.8735  0.3968
 9507TIP3   OH250011   5.890   2.352   0.526 -0.5960  0.0432 -0.2385
 9507TIP3    H150012   5.810   2.388   0.489  0.4230  1.6831 -0.9638
 9507TIP3    H250013   5.907   2.405   0.604 -0.8424 -1.0922  0.6161
 9508TIP3   OH250014   3.324   0.043   3.485 -0.3428  0.1675  0.0698
 9508TIP3    H150015   3.281   0.061   3.569  0.0673 -0.4057  0.4134
 9508TIP3    H250016   3.273  -0.028   3.446 -0.3354  0.2041 -0.0059
 9509TIP3   OH250017   0.452   6.787   5.167 -0.2186 -0.8124  0.2288
 9509TIP3    H150018   0.445   6.706   5.218  2.1565 -1.4117 -0.2795
 9509TIP3    H250019   0.390   6.775   5.095 -1.8913 -0.9593  1.6138
 9510TIP3   OH250020   3.760   6.131   1.612 -0.0713 -0.1522  0.3650
 9510TIP3    H150021   3.767   6.204   1.673  1.8930 -0.9596  1.2146
 9510TIP3    H250022   3.849   6.095   1.607 -0.9422 -2.4499 -0.0547
 9511TIP3   OH250023   5.657   3.459  10.947  0.8621 -0.6758 -0.5076
 9511TIP3    H150024   5.580   3.419  10.907 -0.3973  0.3336  0.7763
 9511TIP3    H250025   5.705   3.497  10.874 -0.4712 -0.3494 -1.2575
 9512TIP3   OH250026   0.193   0.385  12.771 -0.7667  0.6235  0.4372
 9512TIP3    H150027   0.246   0.391  12.851  0.4672  0.0048 -0.2859
 9512TIP3    H250028   0.161   0.295  12.770  0.7206  0.0481 -0.6068
 9513TIP3   OH250029   5.276   3.573   1.337  0.0450 -0.4618  0.1070
 9513TIP3    H150030   5.267   3.533   1.424 -1.8014 -0.4988 -0.0711
 9513TIP3    H250031   5.250   3.504   1.277 -0.9449  0.2876 -0.3360
 9514TIP3   OH250032   2.767   1.814   0.416 -0.2166 -0.0821 -0.7249
 9514TIP3    H150033   2.693   1.759   0.441  0.4976 -0.2871  1.1475
 9514TIP3    H250034   2.829   1.755   0.373 -0.7406 -0.0940 -1.4744
 9515TIP3   OH250035   0.121   3.298  13.910  0.2004 -0.4780  0.3305
 9515TIP3    H150036   0.140   3.294  14.003  2.2018 -1.3559 -0.0735
 9515TIP3    H250037   0.046   3.240  13.898 -0.2861 -0.0977  1.4051
 9516TIP3   OH250038   2.829   2.802   1.601 -0.0446  0.1878 -0.2980
 9516TIP3    H150039   2.754   2.782   1.544  1.3938 -0.3479 -2.1048
 9516TIP3    H250040   2.795   2.866   1.663 -2.1816 -0.5522 -0.6010
 9517TIP3   OH250041   3.384   6.301  16.770  0.5450  0.1161  0.5587
 9517TIP3    H150042   3.307   6.337  16.813 -0.8700 -0.7275 -1.1263
 9517TIP3    H250043   3.382   6.207  16.790 -0.3083 -0.3526 -1.4232
 9518TIP3   OH250044   3.211   1.234  13.233  0.2823  0.4876  0.2669
 9518TIP3    H150045   3.298   1.210  13.200  0.4952 -0.7534  1.6054
 9518TIP3    H250046   3.152   1.170  13.192  0.3143  0.0014  0.9637
 9519TIP3   OH250047   0.390   6.648   2.809  0.2839  0.3741  0.1928
 9519TIP3    H150048   0.422   6.738   2.803 -0.4902  0.6349 -0.1447
 9519TIP3    H250049   0.437   6.601   2.740  0.1706  0.6809 -0.0926
 9520TIP3   OH250050   1.461   4.817   5.389  0.9791 -0.5483  0.3099
 9520TIP3    H150051   1.462   4.721   5.388  0.7458 -0.5692  1.3040
 9520TIP3    H250052   1.487   4.840   5.478 -1.1919  0.2790  0.7870
 9521TIP3   OH250053   5.842   2.889  16.748  0.8258 -0.0358 -0.3746
 9521TIP3    H150054   5.793   2.956  16.795  1.5685  0.2228  0.0485
 9521TIP3    H250055   5.915   2.868  16.806  0.5550 -1.2784 -0.4694
 9522TIP3   OH250056   3.066   5.617   3.944 -0.1982  0.3517 -0.5257
 9522TIP3    H150057   3.151   5.578   3.961 -0.5693 -0.4233 -0.3881
 9522TIP3    H250058   3.059   5.690   4.006 -0.1265 -0.3265  0.2895
 9523TIP3   OH250059   3.296   6.277  11.366  0.1279 -0.3421 -0.5972
 9523TIP3    H150060   3.373   6.244  11.411 -0.4754 -1.6245 -0.4540
 9523TIP3    H250061   3.329   6.347  11.310  1.1121  0.3330  0.7564
 9524TIP3   OH250062   1.560   6.029   0.451 -0.2480  0.3594 -0.1186
 9524TIP3    H150063   1.648   6.007   0.481 -0.1549  0.5450 -0.2543
 9524TIP3    H250064   1.507   5.952   0.471  0.2380 -0.2842 -1.2941
 9525TIP3   OH250065   3.694   2.790  13.565  0.4801  0.1014  0.1622
 9525TIP3    H150066   3.759   2.811  13.632 -0.4411  0.3695  1.0050
 9525TIP3    H250067   3.614   2.771  13.614 -0.7581  2.2198 -0.8969
 9526TIP3   OH250068   4.859   5.284   6.167  0.6895 -0.0111 -0.4423
 9526TIP3    H150069   4.880   5.364   6.215  0.3656  0.1082 -0.4919
 9526TIP3    H250070   4.939   5.232   6.170  0.4030 -0.4143  1.0267
 9527TIP3   OH250071   4.831   6.262   0.547 -0.4503 -0.2681  0.1359
 9527TIP3    H150072   4.836   6.319   0.471  0.4393  1.0184  1.1120
 9527TIP3    H250073   4.838   6.173   0.512 -0.2237  0.2990 -1.2841
 9528TIP3   OH250074   1.803   3.364  13.374 -0.1775 -0.0818 -0.0582
 9528TIP3    H150075   1.889   3.348  13.414 -0.4436 -0.3844  0.4145
 9528TIP3    H250076   1.761   3.425  13.434 -0.0605  0.5466 -0.6173
 9529TIP3   OH250077   2.544   0.303  11.942  0.4224  0.0873  0.0161
 9529TIP3    H150078   2.585   0.338  12.020 -0.6063  1.9036 -0.1989
 9529TIP3    H250079   2.470   0.251  11.974  0.6101 -0.0166  0.2770
 9530TIP3   OH250080   5.998   1.777  14.604  0.2404  0.3816  0.0367
 9530TIP3    H150081   5.948   1.780  14.522 -1.6090 -0.3292  1.0995
 9530TIP3    H250082   6.016   1.684  14.618 -0.5626  0.3740  1.0762
 9531TIP3   OH250083   1.557   3.410  11.631 -0.6376  0.0984 -0.0434
 9531TIP3    H150084   1.591   3.422  11.720 -0.3609  1.7491 -0.3472
 9531TIP3    H250085   1.565   3.316  11.615 -0.0616 -0.1244  1.4249
 9532TIP3   OH250086   3.066   5.073   5.668 -0.3289  0.2974  0.0916
 9532TIP3    H150087   3.032   5.157   5.699 -1.8965 -0.1975 -0.1805
 9532TIP3    H250088   3.114   5.037   5.743 -2.9569 -0.3003  1.6220
 9533TIP3   OH250089   6.268   3.852   4.948  0.0400 -0.0305  0.3942
 9533TIP3    H150090   6.278   3.925   5.009 -0.5541  0.0288  0.4172
 9533TIP3    H250091   6.174   3.842   4.937  0.1362 -0.2875 -0.2212
 9534TIP3   OH250092   2.415   3.189  15.032  0.6380  0.0717 -0.0293
 9534TIP3    H150093   2.414   3.259  14.967 -1.3664 -0.0671 -0.1995
 9534TIP3    H250094   2.480   3.127  14.999  0.4152  0.5071 -1.3468
 9535TIP3   OH250095   5.698   5.325  16.041  0.5315  0.0698  0.6109
 9535TIP3    H150096   5.709   5.306  16.134 -0.7555 -0.8507  0.5911
 9535TIP3    H250097   5.685   5.420  16.037  1.0345  0.1785  1.3089
 9536TIP3   OH250098   2.922   3.037  14.373  0.0465  0.2344  0.2360
 9536TIP3    H150099   2.924   3.041  14.277 -2.0323  0.2632  0.1507
 9536TIP3    H250100   2.842   3.083  14.397  0.4787  0.1371  2.0025
 9537TIP3   OH250101   2.246   5.052  12.202 -1.0248  0.0019 -0.2619
 9537TIP3    H150102   2.311   5.001  12.154  0.5542  1.4406  0.2546
 9537TIP3    H250103   2.163   5.032  12.159  0.0214 -0.4211 -2.1837
 9538TIP3   OH250104   1.772   3.979   6.382 -0.3821  0.2843 -0.0389
 9538TIP3    H150105   1.812   3.903   6.427 -1.0109  0.3395  0.6390
 9538TIP3    H250106   1.826   4.053   6.409 -0.6304  0.2850  0.4852
 9539TIP3   OH250107   2.003   1.773  11.521 -0.0794  0.4461 -0.4743
 9539TIP3    H150108   1.956   1.822  11.588  0.9306  0.1322  0.4974
 9539TIP3    H250109   1.992   1.681  11.546  0.4545  0.3372 -0.6295
 9540TIP3   OH250110   2.488   4.603   0.163 -0.0200  0.5887  0.0748
 9540TIP3    H150111   2.481   4.575   0.072  1.6573 -0.6136  0.2758
 9540TIP3    H250112   2.419   4.668   0.173 -0.8938  0.0147 -1.7691
 9541TIP3   OH250113   2.594   0.758   4.336  0.2434  0.1679  0.0032
 9541TIP3    H150114   2.632   0.751   4.423  0.6647  2.7507  0.1122
 9541TIP3    H250115   2.520   0.696   4.337  2.1888 -2.3016  0.9842
 9542TIP3   OH250116   3.139   1.658   3.959 -0.2623  0.1236 -0.2840
 9542TIP3    H150117   3.152   1.741   4.005  0.0650  0.2493 -0.5919
 9542TIP3    H250118   3.076   1.679   3.890  2.2648  1.0102 -2.5405
 9543TIP3   OH250119   4.777   6.254  14.139  0.9129 -0.1497 -0.0441
 9543TIP3    H150120   4.836   6.217  14.074 -1.3441 -0.7325 -1.9208
 9543TIP3    H250121   4.780   6.194  14.213  1.0780 -1.3419 -0.9940
 9544TIP3   OH250122   2.504   1.235   1.265  0.2372 -0.0625 -0.4456
 9544TIP3    H150123   2.494   1.239   1.360 -1.1958  0.5160 -0.5960
 9544TIP3    H250124   2.466   1.150   1.241  1.1713 -0.4912 -0.4587
 9545TIP3   OH250125   3.622   4.941   2.211  0.5262  0.1826 -0.3433
 9545TIP3    H150126   3.530   4.922   2.194  0.4727  1.1165 -1.1371
 9545TIP3    H250127   3.646   4.879   2.281 -0.0361 -1.7419 -1.7674
 9546TIP3   OH250128   3.913   3.323  15.661  0.0954 -0.3776 -0.4623
 9546TIP3    H150129   3.861   3.325  15.581  0.6260  1.6376 -0.8061
 9546TIP3    H250130   3.889   3.402  15.708  0.9618 -0.7245  0.6115
 9547TIP3   OH250131   3.924   3.438  14.954 -0.0464  0.0965  0.4801
 9547TIP3    H150132   3.979   3.360  14.949 -0.2322 -0.0382  0.4884
 9547TIP3    H250133   3.842   3.407  14.994 -0.8260 -0.1133 -1.1881
 9548TIP3   OH250134   4.679   6.633   4.901  0.3306 -0.7186 -0.0011
 9548TIP3    H150135   4.609   6.581   4.942 -0.0931 -1.6659 -1.8135
 9548TIP3    H250136   4.721   6.572   4.840  0.9218  0.6091 -0.9683
 9549TIP3   OH250137   0.130   0.115   2.919  0.0280  0.0281 -0.1373
 9549TIP3    H150138   0.097   0.030   2.949 -0.2004  0.7160  1.6904
 9549TIP3    H250139   0.151   0.162   2.999 -0.3070  1.8917 -1.0810
 9550TIP3   OH250140   1.009   5.117   5.932 -0.1749  0.0827  0.7086
 9550TIP3    H150141   1.031   5.050   5.867 -0.9378 -0.7424  1.2782
 9550TIP3    H250142   1.094   5.153   5.959  0.1043  2.7520 -3.0488
 9551TIP3   OH250143   0.820   4.951  14.925  0.2927  0.3842 -0.0633
 9551TIP3    H150144   0.913   4.970  14.913  0.1175  0.7342 -0.9312
 9551TIP3    H250145   0.776   5.008  14.863 -0.4220 -0.7125 -0.5907
 9552TIP3   OH250146   1.254   5.354  13.493  0.6173 -0.0454  0.2371
 9552TIP3    H150147   1.230   5.330  13.403  2.6613 -0.0803 -0.3501
 9552TIP3    H250148   1.210   5.290  13.548  3.1579 -3.1621 -1.0699
 9553TIP3   OH250149   2.413   2.398  13.434  0.3875  0.0337 -0.8035
 9553TIP3    H150150   2.475   2.349  13.488 -0.3120  0.0927  0.0776
 9553TIP3    H250151   2.342   2.336  13.416  0.4236  0.1376 -1.3203
 9554TIP3   OH250152   6.009   4.135  16.589 -0.6148 -0.3701  0.4646
 9554TIP3    H150153   6.080   4.189  16.623 -0.5664  0.3110 -0.6572
 9554TIP3    H250154   6.022   4.135  16.494 -2.0425 -0.3027  0.2389
 9555TIP3   OH250155   5.547   2.335   3.428 -0.2450 -0.2045  0.5871
 9555TIP3    H150156   5.457   2.310   3.446 -0.3454  0.2917  0.7884
 9555TIP3    H250157   5.547   2.431   3.430  0.2682 -0.1959  0.5048
 9556TIP3   OH250158   6.237   0.308  12.608 -0.3635  0.1922  0.3188
 9556TIP3    H150159   6.326   0.336  12.587 -0.7162  2.6255  1.7340
 9556TIP3    H250160   6.182   0.350  12.541 -0.6633  0.9673  1.0243
 9557TIP3   OH250161   0.252   5.157   1.949  0.2855 -0.1296  0.7214
 9557TIP3    H150162   0.196   5.102   2.004 -0.7665 -0.3931 -0.5557
 9557TIP3    H250163   0.275   5.101   1.875  0.6685  0.5955  0.2794
 9558TIP3   OH250164   4.874   0.906  12.804  0.1362  0.6921  0.2403
 9558TIP3    H150165   4.880   0.817  12.770 -1.0347  0.2552  1.0970
 9558TIP3    H250166   4.949   0.952  12.767 -0.8176  0.1616 -2.5984
 9559TIP3   OH250167   1.289   5.105   3.709  0.1894  0.3267  0.2512
 9559TIP3    H150168   1.367   5.152   3.678  0.8556 -1.1565 -0.3875
 9559TIP3    H250169   1.220   5.132   3.648  0.4108  0.9238  0.2515
 9560TIP3   OH250170   4.485   5.287   1.123  0.0575  0.2584 -0.2169
 9560TIP3    H150171   4.495   5.343   1.045  0.2492  0.8198  0.2046
 9560TIP3    H250172   4.399   5.247   1.112 -0.5209  1.4101 -0.0438
 9561TIP3   OH250173   3.633   6.368  10.619  0.0608  0.1500 -0.3006
 9561TIP3    H150174   3.658   6.383  10.528  0.0438 -1.5293 -0.6238
 9561TIP3    H250175   3.606   6.276  10.621  0.5343  0.0132  1.5011
 9562TIP3   OH250176   0.814   3.499  13.822 -0.4404 -0.8642  0.1436
 9562TIP3    H150177   0.906   3.525  13.813 -0.3422 -1.7951 -2.5209
 9562TIP3    H250178   0.768   3.550  13.755 -1.7488 -0.9166  0.9739
 9563TIP3   OH250179   0.639   1.300   1.169  0.0995  0.2572 -0.0495
 9563TIP3    H150180   0.559   1.287   1.220  0.7788  1.4430  1.3822
 9563TIP3    H250181   0.709   1.266   1.225  0.6790 -0.2257 -1.0375
 9564TIP3   OH250182   3.695   0.045   0.167 -0.0908  0.7637  0.3228
 9564TIP3    H150183   3.604   0.076   0.168 -0.0889  0.8060  1.8830
 9564TIP3    H250184   3.737   0.092   0.239  1.0571  0.3839 -0.0725
 9565TIP3   OH250185   4.362   2.261   0.686  0.7941  0.8170 -0.3037
 9565TIP3    H150186   4.404   2.302   0.610  1.3769  2.3588  0.8089
 9565TIP3    H250187   4.282   2.221   0.650  1.0964  1.4274 -1.7373
 9566TIP3   OH250188   2.526   2.995   3.437  0.0999  0.2057  0.0025
 9566TIP3    H150189   2.469   2.932   3.393  0.1345 -0.2079  0.5410
 9566TIP3    H250190   2.612   2.980   3.398 -0.2862  1.3430 -1.3514
 9567TIP3   OH250191   5.925   4.331   1.166  0.0288 -0.3844  0.5340
 9567TIP3    H150192   5.956   4.243   1.144  0.3884 -0.2811  0.6309
 9567TIP3    H250193   5.832   4.329   1.144  0.2709 -0.4431 -0.5091
 9568TIP3   OH250194   4.594   6.056  12.480  0.3141 -0.8123  0.1625
 9568TIP3    H150195   4.582   6.150  12.466  0.1533 -0.7084  0.9634
 9568TIP3    H250196   4.616   6.048  12.573  0.4515 -1.5566  0.0718
 9569TIP3   OH250197   3.236   2.929  16.395 -0.4502  0.2235 -0.6224
 9569TIP3    H150198   3.194   2.843  16.402  0.4768 -0.1882  0.0561
 9569TIP3    H250199   3.181   2.986  16.449  1.0051 -0.7874  2.1614
 9570TIP3   OH250200   5.573   3.948  16.668  0.3048  0.5350  0.1952
 9570TIP3    H150201   5.496   4.005  16.672 -0.7009 -0.8220  1.0427
 9570TIP3    H250202   5.538   3.861  16.651  1.6402 -0.1427  0.7333
 9571TIP3   OH250203   5.841   3.350   2.833  0.3868  0.4201  0.9486
 9571TIP3    H150204   5.794   3.345   2.749 -0.1725  1.5380  1.1671
 9571TIP3    H250205   5.783   3.307   2.896  0.7616 -0.3315  0.7860
 9572TIP3   OH250206   1.762   5.352  12.174 -0.3754  0.7465  0.2606
 9572TIP3    H150207   1.736   5.443  12.163  1.1956  1.3398  1.1895
 9572TIP3    H250208   1.858   5.353  12.172 -0.3230 -0.8872  0.2761
 9573TIP3   OH250209   2.019   5.209  14.765 -0.2292 -0.4097 -0.2328
 9573TIP3    H150210   1.949   5.178  14.824  0.1477 -1.1419 -0.1534
 9573TIP3    H250211   2.000   5.167  14.681  1.7721 -3.1376  0.5370
 9574TIP3   OH250212   4.509   5.928   3.667  0.1529  0.2162  0.3592
 9574TIP3    H150213   4.582   5.977   3.704  0.6308  0.6158 -1.0233
 9574TIP3    H250214   4.503   5.959   3.576 -0.8545 -0.8114  0.0441
 9575TIP3   OH250215   3.644   2.475   2.778  0.2661  0.7845  0.0512
 9575TIP3    H150216   3.680   2.488   2.691  0.3785  2.7732  0.3286
 9575TIP3    H250217   3.681   2.547   2.830 -0.1485 -0.0853  1.6276
 9576TIP3   OH250218   4.626   1.240  15.614 -0.2957  1.1634 -0.0190
 9576TIP3    H150219   4.714   1.268  15.636  0.2713  0.5684 -1.3711
 9576TIP3    H250220   4.613   1.159  15.663 -0.2741  1.4839  0.5247
 9577TIP3   OH250221   1.388   4.745   2.340 -0.0870  0.1646 -0.0297
 9577TIP3    H150222   1.404   4.826   2.290  1.2571 -0.5677 -0.8403
 9577TIP3    H250223   1.371   4.679   2.273 -2.1053 -0.0869  0.6620
 9578TIP3   OH250224   2.794   4.115  13.796 -0.4392 -0.5742 -0.1612
 9578TIP3    H150225   2.728   4.175  13.764 -0.7278 -1.6081 -1.6196
 9578TIP3    H250226   2.751   4.029  13.797  0.3500 -0.9863  0.5846
 9579TIP3   OH250227   1.115   1.397  13.058 -0.3324  0.2085 -0.4313
 9579TIP3    H150228   1.123   1.355  12.973  0.3042  0.7841 -0.6683
 9579TIP3    H250229   1.049   1.345  13.105 -2.7471  1.4256 -2.2302
 9580TIP3   OH250230   6.086   2.861  14.684 -0.2276 -0.1773  0.7607
 9580TIP3    H150231   6.047   2.884  14.600 -0.1779 -1.1785  0.4579
 9580TIP3    H250232   6.022   2.891  14.749 -0.9089 -0.6396  0.3098
 9581TIP3   OH250233   1.868   3.550  14.748  0.2103  0.2668 -0.3066
 9581TIP3    H150234   1.850   3.635  14.790 -1.6967  0.6084 -1.7112
 9581TIP3    H250235   1.854   3.486  14.817  0.1666  0.9909  0.3727
 9582TIP3   OH250236   2.168   4.405   1.559 -0.3318 -0.1720  0.3881
 9582TIP3    H150237   2.136   4.460   1.631 -0.6048  1.9806 -1.2775
 9582TIP3    H250238   2.248   4.449   1.529 -1.2524  0.1016 -1.8174
 9583TIP3   OH250239   5.281   0.941  11.721 -0.2508 -0.0565  0.0634
 9583TIP3    H150240   5.294   0.881  11.795 -0.1726 -0.2080 -0.0735
 9583TIP3    H250241   5.366   0.946  11.678  0.2583  1.5836  1.1366
 9584TIP3   OH250242   0.186   2.638  16.314 -0.2952 -0.1762 -0.5290
 9584TIP3    H150243   0.196   2.579  16.389  0.8905  0.6409 -0.0132
 9584TIP3    H250244   0.257   2.701  16.324 -1.1498  0.9680 -1.4150
 9585TIP3   OH250245   5.782   4.562  15.206  0.2944  0.4930  0.3084
 9585TIP3    H150246   5.715   4.519  15.258  0.4729 -0.8832 -0.5608
 9585TIP3    H250247   5.844   4.597  15.270  0.3484 -0.9005  1.0363
 9586TIP3   OH250248   2.681   5.834  13.746 -0.3728 -0.7435  0.3092
 9586TIP3    H150249   2.594   5.805  13.774 -1.5760  0.1655 -2.2177
 9586TIP3    H250250   2.740   5.765  13.777 -1.8599 -1.1461  2.5399
 9587TIP3   OH250251   1.110   3.355   1.970 -0.4754 -0.0493  0.7469
 9587TIP3    H150252   1.088   3.367   1.878 -3.1055 -1.1789  1.1440
 9587TIP3    H250253   1.113   3.444   2.005  0.9143  0.4150 -0.4649
 9588TIP3   OH250254   1.857   3.201   0.674  0.2994 -0.1832  0.5396
 9588TIP3    H150255   1.806   3.180   0.752  1.4194 -0.8301  1.1213
 9588TIP3    H250256   1.829   3.137   0.608 -0.9986  0.6682  0.2351
 9589TIP3   OH250257   6.151   2.788  13.801  0.4827  0.2746 -0.2610
 9589TIP3    H150258   6.193   2.757  13.721  0.3701 -1.0119  0.1534
 9589TIP3    H250259   6.143   2.710  13.856 -1.4349  0.6922  0.1282
 9590TIP3   OH250260   2.841   3.873   3.035  0.0333  0.4787  0.1276
 9590TIP3    H150261   2.872   3.851   3.122  0.4978  1.0541  0.1176
 9590TIP3    H250262   2.746   3.874   3.043  0.0904  2.1658  1.0716
 9591TIP3   OH250263   4.901   3.597   2.615 -0.1154  0.1028 -0.0126
 9591TIP3    H150264   4.824   3.579   2.669  0.0914  1.0150  0.6231
 9591TIP3    H250265   4.880   3.561   2.529 -0.5493 -1.1819  0.6120
 9592TIP3   OH250266   0.975   3.243  12.259  0.3159  0.2688  0.3807
 9592TIP3    H150267   1.023   3.214  12.336  2.8265 -1.3937 -1.6147
 9592TIP3    H250268   0.909   3.175  12.245 -0.9651  1.1957  1.6544
 9593TIP3   OH250269   5.899   5.849  14.630 -0.4821  0.1390  0.3907
 9593TIP3    H150270   5.821   5.798  14.609  0.5330 -0.6150 -1.9303
 9593TIP3    H250271   5.869   5.940  14.627 -1.4723 -0.1690  0.5154
 9594TIP3   OH250272   0.153   5.749   2.754  0.3630  0.3574 -0.4548
 9594TIP3    H150273   0.112   5.686   2.694 -2.8408  3.3084 -1.6632
 9594TIP3    H250274   0.210   5.802   2.697 -1.0103  1.7924 -0.5403
 9595TIP3   OH250275   1.932   4.414  12.224  0.3834 -0.3419 -0.6119
 9595TIP3    H150276   1.968   4.325  12.226  2.0442  0.3004 -0.8218
 9595TIP3    H250277   1.840   4.402  12.250  0.9416 -1.9229  0.8988
 9596TIP3   OH250278   1.339   1.361   4.700  0.1480 -0.2451  0.5107
 9596TIP3    H150279   1.430   1.336   4.715 -0.1001 -1.8869 -0.4438
 9596TIP3    H250280   1.292   1.328   4.777  0.1486 -0.7996  0.2797
 9597TIP3   OH250281   4.931   6.695  16.567  0.2171 -0.1867 -0.0450
 9597TIP3    H150282   4.971   6.754  16.502 -2.0747  0.9882 -0.4917
 9597TIP3    H250283   4.899   6.753  16.635 -1.0512 -1.0152  0.0959
 9598TIP3   OH250284   1.060   1.321  14.973 -0.5012 -0.4790 -0.1390
 9598TIP3    H150285   1.151   1.307  14.948  0.1134 -0.1311  1.7607
 9598TIP3    H250286   1.017   1.347  14.891  1.1312 -0.4176 -1.0291
 9599TIP3   OH250287   4.798   4.634  14.838 -0.3622 -0.3614 -0.6932
 9599TIP3    H150288   4.725   4.696  14.837 -0.0295  0.1002  0.7320
 9599TIP3    H250289   4.820   4.619  14.746 -1.7742  0.0546 -1.1057
 9600TIP3   OH250290   2.826   4.366   2.202 -0.0491  0.3755 -0.1096
 9600TIP3    H150291   2.850   4.457   2.220  0.1063  0.4578 -0.7298
 9600TIP3    H250292   2.875   4.315   2.267 -0.9489  0.8038  0.9271
 9601TIP3   OH250293   4.322   2.741  13.269  0.1475 -0.1609 -0.2014
 9601TIP3    H150294   4.246   2.738  13.211 -2.4647 -3.0810  2.9685
 9601TIP3    H250295   4.361   2.654  13.263  1.0565  0.1398  0.9147
 9602TIP3   OH250296   5.310   6.615  14.622 -0.2276 -0.0766  0.1571
 9602TIP3    H150297   5.376   6.546  14.631  1.0077  0.9034 -0.8025
 9602TIP3    H250298   5.239   6.590  14.680 -0.0927 -2.4559 -0.6145
 9603TIP3   OH250299   4.990   3.284  12.938 -0.0952  0.3241 -0.6291
 9603TIP3    H150300   5.041   3.331  12.872 -0.1567 -0.1499 -1.0184
 9603TIP3    H250301   5.028   3.312  13.021  1.7834 -1.0939 -0.9345
 9604TIP3   OH250302   6.631   2.455   1.343 -0.2717  0.2460  0.2657
 9604TIP3    H150303   6.610   2.495   1.258  1.1934  0.5183 -0.0055
 9604TIP3    H250304   6.602   2.519   1.408  0.1475  0.8284 -0.1058
 9605TIP3   OH250305   3.495   2.364   3.870  0.3130 -0.3207  0.3585
 9605TIP3    H150306   3.428   2.360   3.938  0.4405  0.1407  0.5101
 9605TIP3    H250307   3.496   2.276   3.833 -1.1169 -0.0592 -0.3652
 9606TIP3   OH250308   6.001   3.793   2.711 -0.0455 -0.2196 -0.0735
 9606TIP3    H150309   6.080   3.763   2.665  0.2658 -0.1885  0.4360
 9606TIP3    H250310   5.929   3.754   2.662  0.3346 -1.4258  0.3077
 9607TIP3   OH250311   3.765   2.631  14.228 -0.2441 -0.3294 -0.5102
 9607TIP3    H150312   3.781   2.648  14.136  0.4413  1.1938 -0.1433
 9607TIP3    H250313   3.835   2.571  14.254  1.3921  1.5655 -0.3302
 9608TIP3   OH250314   5.886   1.660  12.434 -0.0507 -0.5930  0.3512
 9608TIP3    H150315   5.791   1.656  12.430 -0.0939 -0.9274  1.4238
 9608TIP3    H250316   5.907   1.750  12.406 -0.6048 -0.8134 -0.8023
 9609TIP3   OH250317   6.042   3.662  11.144 -0.1150 -0.0039  0.3521
 9609TIP3    H150318   6.043   3.585  11.086 -0.6487  0.7120 -0.6376
 9609TIP3    H250319   6.134   3.680  11.162  0.0188 -0.8208  0.5174
 9610TIP3   OH250320   3.589   1.350  16.928 -0.1385 -0.1674  0.1469
 9610TIP3    H150321   3.591   1.442  16.900  0.0519  0.3879  1.8191
 9610TIP3    H250322   3.651   1.306  16.871 -0.4816  0.6732 -0.9091
 9611TIP3   OH250323   5.944   3.011  15.609 -0.1806  0.2758  0.8801
 9611TIP3    H150324   5.967   3.064  15.685 -2.0033  1.8962  0.3920
 9611TIP3    H250325   6.000   3.046  15.539  0.7633 -0.5256  1.2081
 9612TIP3   OH250326   5.076   4.361  16.832 -0.7965  0.2083  0.1442
 9612TIP3    H150327   5.098   4.424  16.900  0.5043 -0.4186  0.3304
 9612TIP3    H250328   5.026   4.293  16.877  0.8434 -0.6775  0.7170
 9613TIP3   OH250329   3.634   1.209  16.314 -0.2437  0.6378 -0.4486
 9613TIP3    H150330   3.588   1.245  16.238  1.0785 -0.1999 -1.6878
 9613TIP3    H250331   3.675   1.285  16.355 -1.0187  1.1060 -0.5200
 9614TIP3   OH250332   0.101   2.205   2.899  0.4629  0.1986 -0.3344
 9614TIP3    H150333   0.047   2.147   2.952  0.4745 -1.3857 -1.9681
 9614TIP3    H250334   0.065   2.292   2.914  0.7112 -0.1035  2.5218
 9615TIP3   OH250335   2.135   4.136  16.200  0.1337 -0.0401  0.1898
 9615TIP3    H150336   2.141   4.174  16.288  1.5329  0.5567 -0.1240
 9615TIP3    H250337   2.222   4.152  16.162 -0.4273 -0.3501 -1.2772
 9616TIP3   OH250338   2.728   2.511  14.966 -0.1619  0.1326 -0.5506
 9616TIP3    H150339   2.705   2.602  14.948  1.3069  1.0752  1.8632
 9616TIP3    H250340   2.820   2.504  14.942  0.4152  0.0433  1.4482
 9617TIP3   OH250341   5.434   6.301   1.226 -0.3981  0.0244  0.6428
 9617TIP3    H150342   5.477   6.373   1.179  2.5248 -1.1572  1.2532
 9617TIP3    H250343   5.408   6.340   1.309 -3.1033  1.4333 -0.7419
 9618TIP3   OH250344   0.232   1.710  17.273 -0.1594 -0.2543  0.0612
 9618TIP3    H150345   0.304   1.679  17.328  0.1699 -0.2303 -0.3554
 9618TIP3    H250346   0.199   1.788  17.319  0.9220  0.4977 -0.4133
 9619TIP3   OH250347   5.075   1.028  14.939  0.0065 -0.0483 -0.5427
 9619TIP3    H150348   5.035   0.970  15.003  0.8743 -1.7603 -1.4860
 9619TIP3    H250349   5.016   1.103  14.934 -0.6156 -0.3564  1.4566
 9620TIP3   OH250350   4.493   6.712   2.114 -0.0821  0.3815 -0.0299
 9620TIP3    H150351   4.505   6.742   2.024  0.4369 -0.9237 -0.4115
 9620TIP3    H250352   4.567   6.654   2.131 -0.3034  0.4166  1.1606
 9621TIP3   OH250353   6.512   2.990   0.505  0.2007 -0.1365  1.0776
 9621TIP3    H150354   6.450   3.062   0.494  0.0433 -0.4780 -0.5385
 9621TIP3    H250355   6.460   2.920   0.546 -0.7338 -0.6539 -0.8443
 9622TIP3   OH250356   3.207   3.867  15.826  0.3220  0.1191  0.4585
 9622TIP3    H150357   3.186   3.915  15.907 -0.9642 -1.0030  0.8182
 9622TIP3    H250358   3.122   3.835  15.795  0.9196 -0.2225 -0.8682
 9623TIP3   OH250359   4.006   1.005  12.494 -0.6208 -0.2442 -0.2526
 9623TIP3    H150360   3.973   0.982  12.407 -1.8252 -0.8105  0.3307
 9623TIP3    H250361   3.927   1.021  12.546  0.0882  0.4034  0.6638
 9624TIP3   OH250362   1.346   5.089  16.647  0.2289  0.6987  0.6699
 9624TIP3    H150363   1.251   5.079  16.644  0.1914  1.2418 -1.2580
 9624TIP3    H250364   1.380   4.999  16.644 -0.2295  0.5421 -2.6090
 9625TIP3   OH250365   1.901   0.134   2.794  0.4172  0.1058  1.0696
 9625TIP3    H150366   1.919   0.217   2.749  0.3081 -0.6021 -0.3360
 9625TIP3    H250367   1.808   0.118   2.779  0.6019 -0.6378  0.6672
 9626TIP3   OH250368   1.593   4.952   4.076 -0.3123 -0.0296 -0.2414
 9626TIP3    H150369   1.611   4.914   3.989 -0.7519 -1.3640  0.2207
 9626TIP3    H250370   1.657   5.023   4.085  1.1073 -1.1761 -0.8347
 9627TIP3   OH250371   1.926   1.267   3.941 -0.1218  0.3743  0.2536
 9627TIP3    H150372   1.868   1.205   3.897 -1.7026  2.2816 -0.4887
 9627TIP3    H250373   1.958   1.219   4.017  0.1211 -1.9276 -1.1705
 9628TIP3   OH250374   0.735   0.529  14.044  0.3785  0.0792  0.3861
 9628TIP3    H150375   0.760   0.472  14.117 -0.3339 -0.0051  0.5747
 9628TIP3    H250376   0.699   0.470  13.978  0.8957  0.1714  0.0118
 9629TIP3   OH250377   3.002   1.786   3.650  0.0256  0.2410 -0.6010
 9629TIP3    H150378   2.907   1.793   3.658  0.1213  0.3271  0.6372
 9629TIP3    H250379   3.019   1.693   3.635 -0.3013  0.3665 -1.8566
 9630TIP3   OH250380   4.577   6.123  13.328  0.3807  0.4829  0.4556
 9630TIP3    H150381   4.534   6.089  13.250  1.4800  1.0632 -0.4447
 9630TIP3    H250382   4.516   6.186  13.364 -0.0506  0.3693 -0.0678
 9631TIP3   OH250383   0.978   1.060   5.934  0.9064 -0.4379  0.2184
 9631TIP3    H150384   1.055   1.096   5.979  0.0877 -1.2928  2.4242
 9631TIP3    H250385   0.983   0.965   5.949  0.5933 -0.7762 -1.5661
 9632TIP3   OH250386   1.682   4.999  15.364  0.1261 -0.0629  0.1821
 9632TIP3    H150387   1.621   5.070  15.380 -0.4898 -0.0585 -1.8589
 9632TIP3    H250388   1.636   4.920  15.391 -0.4007  0.0477 -0.3621
 9633TIP3   OH250389   3.319   4.005   1.540 -0.1353  0.0916 -0.0800
 9633TIP3    H150390   3.394   3.969   1.492  1.3892 -0.4065  2.5081
 9633TIP3    H250391   3.304   3.943   1.611 -1.4241  1.4696  0.9040
 9634TIP3   OH250392   6.044   1.820  11.727  0.1423 -0.3930  0.0071
 9634TIP3    H150393   6.015   1.778  11.646  0.1846  1.0033 -0.7597
 9634TIP3    H250394   6.106   1.887  11.699  0.1118  0.1639  1.1910
 9635TIP3   OH250395   2.734   5.915  12.088  0.0644 -0.0292 -0.0320
 9635TIP3    H150396   2.670   5.984  12.077  1.7857  1.9487  1.4880
 9635TIP3    H250397   2.683   5.835  12.098 -2.1008  1.3285  0.2401
 9636TIP3   OH250398   6.263   4.557  11.537  0.1714  0.5086  0.0436
 9636TIP3    H150399   6.261   4.463  11.522  1.5930  0.0949  1.9650
 9636TIP3    H250400   6.171   4.583  11.543 -0.2411 -0.7483 -0.4994
 9637TIP3   OH250401   1.153   1.856   5.993  0.3752 -0.3459  0.5745
 9637TIP3    H150402   1.072   1.809   6.011  0.2374 -0.6144 -0.6887
 9637TIP3    H250403   1.221   1.788   5.996  0.2278 -0.5865 -0.8296
 9638TIP3   OH250404   5.207   5.175  14.522  0.4308 -0.3339  0.4071
 9638TIP3    H150405   5.222   5.082  14.505 -1.1101 -0.5021 -0.3139
 9638TIP3    H250406   5.250   5.220  14.449 -1.7807 -0.7583 -1.3008
 9639TIP3   OH250407   1.251   1.300  12.359 -0.3706 -0.4958 -0.3348
 9639TIP3    H150408   1.198   1.239  12.410 -1.5999  0.8345  0.0574
 9639TIP3    H250409   1.315   1.334  12.421 -1.7259  0.9591  0.3471
 9640TIP3   OH250410   1.826   0.466  14.527 -0.1316  0.0817 -0.5533
 9640TIP3    H150411   1.736   0.439  14.506 -0.5541  1.8809 -1.1792
 9640TIP3    H250412   1.856   0.513  14.449  0.5758  1.3833  0.4785
 9641TIP3   OH250413   1.178   3.152  12.808  0.3064 -0.3835 -0.1793
 9641TIP3    H150414   1.258   3.198  12.782  0.3553  0.4025  1.2893
 9641TIP3    H250415   1.127   3.218  12.854 -0.2293 -1.4483  0.7792
 9642TIP3   OH250416   5.605   4.117  15.210  0.2302  0.1101  0.7286
 9642TIP3    H150417   5.529   4.161  15.248 -1.2041 -0.5374 -1.1997
 9642TIP3    H250418   5.631   4.172  15.136 -2.6427 -2.7002 -2.8063
 9643TIP3   OH250419   2.259   5.480   6.124 -0.0622 -0.2766 -0.5566
 9643TIP3    H150420   2.222   5.407   6.173 -2.0242  1.1682  0.2146
 9643TIP3    H250421   2.192   5.502   6.059 -0.7384  2.5015  0.9554
 9644TIP3   OH250422   5.710   4.680   5.041 -0.1984  0.3957  0.7186
 9644TIP3    H150423   5.651   4.606   5.058  1.2206 -0.5102  1.8603
 9644TIP3    H250424   5.755   4.656   4.960  0.3381 -0.0369  1.1460
 9645TIP3   OH250425   3.859   6.538  16.006 -0.0840  0.1362  0.6192
 9645TIP3    H150426   3.892   6.625  15.983  0.9784 -0.5783 -0.7322
 9645TIP3    H250427   3.764   6.545  15.997  0.0744  0.8505 -0.6538
 9646TIP3   OH250428   4.123   5.900  13.935 -0.5100 -0.4709  0.3750
 9646TIP3    H150429   4.204   5.851  13.921 -0.8852 -1.4996  1.6635
 9646TIP3    H250430   4.079   5.855  14.007 -2.6370 -0.4461 -0.8139
 9647TIP3   OH250431   0.862   1.413  15.869  0.6376 -0.2911 -0.6333
 9647TIP3    H150432   0.834   1.401  15.778 -1.0429  0.0912 -0.2032
 9647TIP3    H250433   0.904   1.499  15.870 -2.4986  1.4029 -0.4493
 9648TIP3   OH250434   5.063   3.510  15.569 -0.0623 -0.8672  0.1334
 9648TIP3    H150435   4.998   3.506  15.640 -0.6736 -0.1445 -0.3657
 9648TIP3    H250436   5.012   3.508  15.489  0.4052  1.0128 -0.2703
 9649TIP3   OH250437   0.391   5.008   1.339 -0.1703 -0.1281  0.0072
 9649TIP3    H150438   0.355   5.094   1.322 -0.5656 -0.1725  0.6000
 9649TIP3    H250439   0.381   4.960   1.257  1.7976  0.9799 -0.9499
 9650TIP3   OH250440   4.673   5.143   5.826  0.2944 -0.0292 -0.2585
 9650TIP3    H150441   4.627   5.069   5.788  0.7222  0.1695 -1.1889
 9650TIP3    H250442   4.702   5.112   5.912 -0.2565 -0.6492 -0.2875
 9651TIP3   OH250443   3.463   3.855   5.657  0.1989  0.1791 -0.3011
 9651TIP3    H150444   3.498   3.944   5.649 -0.4957  0.5255  0.3899
 9651TIP3    H250445   3.375   3.867   5.693 -0.5462 -0.6864 -1.7549
 9652TIP3   OH250446   3.609   5.482   0.440  0.0638 -0.1030  0.0008
 9652TIP3    H150447   3.596   5.387   0.450  0.0518 -0.0800  0.2145
 9652TIP3    H250448   3.534   5.511   0.388 -0.2536 -0.1161  0.4474
 9653TIP3   OH250449   5.531   6.453   3.622  0.7323  0.1555  0.1164
 9653TIP3    H150450   5.516   6.446   3.528  1.4539  0.9825 -0.0813
 9653TIP3    H250451   5.532   6.363   3.654  1.4722 -0.1850 -0.8356
 9654TIP3   OH250452   5.433   3.699  13.868 -0.0021  0.3581 -0.1216
 9654TIP3    H150453   5.425   3.715  13.962 -0.8969 -1.1873  0.0932
 9654TIP3    H250454   5.401   3.780  13.828  0.8339  1.2249  0.8783
 9655TIP3   OH250455   2.718   2.554  13.394  0.6042 -0.0799 -0.4968
 9655TIP3    H150456   2.675   2.502  13.462  0.6927 -1.7711 -1.6778
 9655TIP3    H250457   2.654   2.559  13.323 -0.0239  2.8318  0.1477
 9656TIP3   OH250458   4.059   3.870   4.216 -0.6524 -0.6508 -0.6444
 9656TIP3    H150459   4.130   3.908   4.267 -0.9573 -0.7791 -0.1208
 9656TIP3    H250460   3.990   3.936   4.217  0.2770  0.4580 -3.0692
 9657TIP3   OH250461   3.175   4.590   4.094 -0.0210  0.3349 -0.0643
 9657TIP3    H150462   3.110   4.556   4.032  0.5130 -0.5768 -0.1311
 9657TIP3    H250463   3.211   4.667   4.050 -0.0725  0.0384 -0.6314
 9658TIP3   OH250464   5.521   0.213   2.633 -0.1214 -0.4851 -0.3805
 9658TIP3    H150465   5.518   0.121   2.607 -0.4469 -0.4664 -0.4176
 9658TIP3    H250466   5.435   0.229   2.672  0.4371 -0.5807  0.9388
 9659TIP3   OH250467   2.908   0.499   0.056 -0.0252 -0.3511 -0.4892
 9659TIP3    H150468   2.831   0.503  -0.001  0.4938 -2.1075 -1.3946
 9659TIP3    H250469   2.878   0.532   0.140 -1.0779  1.4040 -1.4961
 9660TIP3   OH250470   4.123   5.213   4.102  0.1257 -0.4066 -0.4879
 9660TIP3    H150471   4.121   5.202   4.007 -0.2621 -1.1029 -0.4041
 9660TIP3    H250472   4.034   5.237   4.126  0.1790 -0.4185 -0.2740
 9661TIP3   OH250473   3.111   3.611   3.241 -0.0495  0.0759  0.1456
 9661TIP3    H150474   3.089   3.532   3.291 -0.8486  0.5250  0.5461
 9661TIP3    H250475   3.065   3.681   3.288  2.2232  1.1070  0.9805
 9662TIP3   OH250476   0.644   2.003   2.449  0.2212  0.0893 -0.4303
 9662TIP3    H150477   0.593   2.052   2.514  0.0797 -1.5648  0.7755
 9662TIP3    H250478   0.583   1.989   2.376 -0.5407 -0.4127  0.2850
 9663TIP3   OH250479   3.793   5.735   0.118 -0.0544 -0.0161  0.5388
 9663TIP3    H150480   3.742   5.813   0.143 -1.9158 -0.6756 -0.9426
 9663TIP3    H250481   3.832   5.758   0.034  1.3809  0.1329  1.2206
 9664TIP3   OH250482   2.852   1.379   3.235 -0.1358  0.0842  0.8789
 9664TIP3    H150483   2.819   1.289   3.224 -0.5685  0.3283  0.0787
 9664TIP3    H250484   2.798   1.431   3.176  1.7116  0.4976 -0.5503
 9665TIP3   OH250485   3.274   5.569  12.895  0.2135 -0.4880 -0.3255
 9665TIP3    H150486   3.252   5.639  12.833  2.2683 -1.9003 -2.8853
 9665TIP3    H250487   3.355   5.598  12.936 -1.2537  0.5362  1.9928
 9666TIP3   OH250488   5.974   3.367   1.838 -1.0633  0.2050  0.1604
 9666TIP3    H150489   6.030   3.438   1.805 -1.2203 -0.0221 -0.6227
 9666TIP3    H250490   6.033   3.312   1.890 -0.6506  0.2095 -0.2937
 9667TIP3   OH250491   6.491   2.290  14.104 -0.2629 -0.1195 -0.3220
 9667TIP3    H150492   6.537   2.290  14.188  0.7855 -1.4842 -0.8458
 9667TIP3    H250493   6.458   2.200  14.096 -2.3281  0.5987 -0.3589
 9668TIP3   OH250494   0.389   6.560   2.034  0.2787  0.2426 -0.3456
 9668TIP3    H150495   0.432   6.629   2.084  2.1846 -0.7960 -0.4735
 9668TIP3    H250496   0.427   6.566   1.946  0.4185 -0.8973 -0.3842
 9669TIP3   OH250497   3.071   2.658   5.507 -0.6506  0.1370 -0.3919
 9669TIP3    H150498   2.983   2.647   5.542 -1.4541  0.5826 -2.1194
 9669TIP3    H250499   3.124   2.593   5.552 -2.2811 -1.4399 -0.6432
 9670TIP3   OH250500   2.833   1.005   1.596 -0.4194  0.3603 -0.1135
 9670TIP3    H150501   2.879   1.028   1.515 -1.0829  0.3963 -0.4923
 9670TIP3    H250502   2.770   1.076   1.608 -0.3596  0.3277  0.4131
 9671TIP3   OH250503   2.963   6.398  12.770  0.4580  0.3128  0.3275
 9671TIP3    H150504   3.007   6.477  12.801 -1.1560  2.0338 -1.4160
 9671TIP3    H250505   3.026   6.356  12.711  0.8933  1.0089  0.2957
 9672TIP3   OH250506   1.657   5.108   1.715 -0.0301 -0.2266 -0.3406
 9672TIP3    H150507   1.701   5.064   1.643 -1.0317  1.5384 -2.1318
 9672TIP3    H250508   1.692   5.197   1.714 -0.7310  0.0876  0.7632
 9673TIP3   OH250509   5.752   0.082   4.109  0.7799 -0.4214 -0.1357
 9673TIP3    H150510   5.670   0.083   4.060  0.5522 -0.6866  0.2308
 9673TIP3    H250511   5.817   0.048   4.048  0.1598 -2.4488  0.2475
 9674TIP3   OH250512   2.907   3.220  16.723  0.0421 -0.1647  0.0634
 9674TIP3    H150513   2.958   3.300  16.733 -0.0785 -0.0391 -0.3175
 9674TIP3    H250514   2.919   3.173  16.806 -0.3762  0.5232  0.5138
 9675TIP3   OH250515   1.419   0.517  16.495  0.0019  0.2357  0.4201
 9675TIP3    H150516   1.478   0.485  16.426 -2.0526  0.5687 -1.5966
 9675TIP3    H250517   1.437   0.611  16.501 -0.4235  0.3636 -0.2940
 9676TIP3   OH250518   3.282   1.086  16.423 -0.6072  0.0533  0.5240
 9676TIP3    H150519   3.339   1.063  16.496 -0.1212 -0.0906  0.1081
 9676TIP3    H250520   3.317   1.035  16.349 -1.0961  0.1885  0.1967
 9677TIP3   OH250521   1.601   3.553  16.029 -0.0907  0.5321  0.4240
 9677TIP3    H150522   1.569   3.528  15.942 -2.1480  1.2761  0.9155
 9677TIP3    H250523   1.536   3.615  16.062  1.0744  0.8962  2.1792
 9678TIP3   OH250524   2.402   1.623   6.111  0.1848 -0.2113 -0.3248
 9678TIP3    H150525   2.348   1.566   6.166  0.7444 -2.6410 -2.1064
 9678TIP3    H250526   2.488   1.620   6.152  0.2686 -0.8932 -0.5310
 9679TIP3   OH250527   0.195   1.886   2.843  0.3370 -0.1524 -0.2936
 9679TIP3    H150528   0.169   1.978   2.833 -1.6225 -0.5260  0.9467
 9679TIP3    H250529   0.272   1.889   2.900  1.0267  0.7649 -1.2310
 9680TIP3   OH250530   5.209   6.587  15.276 -0.4905  0.3268 -0.0220
 9680TIP3    H150531   5.268   6.568  15.203  0.4537 -0.7066  0.9739
 9680TIP3    H250532   5.142   6.518  15.271  0.7694 -1.0738  1.2975
 9681TIP3   OH250533   1.613   2.495  15.386 -0.1205  0.7139 -0.0364
 9681TIP3    H150534   1.532   2.445  15.375 -1.0893  1.9545  1.1677
 9681TIP3    H250535   1.671   2.435  15.435  0.0293 -0.4840 -1.6152
 9682TIP3   OH250536   0.708   1.820  12.033  0.1239 -0.3074 -0.1305
 9682TIP3    H150537   0.749   1.773  11.961 -0.0618 -0.8701  0.1295
 9682TIP3    H250538   0.654   1.755  12.078  0.0649  0.0859  0.3881
 9683TIP3   OH250539   2.650   2.230  12.738 -0.1532  0.3947  0.1267
 9683TIP3    H150540   2.581   2.163  12.742  0.2486  0.0254  0.9982
 9683TIP3    H250541   2.602   2.313  12.735 -0.6541  0.1935  1.7004
 9684TIP3   OH250542   6.156   5.793   4.966 -0.3522 -0.0353 -0.4490
 9684TIP3    H150543   6.182   5.819   4.877  0.4300  2.2702  0.3790
 9684TIP3    H250544   6.061   5.809   4.968 -0.1891  1.0141 -0.5499
 9685TIP3   OH250545   1.729   0.344   2.112  0.0409 -0.1419  0.1976
 9685TIP3    H150546   1.672   0.381   2.179 -0.6678 -0.0663 -0.4342
 9685TIP3    H250547   1.745   0.417   2.051 -0.4387 -0.5569 -0.4402
 9686TIP3   OH250548   1.416   4.962  14.604  0.4083  0.3946 -0.0258
 9686TIP3    H150549   1.332   4.915  14.608  0.0558  0.9775 -0.5320
 9686TIP3    H250550   1.392   5.054  14.606  0.9530  0.5912 -1.5646
 9687TIP3   OH250551   2.532   3.261   4.813 -0.3214  0.4122  0.1636
 9687TIP3    H150552   2.614   3.301   4.783 -0.5612  2.1833  1.7033
 9687TIP3    H250553   2.548   3.239   4.905 -0.4869 -2.4253 -0.4039
 9688TIP3   OH250554   5.123   2.773  10.871  0.2692  0.2004 -0.1392
 9688TIP3    H150555   5.159   2.706  10.813 -2.1156 -1.4139  0.1333
 9688TIP3    H250556   5.057   2.818  10.818 -0.8845 -0.3035  0.8199
 9689TIP3   OH250557   2.455   6.231   3.274  0.1824  0.6104  0.2665
 9689TIP3    H150558   2.387   6.185   3.226 -0.1264  0.1210  1.1527
 9689TIP3    H250559   2.447   6.323   3.247 -2.4542  1.0380  2.1232
 9690TIP3   OH250560   3.568   5.210   4.428 -0.0514 -0.4029 -0.1898
 9690TIP3    H150561   3.609   5.181   4.347  1.7619 -0.3472  0.6418
 9690TIP3    H250562   3.535   5.130   4.469  0.6887 -0.6791 -0.1278
 9691TIP3   OH250563   4.242   1.346   3.966 -0.3835  0.1076  0.0363
 9691TIP3    H150564   4.153   1.311   3.971 -0.0359 -0.6429  1.7579
 9691TIP3    H250565   4.258   1.356   3.873 -1.5419 -1.6594 -0.4198
 9692TIP3   OH250566   3.544   2.340  15.060 -0.2521 -0.4867  0.5356
 9692TIP3    H150567   3.504   2.426  15.050 -0.7356 -0.8042 -0.5321
 9692TIP3    H250568   3.489   2.282  15.006 -0.1105 -1.5185  1.4599
 9693TIP3   OH250569   0.867   3.924  16.641  0.4383  0.3815  0.4300
 9693TIP3    H150570   0.811   3.932  16.564 -0.2288 -2.4008  0.5024
 9693TIP3    H250571   0.812   3.953  16.714  0.1289  0.4897  0.1552
 9694TIP3   OH250572   4.315   2.996   1.697  0.3418  0.8586 -0.0505
 9694TIP3    H150573   4.350   2.981   1.784 -1.0302 -2.4570  0.0690
 9694TIP3    H250574   4.317   2.910   1.654 -2.2929  1.5998 -1.9728
 9695TIP3   OH250575   1.049   4.324   3.359 -0.6966  0.0756 -0.3698
 9695TIP3    H150576   1.085   4.324   3.448 -2.2006 -0.1882  0.2814
 9695TIP3    H250577   1.057   4.414   3.329  2.5074 -0.3712 -1.1672
 9696TIP3   OH250578   1.042   1.767  12.393  0.0824  0.1478  0.0531
 9696TIP3    H150579   0.968   1.826  12.378 -0.4956 -0.6445 -0.2995
 9696TIP3    H250580   1.080   1.754  12.305  0.4475  0.2957  0.1854
 9697TIP3   OH250581   4.365   5.182   0.786 -0.5681 -0.2301 -0.1390
 9697TIP3    H150582   4.409   5.257   0.826  0.1155 -1.5422  1.7177
 9697TIP3    H250583   4.311   5.146   0.856 -0.0845 -2.0622 -0.6622
 9698TIP3   OH250584   1.073   5.520  12.828  0.0248  0.2879  0.5572
 9698TIP3    H150585   1.047   5.594  12.772  1.9626  0.9827  0.5200
 9698TIP3    H250586   0.990   5.476  12.848 -1.0926  1.9652 -0.1212
 9699TIP3   OH250587   3.654   2.137  13.878  0.0101  0.4409 -0.1814
 9699TIP3    H150588   3.650   2.095  13.792 -0.4406 -1.9297  0.9156
 9699TIP3    H250589   3.726   2.093  13.923 -0.6488  0.6464  1.1239
 9700TIP3   OH250590   3.674   1.048  13.895 -0.1099 -0.0575  0.1364
 9700TIP3    H150591   3.651   1.068  13.804 -0.3025 -0.8217  0.0146
 9700TIP3    H250592   3.757   1.002  13.889  0.0016  0.1114  0.3704
 9701TIP3   OH250593   1.757   1.776  16.435  0.3250 -0.0736  0.0281
 9701TIP3    H150594   1.812   1.708  16.395  1.4261  1.6430 -1.5229
 9701TIP3    H250595   1.775   1.768  16.529  3.1710  0.3063 -0.3902
 9702TIP3   OH250596   1.231   5.511   4.208 -0.1430  0.2783 -0.4262
 9702TIP3    H150597   1.269   5.499   4.295 -1.9053  0.6922  0.4535
 9702TIP3    H250598   1.252   5.602   4.186 -0.9262  0.6477  0.2554
 9703TIP3   OH250599   6.566   5.306   5.023  0.0553 -0.2843 -0.1694
 9703TIP3    H150600   6.508   5.357   4.966  0.2610 -0.5481 -0.6220
 9703TIP3    H250601   6.511   5.280   5.096 -0.5021 -0.8332 -0.7699
 9704TIP3   OH250602   2.339   3.430   0.757 -0.0185 -0.6032 -0.0407
 9704TIP3    H150603   2.323   3.524   0.747 -1.8610 -0.8483  0.1114
 9704TIP3    H250604   2.325   3.414   0.851 -0.3377 -1.1217 -0.1746
 9705TIP3   OH250605   0.895   0.756   2.565  0.0997 -0.3356 -0.2759
 9705TIP3    H150606   0.844   0.676   2.557 -1.0804  0.4393 -0.8004
 9705TIP3    H250607   0.907   0.786   2.475 -0.8599  0.8963 -0.0290
 9706TIP3   OH250608   6.550   2.935   2.391  0.2620  0.0804  0.1114
 9706TIP3    H150609   6.504   2.958   2.310 -0.0103 -0.8585 -0.0091
 9706TIP3    H250610   6.594   2.852   2.371 -1.0022 -0.9348  1.3720
 9707TIP3   OH250611   1.146   3.887  12.395  0.4982 -0.1353 -0.4031
 9707TIP3    H150612   1.140   3.933  12.312 -1.3759 -0.4474 -0.4907
 9707TIP3    H250613   1.161   3.956  12.460  0.5683  0.2732 -0.8522
 9708TIP3   OH250614   3.312   4.837   6.019  0.3224  0.2221 -0.3284
 9708TIP3    H150615   3.403   4.812   6.033 -0.4299 -1.8511  1.3903
 9708TIP3    H250616   3.263   4.785   6.083 -2.1792  0.5348 -1.8758
 9709TIP3   OH250617   4.164   4.332   1.620  0.8656  0.6715 -0.4762
 9709TIP3    H150618   4.131   4.302   1.705  0.2797  0.0379 -0.9182
 9709TIP3    H250619   4.151   4.258   1.561  0.4598  1.3920 -1.3215
 9710TIP3   OH250620   4.297   4.819   5.695  0.6340  0.0302 -0.1603
 9710TIP3    H150621   4.262   4.819   5.606  1.1218 -0.0237 -0.3552
 9710TIP3    H250622   4.330   4.730   5.708 -1.3627 -0.6001  0.8514
 9711TIP3   OH250623   0.572   5.383   6.301  0.0149 -0.2003  0.2092
 9711TIP3    H150624   0.595   5.333   6.223 -1.5464  0.1653 -0.5458
 9711TIP3    H250625   0.529   5.462   6.267 -1.5729 -0.4831  1.4236
 9712TIP3   OH250626   2.030   2.732  14.886  0.3044  0.9287  0.1166
 9712TIP3    H150627   1.974   2.802  14.855  0.3362  1.9712  2.1959
 9712TIP3    H250628   1.997   2.712  14.974  0.1946 -1.8126 -0.4528
 9713TIP3   OH250629   4.169   1.031   3.588 -0.3182  0.0691 -0.0594
 9713TIP3    H150630   4.152   1.118   3.551  1.9900 -0.3340 -2.4194
 9713TIP3    H250631   4.096   0.977   3.558  0.3112  0.3199 -2.2573
 9714TIP3   OH250632   3.107   1.830   1.505 -0.3830  0.9108  0.0209
 9714TIP3    H150633   3.079   1.913   1.467 -1.2166 -0.0249 -1.5479
 9714TIP3    H250634   3.033   1.802   1.559 -1.2031  0.0228 -1.4832
 9715TIP3   OH250635   5.517   6.086   2.981  0.0204 -0.5916 -0.0487
 9715TIP3    H150636   5.550   6.058   2.896  0.0037 -3.5983  0.8479
 9715TIP3    H250637   5.558   6.027   3.044  0.5259  1.9055  2.1938
 9716TIP3   OH250638   2.644   5.135  17.214 -0.0342 -0.1186 -0.3474
 9716TIP3    H150639   2.702   5.191  17.162 -0.1118 -0.1082 -0.4228
 9716TIP3    H250640   2.695   5.056  17.229  0.1475  0.0508 -0.0769
 9717TIP3   OH250641   6.254   0.215  13.368  0.4118  0.0813  0.6200
 9717TIP3    H150642   6.244   0.286  13.432  0.1836  2.1268 -1.5607
 9717TIP3    H250643   6.347   0.215  13.347  0.2801  0.3211  0.0099
 9718TIP3   OH250644   0.329   0.477  14.763  0.5700 -0.4362 -0.2811
 9718TIP3    H150645   0.386   0.531  14.817 -0.5554  1.5934 -1.0318
 9718TIP3    H250646   0.291   0.537  14.699 -2.6059 -1.6052  0.3090
 9719TIP3   OH250647   1.217   2.258   1.249  0.3681 -0.0804 -0.0358
 9719TIP3    H150648   1.297   2.278   1.298  0.2480  0.2327  0.0350
 9719TIP3    H250649   1.220   2.163   1.235 -0.7547 -0.5876  2.6515
 9720TIP3   OH250650   3.532   5.879  14.950 -0.1231  0.3394  0.2136
 9720TIP3    H150651   3.530   5.930  14.869  0.0572  0.8461  0.5219
 9720TIP3    H250652   3.539   5.788  14.921 -1.6977  0.3725 -0.3741
 9721TIP3   OH250653   3.875   4.051   4.304 -0.5309  0.6932  0.3068
 9721TIP3    H150654   3.851   4.140   4.279 -1.6240  0.4436  0.4212
 9721TIP3    H250655   3.924   4.061   4.386  1.2147  1.3377 -0.7467
 9722TIP3   OH250656   6.637   0.579   4.198 -0.1792 -0.5390  0.4292
 9722TIP3    H150657   6.613   0.594   4.107  0.5079  2.1052  0.6140
 9722TIP3    H250658   6.567   0.621   4.248  0.3763 -0.3764  1.0865
 9723TIP3   OH250659   1.596   5.669   1.592  0.0353 -0.0615 -0.3158
 9723TIP3    H150660   1.571   5.759   1.570  0.4633  0.4410  1.1698
 9723TIP3    H250661   1.523   5.635   1.642 -0.0409 -0.4893 -0.7082
 9724TIP3   OH250662   6.437   3.159  15.650  0.2713 -0.0881 -0.4107
 9724TIP3    H150663   6.358   3.106  15.653  0.3804 -0.2967 -1.0826
 9724TIP3    H250664   6.472   3.155  15.739 -0.6701  0.3147 -0.0084
 9725TIP3   OH250665   0.996   4.412   5.845 -0.0637  0.3011 -0.3292
 9725TIP3    H150666   1.034   4.466   5.915 -1.4599  0.3990  0.3923
 9725TIP3    H250667   0.966   4.333   5.889 -3.0838  1.3263 -0.2750
 9726TIP3   OH250668   6.177   2.360   3.873 -0.1298  0.4210 -0.4809
 9726TIP3    H150669   6.117   2.432   3.890  0.2526  0.5631  0.3520
 9726TIP3    H250670   6.151   2.326   3.788 -2.1375 -0.2643  0.3415
 9727TIP3   OH250671   1.556   3.315   1.587 -0.1281 -0.0842 -0.2024
 9727TIP3    H150672   1.482   3.260   1.614 -0.4100  0.7845  0.8912
 9727TIP3    H250673   1.610   3.322   1.665  0.1949  0.7256 -0.4884
 9728TIP3   OH250674   4.867   3.611   3.324 -0.3144  0.2622 -0.3056
 9728TIP3    H150675   4.843   3.605   3.416 -0.8753  2.2757 -0.2728
 9728TIP3    H250676   4.962   3.616   3.324 -0.2899 -0.1467  0.1247
 9729TIP3   OH250677   3.468   5.940   4.961 -0.0290  0.7464 -0.4870
 9729TIP3    H150678   3.442   5.936   5.053  1.4859  2.0972  0.0611
 9729TIP3    H250679   3.562   5.922   4.961 -0.3442 -1.2934 -2.0520
 9730TIP3   OH250680   0.365   3.149   0.510 -0.3450 -0.0436  0.1126
 9730TIP3    H150681   0.291   3.195   0.469 -0.6707 -0.9639 -0.3653
 9730TIP3    H250682   0.327   3.067   0.541  0.1971  0.0668  1.0817
 9731TIP3   OH250683   5.507   0.209  14.042  0.2737  0.1108 -0.2541
 9731TIP3    H150684   5.586   0.187  14.092  0.3537 -0.9057 -0.8042
 9731TIP3    H250685   5.539   0.267  13.972  0.9891 -2.1088 -1.8759
 9732TIP3   OH250686   1.993   4.005   1.779  0.5258 -0.3524  0.4317
 9732TIP3    H150687   1.994   3.916   1.813  0.6640 -1.2397 -1.7438
 9732TIP3    H250688   2.073   4.045   1.815  0.4269 -1.0525  1.4768
 9733TIP3   OH250689   3.796   0.661  13.939  0.7048  0.5432 -0.0069
 9733TIP3    H150690   3.846   0.583  13.962  1.8409  1.2968  0.1625
 9733TIP3    H250691   3.848   0.734  13.972 -0.0167  1.4103 -0.7180
 9734TIP3   OH250692   2.795   1.072   0.440  0.0264  0.7357  0.0510
 9734TIP3    H150693   2.775   1.165   0.427 -0.7789  0.5499 -0.0928
 9734TIP3    H250694   2.710   1.031   0.455  0.0141 -0.4041 -2.5776
 9735TIP3   OH250695   1.855   0.209   3.855 -0.4832 -0.3378  0.1137
 9735TIP3    H150696   1.836   0.302   3.872  1.1041 -0.0138  0.2753
 9735TIP3    H250697   1.770   0.166   3.861 -1.4778  1.2790 -1.2031
 9736TIP3   OH250698   4.299   2.458  16.126  0.3545  0.0434 -0.3029
 9736TIP3    H150699   4.291   2.363  16.118  1.1993  0.0396 -1.2004
 9736TIP3    H250700   4.220   2.492  16.083  0.7446 -0.2260 -1.2595
 9737TIP3   OH250701   1.382   5.159  16.910 -0.1648  0.6739  0.5146
 9737TIP3    H150702   1.461   5.131  16.954 -1.4043 -2.4374  0.9772
 9737TIP3    H250703   1.385   5.117  16.824 -1.6327 -0.1209  0.8167
 9738TIP3   OH250704   3.638   5.774  11.872 -0.3957  0.3217 -0.3403
 9738TIP3    H150705   3.734   5.775  11.875 -0.4044 -0.4924  1.4803
 9738TIP3    H250706   3.617   5.691  11.829 -0.2678 -0.6755  1.4658
 9739TIP3   OH250707   1.587   1.115   5.018 -0.0586 -0.3577  0.0763
 9739TIP3    H150708   1.561   1.052   5.086  1.2288 -1.5381 -0.4900
 9739TIP3    H250709   1.682   1.121   5.027  0.0870 -0.2760 -1.3992
 9740TIP3   OH250710   1.853   0.280  15.180  0.0483  0.1537  0.4573
 9740TIP3    H150711   1.861   0.372  15.206 -1.6210  0.4810 -0.0102
 9740TIP3    H250712   1.818   0.284  15.091  0.0321 -0.9404  0.4024
 9741TIP3   OH250713   5.076   2.780   0.759  0.1043  0.7623  0.7124
 9741TIP3    H150714   5.015   2.853   0.747 -0.9416 -0.2386 -0.2886
 9741TIP3    H250715   5.145   2.796   0.694 -0.9356  0.0684 -0.6003
 9742TIP3   OH250716   0.354   5.282  14.672 -0.0048  0.0717  0.0502
 9742TIP3    H150717   0.376   5.343  14.601 -0.9865  1.0198  0.5203
 9742TIP3    H250718   0.261   5.297  14.688  0.2143 -0.0243  1.6211
 9743TIP3   OH250719   0.763   2.257   3.096  0.2583 -0.1594 -0.3568
 9743TIP3    H150720   0.702   2.299   3.035 -0.0723 -0.4805 -0.2469
 9743TIP3    H250721   0.774   2.321   3.167  0.2031 -0.0227 -0.4722
 9744TIP3   OH250722   4.525   5.422  15.481  0.1395 -0.0848  0.3557
 9744TIP3    H150723   4.601   5.477  15.462 -1.6428  2.6723  0.6613
 9744TIP3    H250724   4.510   5.373  15.400  1.4564  0.2860 -0.1308
 9745TIP3   OH250725   1.799   5.816  11.594  0.0541  0.2632 -0.4177
 9745TIP3    H150726   1.781   5.880  11.663 -2.6000  1.6314 -2.1701
 9745TIP3    H250727   1.860   5.860  11.535 -0.6834  0.6672 -0.8965
 9746TIP3   OH250728   5.462   0.440  13.156  0.5770 -0.3174 -0.0569
 9746TIP3    H150729   5.396   0.387  13.112  0.8316 -1.6783  1.1467
 9746TIP3    H250730   5.540   0.432  13.101 -0.2017  1.3592 -1.5265
 9747TIP3   OH250731   0.283   1.054   6.406 -0.1241  0.1970 -0.2040
 9747TIP3    H150732   0.316   0.976   6.450 -1.6490 -0.5812 -0.3791
 9747TIP3    H250733   0.195   1.030   6.376 -0.2603  1.6679 -1.1036
 9748TIP3   OH250734   5.100   2.701  16.154 -0.4734  0.1675 -0.0126
 9748TIP3    H150735   5.058   2.621  16.187  1.1056 -0.4116  0.6602
 9748TIP3    H250736   5.179   2.710  16.206 -0.2603  1.8072 -0.5623
 9749TIP3   OH250737   0.316   5.555  12.730 -0.6420 -0.1671  0.2155
 9749TIP3    H150738   0.299   5.565  12.823 -2.7332 -0.2704 -0.1118
 9749TIP3    H250739   0.370   5.630  12.706  0.7884 -0.6760  1.6713
 9750TIP3   OH250740   3.536   2.773  16.298  0.2710 -0.5578 -0.4573
 9750TIP3    H150741   3.577   2.706  16.243  0.4472 -1.0229  0.2320
 9750TIP3    H250742   3.489   2.724  16.364 -1.5928 -0.0357 -1.3402
 9751TIP3   OH250743   0.072   0.189  12.112  0.6363  0.5215  0.1542
 9751TIP3    H150744   0.063   0.282  12.090 -0.3433 -0.0262 -2.0393
 9751TIP3    H250745  -0.006   0.148  12.076  1.2880 -1.2533  0.6406
 9752TIP3   OH250746   0.820   2.484   5.670  0.0948 -0.5366 -0.3821
 9752TIP3    H150747   0.861   2.401   5.645  0.6158 -0.2988 -0.3162
 9752TIP3    H250748   0.759   2.460   5.740 -0.4233 -1.0031 -0.9810
 9753TIP3   OH250749   0.802   0.921  14.161  0.2279  0.0867  0.1384
 9753TIP3    H150750   0.757   0.866  14.226  0.3165  0.1526  0.2572
 9753TIP3    H250751   0.751   0.911  14.081  0.5326 -0.5819  0.0157
 9754TIP3   OH250752   2.822   6.640   0.592  0.1131  0.4163  0.0748
 9754TIP3    H150753   2.780   6.577   0.650  1.5160 -1.4743 -0.8487
 9754TIP3    H250754   2.769   6.638   0.512  0.2272  0.3018  0.0012
 9755TIP3   OH250755   1.065   2.935   0.817  0.4898 -0.7107 -0.4339
 9755TIP3    H150756   1.091   2.944   0.725  1.0015 -0.4680 -0.2674
 9755TIP3    H250757   1.097   3.014   0.859 -2.3981  0.6906 -0.6273
 9756TIP3   OH250758   5.273   1.439   5.012 -0.1006 -0.1349 -0.3222
 9756TIP3    H150759   5.292   1.502   4.943 -0.2566  0.5399  0.2329
 9756TIP3    H250760   5.264   1.493   5.091 -0.9249 -0.7821  0.0391
 9757TIP3   OH250761   0.324   3.057   1.846  0.1625 -0.0135  0.3428
 9757TIP3    H150762   0.271   3.122   1.893  0.5551 -0.1825  1.0210
 9757TIP3    H250763   0.266   3.027   1.776 -0.1011  0.9121  0.1462
 9758TIP3   OH250764   5.433   2.261  11.217  0.5030  0.9610  0.4431
 9758TIP3    H150765   5.463   2.322  11.150 -1.1603 -0.1572 -1.4378
 9758TIP3    H250766   5.483   2.285  11.295  1.1928  3.5313 -0.6658
 9759TIP3   OH250767   4.540   4.914   5.757 -0.3875  0.0142 -0.1297
 9759TIP3    H150768   4.452   4.896   5.725  0.0088 -0.2944 -1.0890
 9759TIP3    H250769   4.597   4.860   5.702  0.4868  1.0489 -0.2775
 9760TIP3   OH250770   0.770   3.585   4.881 -0.0966 -0.1718 -0.0813
 9760TIP3    H150771   0.716   3.509   4.903  0.9393 -0.8688  0.1332
 9760TIP3    H250772   0.708   3.657   4.871 -1.0377 -0.9090  0.3467
 9761TIP3   OH250773   2.951   3.613   5.422 -0.6586  0.0635 -0.0448
 9761TIP3    H150774   2.890   3.615   5.348  0.4403  1.1666 -0.9634
 9761TIP3    H250775   3.034   3.643   5.385  0.2016 -0.4654  1.3945
 9762TIP3   OH250776   3.961   3.203   1.562 -0.3326 -0.3137  0.0728
 9762TIP3    H150777   4.017   3.277   1.588 -0.8759  0.8525 -1.8650
 9762TIP3    H250778   3.949   3.153   1.643  0.5234  1.3956  1.3403
 9763TIP3   OH250779   4.436   0.143  16.048 -0.2148 -0.3773  0.0786
 9763TIP3    H150780   4.414   0.050  16.056  0.6042 -0.4482  1.9872
 9763TIP3    H250781   4.487   0.163  16.127 -0.5926  1.7570 -0.1553
 9764TIP3   OH250782   3.076   6.192  16.128 -0.3418  0.5840  0.1003
 9764TIP3    H150783   3.113   6.279  16.143  1.1808 -0.0039 -0.0787
 9764TIP3    H250784   3.078   6.150  16.214 -1.9320  1.0199  0.3758
 9765TIP3   OH250785   4.838   3.744  13.743 -0.3717 -0.4429 -0.7185
 9765TIP3    H150786   4.818   3.811  13.808 -1.7276 -1.4036 -0.0986
 9765TIP3    H250787   4.810   3.662  13.783  0.5271 -1.3046 -1.7670
 9766TIP3   OH250788   3.111   4.404  14.200 -0.1425  0.3779  0.3628
 9766TIP3    H150789   3.119   4.314  14.169  1.5700 -0.0522  1.8903
 9766TIP3    H250790   3.200   4.439  14.197 -0.7491  1.9759 -0.0311
 9767TIP3   OH250791   2.507   5.478   4.028 -0.1574  0.2872 -0.0493
 9767TIP3    H150792   2.549   5.564   4.018  1.2172 -0.5220 -1.6800
 9767TIP3    H250793   2.427   5.484   3.977  0.8050  0.0857 -1.6500
 9768TIP3   OH250794   0.382   4.080   1.773 -0.2771  0.2906  0.2397
 9768TIP3    H150795   0.378   3.993   1.814 -0.9086 -0.5208 -1.4435
 9768TIP3    H250796   0.416   4.137   1.842 -0.1236 -1.2255  1.4893
 9769TIP3   OH250797   6.797   4.921  12.544  0.1419  0.5103 -0.6709
 9769TIP3    H150798   6.775   4.837  12.584 -1.1688  1.3504  0.4572
 9769TIP3    H250799   6.868   4.901  12.483 -0.9118 -1.6056 -1.2733
 9770TIP3   OH250800   6.521   4.679  11.460 -0.0090  0.1637  0.0707
 9770TIP3    H150801   6.574   4.743  11.506 -0.8835  0.0545  1.2833
 9770TIP3    H250802   6.431   4.710  11.471 -0.3605 -0.7180 -0.2214
 9771TIP3   OH250803   0.388   0.257  11.840 -0.6649  0.3894  0.2556
 9771TIP3    H150804   0.367   0.327  11.902  0.6946  0.2169  0.9527
 9771TIP3    H250805   0.428   0.189  11.894  0.1864  0.0592 -0.7493
 9772TIP3   OH250806   3.863   5.370   3.750  0.2835 -0.5495 -0.0857
 9772TIP3    H150807   3.820   5.332   3.827 -2.6764  1.8585 -0.3331
 9772TIP3    H250808   3.926   5.432   3.785  1.5736 -2.0144  0.3020
 9773TIP3   OH250809   5.525   4.647   3.550  0.0588 -0.4393 -0.5251
 9773TIP3    H150810   5.480   4.721   3.509  1.4214 -0.4344 -2.1352
 9773TIP3    H250811   5.456   4.585   3.573 -1.0476  1.0623  0.3162
 9774TIP3   OH250812   3.204   3.744   0.889 -0.2055 -1.0429  0.0187
 9774TIP3    H150813   3.152   3.704   0.959 -1.8809  0.0067 -0.5575
 9774TIP3    H250814   3.154   3.725   0.809  0.2656  0.0357 -0.5556
 9775TIP3   OH250815   2.613   2.746  13.635  0.1298 -0.0950  0.1206
 9775TIP3    H150816   2.676   2.720  13.567  0.3996  1.7321 -0.3998
 9775TIP3    H250817   2.610   2.842  13.628 -2.7527 -0.1184  0.1083
 9776TIP3   OH250818   4.036   3.338   4.674  0.0895 -0.6441  0.3816
 9776TIP3    H150819   3.957   3.293   4.645 -0.0652 -0.4084  0.4391
 9776TIP3    H250820   4.046   3.314   4.766 -0.8693  0.6790  0.8673
 9777TIP3   OH250821   1.554   4.719  11.577 -0.0375 -0.0949  0.0280
 9777TIP3    H150822   1.550   4.644  11.637  0.3991 -0.3522 -0.2566
 9777TIP3    H250823   1.530   4.683  11.492 -0.6961  0.2792  0.0528
 9778TIP3   OH250824   4.567   4.786   2.299 -0.6684  0.8378  0.0440
 9778TIP3    H150825   4.569   4.762   2.392 -3.2271 -1.0119 -0.2703
 9778TIP3    H250826   4.495   4.734   2.263 -0.7382  2.6476 -2.6736
 9779TIP3   OH250827   3.793   4.181  15.465 -0.4834 -0.2768  0.2170
 9779TIP3    H150828   3.828   4.226  15.542  0.0852 -1.4449  0.6588
 9779TIP3    H250829   3.698   4.189  15.473 -0.4059  1.2969 -0.0094
 9780TIP3   OH250830   3.051   3.464  16.602 -0.2956 -0.5037 -0.1121
 9780TIP3    H150831   2.985   3.517  16.647 -0.0155 -0.7940  0.6656
 9780TIP3    H250832   3.122   3.455  16.666 -0.3544 -1.8571 -0.2059
 9781TIP3   OH250833   4.775   6.431  16.452  0.1625  0.0045 -0.0749
 9781TIP3    H150834   4.795   6.499  16.515 -2.6751  1.8299 -0.9383
 9781TIP3    H250835   4.785   6.473  16.367 -2.6096 -0.2095 -0.6102
 9782TIP3   OH250836   3.058   6.805   0.615  0.3949 -0.3573  0.5730
 9782TIP3    H150837   2.975   6.762   0.594  0.0362 -0.2891  1.7525
 9782TIP3    H250838   3.124   6.737   0.601  0.1395 -0.4474 -0.2685
 9783TIP3   OH250839   1.892   4.893  14.208  0.1076 -0.2007 -0.1474
 9783TIP3    H150840   1.955   4.863  14.273  1.3291 -0.4758 -1.4051
 9783TIP3    H250841   1.812   4.912  14.258  1.5314  1.3406  1.6652
 9784TIP3   OH250842   6.390   5.376   1.730  0.0466 -0.1577 -0.5564
 9784TIP3    H150843   6.404   5.301   1.672 -0.7992 -0.3840 -0.4833
 9784TIP3    H250844   6.340   5.438   1.677 -0.8525 -0.4236 -0.0393
 9785TIP3   OH250845   2.062   4.675  14.917  0.0596 -0.2139 -0.1440
 9785TIP3    H150846   1.993   4.630  14.870 -0.3678 -0.3244  0.5731
 9785TIP3    H250847   2.066   4.762  14.877 -0.1874 -0.3610 -0.4858
 9786TIP3   OH250848   5.175   4.366  17.206 -0.5207 -0.4106 -0.5476
 9786TIP3    H150849   5.204   4.455  17.226  1.6981 -0.5377 -2.7687
 9786TIP3    H250850   5.150   4.329  17.291  0.6000  1.6266  0.7351
 9787TIP3   OH250851   0.116   3.039   4.273 -0.5834 -0.6854  0.4253
 9787TIP3    H150852   0.164   3.066   4.351 -0.5029 -0.6756  0.3725
 9787TIP3    H250853   0.160   2.960   4.242  1.0754  0.7466 -1.1372
 9788TIP3   OH250854   4.141   1.567  12.254  0.0424 -0.5836 -0.2706
 9788TIP3    H150855   4.218   1.607  12.295  0.9579 -2.4275 -0.0445
 9788TIP3    H250856   4.101   1.515  12.323 -1.8676  0.8613 -0.1986
 9789TIP3   OH250857   4.942   6.346   5.864  0.1489  0.2317  0.0679
 9789TIP3    H150858   4.900   6.431   5.877  1.7964  1.1511 -0.3681
 9789TIP3    H250859   4.902   6.311   5.785 -1.0279  0.2828  0.6281
 9790TIP3   OH250860   0.613   3.103   3.728 -0.5392  0.1489  0.0592
 9790TIP3    H150861   0.650   3.190   3.714  1.2044 -0.5110  0.2981
 9790TIP3    H250862   0.559   3.112   3.806  1.1029  0.6421  1.1964
 9791TIP3   OH250863   4.938   5.653   5.955 -0.9963  0.1264  0.8046
 9791TIP3    H150864   4.910   5.735   5.994 -2.3444  0.9413 -1.7067
 9791TIP3    H250865   4.864   5.594   5.967 -1.7337  0.6160 -1.0760
 9792TIP3   OH250866   2.454   6.411  16.047 -0.0851 -0.0642  0.2749
 9792TIP3    H150867   2.522   6.444  15.989  0.2171  0.4262  0.9043
 9792TIP3    H250868   2.455   6.316  16.033  0.7437 -0.0637  0.3054
 9793TIP3   OH250869   1.426   1.429  16.234 -0.4932 -0.2270 -0.5441
 9793TIP3    H150870   1.462   1.371  16.167  0.4445 -1.6303  1.0600
 9793TIP3    H250871   1.503   1.458  16.284 -1.0809  1.4128 -0.5402
 9794TIP3   OH250872   2.444   6.334   2.014 -0.2372 -0.4781  0.4746
 9794TIP3    H150873   2.394   6.284   1.950  0.7008 -1.5578  0.5485
 9794TIP3    H250874   2.423   6.293   2.098 -1.7166  1.1305  0.9592
 9795TIP3   OH250875   6.262   1.364  12.961 -0.0206  0.5602 -0.2961
 9795TIP3    H150876   6.197   1.317  12.909 -0.2395  1.4835 -0.8750
 9795TIP3    H250877   6.225   1.451  12.972  0.4188  0.6273  0.6922
 9796TIP3   OH250878   2.321   5.454   3.594  0.3711 -0.9266 -0.0405
 9796TIP3    H150879   2.281   5.475   3.509  2.0106 -0.1192 -0.6528
 9796TIP3    H250880   2.264   5.387   3.631 -1.1587 -0.3106 -1.1546
 9797TIP3   OH250881   4.848   4.382   4.738  0.0663  0.2352 -0.1023
 9797TIP3    H150882   4.771   4.330   4.762 -0.9731  1.0529 -1.5022
 9797TIP3    H250883   4.849   4.381   4.643  0.5487  1.9925 -0.1518
 9798TIP3   OH250884   3.683   3.447  11.390  0.3586 -0.4348 -0.1929
 9798TIP3    H150885   3.618   3.478  11.452 -1.0489  1.9296 -2.6309
 9798TIP3    H250886   3.766   3.481  11.422  0.2087 -1.8671  1.9265
 9799TIP3   OH250887   0.442   0.491  16.744  0.3806  0.3507 -0.0114
 9799TIP3    H150888   0.464   0.496  16.837 -2.6000  0.4253  0.7874
 9799TIP3    H250889   0.415   0.580  16.721  0.9836  0.3053 -0.9342
 9800TIP3   OH250890   1.140   6.387  11.655  0.5097 -0.5922 -0.1849
 9800TIP3    H150891   1.218   6.441  11.671  0.2335  0.0841 -1.0594
 9800TIP3    H250892   1.091   6.390  11.737  0.9449 -0.2608  0.0661
 9801TIP3   OH250893   4.605   1.830  14.447 -0.7377  0.6523  0.3839
 9801TIP3    H150894   4.646   1.893  14.506  0.3077 -1.3374  1.8906
 9801TIP3    H250895   4.511   1.848  14.455 -0.6616  0.2822  2.9632
 9802TIP3   OH250896   2.385   1.252  16.125  0.7100  0.6526  0.1402
 9802TIP3    H150897   2.398   1.264  16.032  1.1414 -0.3900  0.0528
 9802TIP3    H250898   2.473   1.240  16.161  0.7846  3.2541  1.0562
 9803TIP3   OH250899   2.683   4.478  12.691  0.1156 -0.4515  0.9422
 9803TIP3    H150900   2.629   4.476  12.612 -0.3665 -1.9496  1.2858
 9803TIP3    H250901   2.748   4.409  12.678  1.8081  1.1099  0.6766
 9804TIP3   OH250902   6.776   1.330   1.276 -0.3710  0.3094  0.2521
 9804TIP3    H150903   6.698   1.353   1.326 -0.3062  0.2984  0.3584
 9804TIP3    H250904   6.795   1.407   1.223 -0.1379  0.5096  0.6266
 9805TIP3   OH250905   1.237   4.029   5.608 -0.2868  0.2280  0.8841
 9805TIP3    H150906   1.244   4.074   5.692 -0.4239 -3.3247  2.9628
 9805TIP3    H250907   1.145   4.041   5.583 -0.9888 -0.9480  2.7024
 9806TIP3   OH250908   0.507   4.704  13.710  0.3455 -0.5505  0.1754
 9806TIP3    H150909   0.539   4.732  13.624  1.3411 -0.6160  0.5130
 9806TIP3    H250910   0.433   4.761  13.728 -0.1469 -0.8213 -0.9194
 9807TIP3   OH250911   3.800   0.415  11.075  0.3161 -0.7619  0.3362
 9807TIP3    H150912   3.846   0.482  11.025  0.9143 -1.7829 -0.5342
 9807TIP3    H250913   3.736   0.379  11.014  0.3382 -1.3160  0.6345
 9808TIP3   OH250914   4.884   2.456   5.170 -0.2009  0.3811  0.0425
 9808TIP3    H150915   4.899   2.363   5.157 -2.4984 -0.0887  0.2833
 9808TIP3    H250916   4.868   2.491   5.082  0.9505  0.6306 -0.0800
 9809TIP3   OH250917   4.644   1.889   0.612  0.4262 -0.4006 -0.8459
 9809TIP3    H150918   4.556   1.928   0.615  1.4079  1.9054 -0.2738
 9809TIP3    H250919   4.661   1.876   0.518  0.0865  0.6427 -1.0633
 9810TIP3   OH250920   2.688   1.367  10.577  0.4127 -0.2443 -0.2171
 9810TIP3    H150921   2.696   1.298  10.512 -2.3998 -0.1945 -0.7184
 9810TIP3    H250922   2.632   1.330  10.645 -0.2230  1.1424  0.0465
 9811TIP3   OH250923   0.508   5.636   5.762  0.3779  0.4509  0.7646
 9811TIP3    H150924   0.538   5.572   5.698  1.5746  1.1132  0.6358
 9811TIP3    H250925   0.477   5.710   5.709  0.2650  0.5278  0.9363
 9812TIP3   OH250926   3.194   1.918  14.545  0.4007  0.4941  0.0254
 9812TIP3    H150927   3.274   1.964  14.571  0.5876 -0.0233  0.3782
 9812TIP3    H250928   3.152   1.893  14.627 -0.4031  1.2156 -0.1494
 9813TIP3   OH250929   0.858   3.841   4.746  0.2114  0.0069  0.6904
 9813TIP3    H150930   0.896   3.762   4.708 -2.1412 -0.7184 -0.3898
 9813TIP3    H250931   0.927   3.877   4.802  2.3956 -1.1624 -1.0839
 9814TIP3   OH250932   5.795   2.119   2.169 -0.2244 -0.3389 -0.1153
 9814TIP3    H150933   5.749   2.113   2.253 -0.4689 -2.3112 -0.3488
 9814TIP3    H250934   5.886   2.100   2.190 -0.1368  0.0149 -0.1745
 9815TIP3   OH250935   6.480   5.746   2.410 -0.4395  0.0914  0.0882
 9815TIP3    H150936   6.530   5.764   2.490 -1.7227  0.0053  0.9352
 9815TIP3    H250937   6.520   5.666   2.375 -0.7448 -0.6855  1.4263
 9816TIP3   OH250938   4.259   1.767   3.819  0.5927  0.1851  0.2062
 9816TIP3    H150939   4.225   1.825   3.888  3.0359  0.6348  1.1343
 9816TIP3    H250940   4.261   1.680   3.859 -0.8261 -0.1425 -0.3773
 9817TIP3   OH250941   2.585   3.137   6.670 -0.1721  0.0214 -0.6325
 9817TIP3    H150942   2.551   3.048   6.661 -1.2288  0.2636  0.5688
 9817TIP3    H250943   2.638   3.135   6.750  0.6078  0.2372 -1.1423
 9818TIP3   OH250944   5.000   1.805  12.165 -0.0852  0.1571  0.0590
 9818TIP3    H150945   4.913   1.834  12.192 -0.3433 -2.1174  1.9530
 9818TIP3    H250946   5.001   1.711  12.182  2.1679 -0.2009 -1.6061
 9819TIP3   OH250947   0.808   1.414   4.873 -0.3606  0.0259  0.1252
 9819TIP3    H150948   0.768   1.449   4.794 -0.7012  0.3512  0.4337
 9819TIP3    H250949   0.745   1.351   4.907 -1.8645  2.3643  1.9929
 9820TIP3   OH250950   2.954   3.410  11.544  0.7313 -0.8678 -0.3135
 9820TIP3    H150951   2.939   3.350  11.616 -1.4090  0.0854  0.1092
 9820TIP3    H250952   2.874   3.462  11.538  1.7244  0.6212 -1.9162
 9821TIP3   OH250953   0.551   3.361   1.007 -0.3852  0.2824 -0.0108
 9821TIP3    H150954   0.537   3.376   1.100 -0.4374 -2.4534  0.5078
 9821TIP3    H250955   0.643   3.384   0.992  0.5539 -2.0977  1.4854
 9822TIP3   OH250956   4.635   6.305   3.260 -0.1862  0.1965 -0.1156
 9822TIP3    H150957   4.555   6.350   3.289 -0.6735 -0.4657 -0.4023
 9822TIP3    H250958   4.671   6.268   3.341  0.2838  1.1768  0.1426
 9823TIP3   OH250959   3.705   1.066  12.424  0.3199 -0.2004  0.1714
 9823TIP3    H150960   3.787   1.041  12.382  0.1693  0.3398 -0.4720
 9823TIP3    H250961   3.645   0.993  12.404  0.4472 -0.2715  0.0445
 9824TIP3   OH250962   3.964   0.256  11.457  0.0389 -0.5088  0.1339
 9824TIP3    H150963   3.930   0.272  11.545  0.9126 -1.5779  0.6819
 9824TIP3    H250964   3.935   0.167  11.436 -0.7544 -0.0135 -0.9581
 9825TIP3   OH250965   3.652   2.343   3.411  0.2702  0.1581  0.2498
 9825TIP3    H150966   3.742   2.373   3.425  0.5218 -0.7685  0.7072
 9825TIP3    H250967   3.636   2.283   3.483 -1.2272  1.3942  1.0086
 9826TIP3   OH250968   6.759   3.780   0.775 -0.2507  0.1298 -0.0420
 9826TIP3    H150969   6.726   3.870   0.783 -1.6402 -0.2611 -0.9444
 9826TIP3    H250970   6.722   3.749   0.692 -0.6572 -1.6307  0.7631
 9827TIP3   OH250971   6.260   5.170  15.337 -0.1457 -0.0034 -0.0452
 9827TIP3    H150972   6.328   5.145  15.274  0.0610 -2.1054  0.9396
 9827TIP3    H250973   6.279   5.119  15.415 -1.5437  1.0837  1.0683
 9828TIP3   OH250974   2.137   6.402   0.275 -0.0567  0.0612  0.5311
 9828TIP3    H150975   2.189   6.352   0.212  0.0183  1.8381 -0.8761
 9828TIP3    H250976   2.127   6.488   0.235 -1.4033  0.7415  2.2334
 9829TIP3   OH250977   6.101   4.786   3.404  0.5554  0.0744  0.3701
 9829TIP3    H150978   6.125   4.741   3.485  0.6637 -0.7522 -0.0996
 9829TIP3    H250979   6.005   4.780   3.400  0.5737 -0.1857  0.2781
 9830TIP3   OH250980   1.317   6.259   1.950 -0.5591 -0.0268  0.4160
 9830TIP3    H150981   1.323   6.339   2.002 -0.3912  0.0073  0.3432
 9830TIP3    H250982   1.392   6.207   1.977  0.3507  0.5887 -0.8088
 9831TIP3   OH250983   3.430   4.949  14.783  0.1278  0.0469  0.2950
 9831TIP3    H150984   3.360   5.011  14.759  0.7912  0.2826 -1.1844
 9831TIP3    H250985   3.403   4.913  14.867 -0.9539  1.3537  0.5418
 9832TIP3   OH250986   5.387   6.233   4.530  0.1384 -0.0566  0.7053
 9832TIP3    H150987   5.355   6.143   4.540 -1.0542  0.4921  2.3354
 9832TIP3    H250988   5.362   6.276   4.612 -0.1185  2.0044 -0.4019
 9833TIP3   OH250989   2.605   4.614   3.521  0.2208  0.3276 -0.2534
 9833TIP3    H150990   2.635   4.651   3.438  1.0633  2.2027  0.8337
 9833TIP3    H250991   2.683   4.607   3.575 -0.4490 -0.0031  0.7111
 9834TIP3   OH250992   5.401   1.610   2.531  0.0928 -0.0881 -0.1938
 9834TIP3    H150993   5.439   1.659   2.604 -0.0829  0.8011 -0.6858
 9834TIP3    H250994   5.323   1.659   2.506 -1.1144 -1.6034  0.4477
 9835TIP3   OH250995   4.705   2.935  12.823 -0.6437  0.0515  0.3651
 9835TIP3    H150996   4.638   2.944  12.891 -0.3522  0.3429  0.6117
 9835TIP3    H250997   4.786   2.963  12.864 -0.4080 -0.0684 -0.0101
 9836TIP3   OH250998   2.669   5.773   0.849 -0.0573 -0.4566  0.1278
 9836TIP3    H150999   2.616   5.702   0.812 -1.6133  0.9537 -0.5293
 9836TIP3    H251000   2.619   5.803   0.925  0.7588 -0.2870  0.6068
 9837TIP3   OH251001   1.853   1.610  15.782  0.4478 -0.5102  0.0629
 9837TIP3    H151002   1.864   1.571  15.869 -0.1150 -0.6917  0.0552
 9837TIP3    H251003   1.929   1.667  15.772  1.3230 -1.6340  0.0521
 9838TIP3   OH251004   2.000   3.947   0.368  0.0713 -0.1525  0.0337
 9838TIP3    H151005   2.073   3.991   0.326  0.2949  0.3875  0.9595
 9838TIP3    H251006   1.927   4.009   0.361  0.7484  1.1196  2.6200
 9839TIP3   OH251007   3.147   0.219   6.066  0.3486  0.3408 -0.6210
 9839TIP3    H151008   3.141   0.304   6.108  0.1715  0.0386 -0.0236
 9839TIP3    H251009   3.238   0.211   6.039  0.8227 -0.0516  0.9886
 9840TIP3   OH251010   1.647   2.065   1.796  0.0288 -0.2174  0.4094
 9840TIP3    H151011   1.736   2.089   1.770 -0.0632  0.4863  0.7265
 9840TIP3    H251012   1.595   2.078   1.717  0.0636  0.1674  0.4508
 9841TIP3   OH251013   1.740   6.151  13.560  0.5295  0.2588  0.4767
 9841TIP3    H151014   1.670   6.154  13.494 -0.9877 -0.7089  1.9627
 9841TIP3    H251015   1.792   6.073  13.537  0.6635  0.5385 -0.1839
 9842TIP3   OH251016   6.142   4.748  11.893 -0.3828 -0.3325 -0.5426
 9842TIP3    H151017   6.153   4.780  11.983  1.3274 -1.4884 -0.2829
 9842TIP3    H251018   6.232   4.739  11.860 -0.9418 -1.2374 -1.8980
 9843TIP3   OH251019   4.574   4.184   4.185  0.6098 -0.1269  0.3890
 9843TIP3    H151020   4.551   4.141   4.103  0.4196 -0.7527  0.7571
 9843TIP3    H251021   4.670   4.186   4.186  0.6106  0.5879 -0.1931
 9844TIP3   OH251022   1.639   4.490  16.784  0.3439  0.3061 -0.6202
 9844TIP3    H151023   1.651   4.415  16.726 -1.7515 -1.0197  0.5344
 9844TIP3    H251024   1.561   4.534  16.751 -0.3653  0.0357  0.6465
 9845TIP3   OH251025   5.190   4.728  16.347  0.7880 -0.1445  0.2557
 9845TIP3    H151026   5.181   4.634  16.360  3.4418 -0.3113  1.3640
 9845TIP3    H251027   5.127   4.748  16.278 -1.9116 -2.1821  1.9181
 9846TIP3   OH251028   0.002   4.885   0.926 -0.0263  0.0389  0.4385
 9846TIP3    H151029  -0.071   4.829   0.954  1.1188 -1.3979  0.6865
 9846TIP3    H251030   0.002   4.876   0.830 -0.2027  0.0783  0.4340
 9847TIP3   OH251031   5.581   6.313  14.200 -0.5433  0.2650 -0.1441
 9847TIP3    H151032   5.575   6.398  14.156  0.8172 -0.6821 -2.2759
 9847TIP3    H251033   5.497   6.272  14.185 -1.0353  1.0034  0.4848
 9848TIP3   OH251034   4.498   1.806   3.307 -0.7480 -0.6053  0.1353
 9848TIP3    H151035   4.590   1.782   3.296  0.2624  2.3150  1.0578
 9848TIP3    H251036   4.454   1.771   3.230  1.1901 -1.7943 -0.4914
 9849TIP3   OH251037   0.003   2.902  16.597 -0.0412 -0.4461  0.5229
 9849TIP3    H151038   0.052   2.920  16.516  2.1530 -0.9502  1.6709
 9849TIP3    H251039   0.047   2.826  16.635 -1.2787 -0.4643  2.0140
 9850TIP3   OH251040   5.477   1.080  15.498  0.9316 -0.8627  0.1654
 9850TIP3    H151041   5.488   0.998  15.450 -0.3111 -1.7667  1.3275
 9850TIP3    H251042   5.382   1.093  15.502  1.1302  1.1127 -0.7304
 9851TIP3   OH251043   0.606   2.029  15.071 -0.1100 -0.0250  0.2564
 9851TIP3    H151044   0.634   2.007  14.982  0.9171  0.9775  0.3099
 9851TIP3    H251045   0.622   1.949  15.122  2.6334  0.4303  0.2521
 9852TIP3   OH251046   1.657   2.588  11.144 -0.0803 -0.1692  0.2607
 9852TIP3    H151047   1.650   2.683  11.153  0.7871 -0.0326 -0.4125
 9852TIP3    H251048   1.655   2.556  11.235  1.9848  0.6844  0.6660
 9853TIP3   OH251049   6.491   4.181  15.447 -0.9420  0.0365  0.3781
 9853TIP3    H151050   6.516   4.198  15.538  1.2587  1.9718 -0.4992
 9853TIP3    H251051   6.552   4.233  15.395 -2.3821 -0.7114 -2.2285
 9854TIP3   OH251052   3.801   4.626   0.528  0.4714  0.1847  0.6637
 9854TIP3    H151053   3.858   4.661   0.459 -1.9390  1.1718 -0.9739
 9854TIP3    H251054   3.829   4.673   0.607  1.3352  1.3087 -0.2610
 9855TIP3   OH251055   4.748   3.309  13.659 -0.4886  0.6306  0.2846
 9855TIP3    H151056   4.755   3.387  13.714 -1.4096  0.4212  0.7164
 9855TIP3    H251057   4.699   3.337  13.582 -1.5521  0.3035  0.8217
 9856TIP3   OH251058   5.024   2.439  16.306  0.4384  0.7176  0.1111
 9856TIP3    H151059   4.969   2.493  16.363  0.0742  1.0526 -0.5427
 9856TIP3    H251060   5.097   2.413  16.361 -0.2440  0.4808  0.9276
 9857TIP3   OH251061   2.136   0.962  16.059  0.6109  0.8379 -0.2261
 9857TIP3    H151062   2.049   0.978  16.023  0.2846  1.9545  0.9709
 9857TIP3    H251063   2.196   0.989  15.989  0.0035  0.4297 -0.9176
 9858TIP3   OH251064   5.946   6.484   0.716  0.4095  0.2057 -0.3937
 9858TIP3    H151065   5.995   6.521   0.790 -0.3476  1.2443 -0.3962
 9858TIP3    H251066   5.907   6.560   0.673 -0.6231 -0.5503 -0.8104
 9859TIP3   OH251067   4.452   5.000   3.195 -0.2668 -0.6626 -0.2817
 9859TIP3    H151068   4.518   5.042   3.140 -0.1929 -0.8669 -0.3498
 9859TIP3    H251069   4.500   4.934   3.245 -0.2842 -0.3036  0.2245
 9860TIP3   OH251070   1.877   2.180  14.082  0.1591  0.0788 -0.3964
 9860TIP3    H151071   1.833   2.263  14.101 -1.3367 -0.7208 -0.2344
 9860TIP3    H251072   1.837   2.149  14.001  0.3449 -0.7295 -0.1871
 9861TIP3   OH251073   5.643   2.016   2.928 -0.1803  0.7600 -0.2712
 9861TIP3    H151074   5.579   1.970   2.982 -0.8329  1.4422 -0.4581
 9861TIP3    H251075   5.710   1.950   2.910 -1.2692 -0.2351 -0.8346
 9862TIP3   OH251076   1.052   2.002  16.266 -0.4644  0.8784  0.4815
 9862TIP3    H151077   0.965   1.994  16.304  0.1231 -0.4120  1.6899
 9862TIP3    H251078   1.101   2.055  16.329  0.1224 -0.0166  0.8018
 9863TIP3   OH251079   4.303   5.398  15.672  0.2202 -0.5053 -0.7205
 9863TIP3    H151080   4.386   5.418  15.629  0.7519 -0.1200  0.4666
 9863TIP3    H251081   4.311   5.436  15.759 -1.8713  1.0825 -1.1332
 9864TIP3   OH251082   1.843   0.093  15.841 -0.5372  0.1254  0.4052
 9864TIP3    H151083   1.859   0.148  15.918  0.2792  1.1643 -0.4820
 9864TIP3    H251084   1.883   0.009  15.864 -0.4194  0.3830  1.1705
 9865TIP3   OH251085   6.714   0.115  14.185 -0.0255  0.3778 -0.2443
 9865TIP3    H151086   6.658   0.169  14.130  0.9926  1.5257 -0.2063
 9865TIP3    H251087   6.656   0.081  14.253 -0.8160  0.8946 -0.6456
 9866TIP3   OH251088   5.839   0.180   2.881 -0.1241 -0.2729 -0.1445
 9866TIP3    H151089   5.911   0.145   2.934 -1.3605 -0.9022  1.2012
 9866TIP3    H251090   5.864   0.270   2.862  0.8330 -0.3586  0.6547
 9867TIP3   OH251091   4.446   0.618  14.599 -0.4151  0.3763 -0.2810
 9867TIP3    H151092   4.534   0.589  14.620 -0.2451 -0.1304 -1.5725
 9867TIP3    H251093   4.407   0.642  14.683  0.6109 -0.3508  0.4187
 9868TIP3   OH251094   6.627   1.059   6.371  0.6616 -0.0916  0.3612
 9868TIP3    H151095   6.594   1.106   6.447 -1.7902  1.4022 -1.4491
 9868TIP3    H251096   6.719   1.041   6.391 -0.0141 -0.3078  3.8269
 9869TIP3   OH251097   5.343   1.201   4.641  0.1079 -0.3691 -0.4795
 9869TIP3    H151098   5.252   1.221   4.621  0.5782  3.0141  0.0414
 9869TIP3    H251099   5.390   1.217   4.559  0.7012  2.8134  0.3255
 9870TIP3   OH251100   4.839   1.388  16.548  0.6004  0.1569  0.2986
 9870TIP3    H151101   4.773   1.321  16.531 -1.1814  1.6575  1.0049
 9870TIP3    H251102   4.873   1.410  16.461 -0.9953  0.4828 -0.2587
 9871TIP3   OH251103   4.905   3.556   5.384  0.3185  0.1314 -0.4456
 9871TIP3    H151104   4.895   3.651   5.382  2.7377  0.4419 -1.2528
 9871TIP3    H251105   4.999   3.542   5.377  0.0322 -2.3424 -0.2311
 9872TIP3   OH251106   1.388   1.443  12.572  0.2520 -0.5330 -0.1569
 9872TIP3    H151107   1.297   1.461  12.547  0.2977 -0.7027 -0.4492
 9872TIP3    H251108   1.385   1.436  12.668  0.0837  0.1493 -0.1052
 9873TIP3   OH251109   0.008   0.348  13.953 -0.4235 -0.0892  0.0684
 9873TIP3    H151110  -0.026   0.426  13.909  0.3067 -1.0298 -2.3270
 9873TIP3    H251111  -0.039   0.275  13.912 -0.4442 -0.9813  1.6191
 9874TIP3   OH251112   5.943   1.285   2.721  0.0238 -0.1146  0.2453
 9874TIP3    H151113   5.871   1.244   2.674 -1.8171  1.9558  1.0619
 9874TIP3    H251114   6.014   1.289   2.658 -0.0481 -3.4150 -0.1902
 9875TIP3   OH251115   0.761   5.299   1.838 -0.1576 -0.2756 -0.5655
 9875TIP3    H151116   0.776   5.248   1.918 -0.4769 -1.3861 -1.1910
 9875TIP3    H251117   0.821   5.262   1.774 -1.6459 -1.1312 -1.5510
 9876TIP3   OH251118   5.221   5.580  13.127 -0.2774  0.3143 -0.5715
 9876TIP3    H151119   5.148   5.546  13.178  0.2243  0.2197  0.1054
 9876TIP3    H251120   5.299   5.544  13.170  0.1958  0.9859 -0.8428
 9877TIP3   OH251121   5.494   3.867  15.164 -0.5289  0.4666 -0.1190
 9877TIP3    H151122   5.509   3.836  15.253 -1.7606  1.9424  0.6387
 9877TIP3    H251123   5.544   3.948  15.158  0.8395 -0.4119 -1.3378
 9878TIP3   OH251124   1.436   3.221   5.544  0.3855 -0.4372  0.3342
 9878TIP3    H151125   1.373   3.283   5.579  0.0722 -0.4084 -0.2671
 9878TIP3    H251126   1.421   3.141   5.594  0.2496 -0.2648  0.5689
 9879TIP3   OH251127   2.523   5.988  16.310  0.1568  0.2832  0.1333
 9879TIP3    H151128   2.465   5.973  16.235  1.3871  1.8237 -1.1935
 9879TIP3    H251129   2.481   6.057  16.360 -0.2080 -0.1071  0.3738
 9880TIP3   OH251130   3.748   0.966   3.132  0.2128 -0.8435  0.3718
 9880TIP3    H151131   3.813   1.001   3.072 -1.4301  0.6277 -0.6555
 9880TIP3    H251132   3.705   0.896   3.081  0.2478 -1.0690  0.6478
 9881TIP3   OH251133   2.951   4.126  12.386 -0.4555  0.3880 -0.6700
 9881TIP3    H151134   2.884   4.061  12.410 -0.0227 -0.8929 -2.7240
 9881TIP3    H251135   2.917   4.166  12.306 -0.2033  2.0006 -0.0101
 9882TIP3   OH251136   6.432   0.213   2.043 -0.0310  0.1847  0.3863
 9882TIP3    H151137   6.420   0.175   1.956 -1.1907  1.3362  0.0189
 9882TIP3    H251138   6.473   0.298   2.027 -3.4178  2.0090  0.5978
 9883TIP3   OH251139   1.012   3.807   4.178 -0.4501  0.4425 -0.4201
 9883TIP3    H151140   1.046   3.813   4.268 -0.2101 -0.6920 -0.4217
 9883TIP3    H251141   1.024   3.894   4.142  0.4512  0.6303  0.3059
 9884TIP3   OH251142   4.074   0.163   1.908  0.5815  0.2351 -0.8955
 9884TIP3    H151143   4.104   0.130   1.993  1.5046  3.3711  0.1005
 9884TIP3    H251144   4.147   0.214   1.874  0.1001 -0.6373 -3.4796
 9885TIP3   OH251145   0.375   2.308   2.794  0.0280  0.4301 -0.6227
 9885TIP3    H151146   0.295   2.262   2.767 -1.3440  1.2699  1.6716
 9885TIP3    H251147   0.347   2.398   2.807  1.8656  1.2047 -1.6579
 9886TIP3   OH251148   0.027   5.548   5.198 -0.2510 -0.1265 -0.3614
 9886TIP3    H151149  -0.015   5.622   5.243 -0.6500 -0.5718  0.0187
 9886TIP3    H251150  -0.030   5.473   5.219  2.4068 -1.4719  2.9408
 9887TIP3   OH251151   4.470   5.135  13.718 -0.4030  0.0166 -0.2146
 9887TIP3    H151152   4.468   5.160  13.810  0.9684 -0.5725  0.0101
 9887TIP3    H251153   4.392   5.175  13.679 -0.5325  0.9882  1.0148
 9888TIP3   OH251154   5.132   0.230   2.997 -0.0031 -0.2383  0.4849
 9888TIP3    H151155   5.108   0.141   3.020 -0.0138 -1.0684 -2.3191
 9888TIP3    H251156   5.067   0.285   3.041 -1.6820 -1.8193  0.1126
 9889TIP3   OH251157   4.618   5.304  11.176 -0.7197  0.1715  0.2048
 9889TIP3    H151158   4.532   5.262  11.187 -0.0835 -1.1343  0.3539
 9889TIP3    H251159   4.664   5.248  11.113 -0.2860  1.3640 -0.5773
 9890TIP3   OH251160   0.935   6.207   5.842  0.1647 -0.1086  0.1845
 9890TIP3    H151161   0.899   6.133   5.793  0.4485  0.2257 -0.5477
 9890TIP3    H251162   0.995   6.166   5.906 -0.5580 -0.5777  0.5788
 9891TIP3   OH251163   2.955   4.761   5.731  0.0214  0.4194 -0.5906
 9891TIP3    H151164   2.958   4.707   5.810 -0.5742  0.4316 -0.5504
 9891TIP3    H251165   2.923   4.846   5.762 -1.3359  0.0935 -0.9976
 9892TIP3   OH251166   4.817   3.981   0.051  0.0312  0.4213  0.1709
 9892TIP3    H151167   4.853   4.069   0.043 -1.1788  0.7795 -2.3268
 9892TIP3    H251168   4.863   3.943   0.126  0.7104  3.0871  1.2126
 9893TIP3   OH251169   0.789   4.668  12.608  0.3061 -0.0707 -0.2306
 9893TIP3    H151170   0.848   4.653  12.534 -2.7993 -2.3449 -2.5052
 9893TIP3    H251171   0.788   4.585  12.655 -0.3933  0.2364  0.3104
 9894TIP3   OH251172   1.279   0.648   3.531  0.2214  0.7185  0.1633
 9894TIP3    H151173   1.328   0.710   3.586 -0.3102  0.4088  1.0048
 9894TIP3    H251174   1.254   0.577   3.591  2.4479 -1.3314 -1.1112
 9895TIP3   OH251175   1.581   2.978   2.299 -0.1692  0.0067 -0.3426
 9895TIP3    H151176   1.643   3.050   2.292  0.0480  0.2140  2.5700
 9895TIP3    H251177   1.500   3.019   2.328 -0.2789 -0.7896  0.5337
 9896TIP3   OH251178   2.494   5.409  14.052  0.3014  0.2282  0.9594
 9896TIP3    H151179   2.481   5.425  14.146 -0.4914 -0.7433  1.0280
 9896TIP3    H251180   2.419   5.450  14.010  0.8191  0.9373  0.7116
 9897TIP3   OH251181   2.548   2.287  12.366  0.3224  0.4370 -0.1098
 9897TIP3    H151182   2.511   2.296  12.454 -0.2924 -0.7741 -0.2293
 9897TIP3    H251183   2.516   2.363  12.318  0.3261  0.8882  0.5892
 9898TIP3   OH251184   5.770   2.115  11.134 -0.0747  0.2162 -0.0322
 9898TIP3    H151185   5.679   2.091  11.116 -0.5853  0.6766  1.6812
 9898TIP3    H251186   5.805   2.143  11.050 -1.8879  1.1180 -0.5416
 9899TIP3   OH251187   4.986   4.426  16.543  0.2332  0.1963  0.2073
 9899TIP3    H151188   4.909   4.381  16.507 -1.1295 -0.4385  3.5787
 9899TIP3    H251189   5.023   4.364  16.606  1.3010  1.9059  1.3536
 9900TIP3   OH251190   4.667   6.426  14.458 -0.3992 -0.1895  0.3300
 9900TIP3    H151191   4.745   6.451  14.408 -1.3753  1.1364 -0.5794
 9900TIP3    H251192   4.679   6.469  14.543 -0.0324 -0.1872  0.2780
 9901TIP3   OH251193   6.467   5.210  12.374  0.1393  0.0124 -0.2824
 9901TIP3    H151194   6.533   5.187  12.439  1.8401  0.8219 -1.6455
 9901TIP3    H251195   6.515   5.259  12.307 -2.3681  3.6218  0.2417
 9902TIP3   OH251196   5.309   4.250   3.671  0.4624 -0.6761 -0.0614
 9902TIP3    H151197   5.278   4.202   3.748  0.2105  2.6969  2.1945
 9902TIP3    H251198   5.388   4.205   3.644 -0.2705 -2.8717  1.2250
 9903TIP3   OH251199   2.512   1.753  11.591  0.3447 -0.3949  0.0507
 9903TIP3    H151200   2.423   1.775  11.619  1.4436  2.5136  1.7895
 9903TIP3    H251201   2.553   1.716  11.669  0.7508 -1.5164 -0.6754
 9904TIP3   OH251202   3.328   4.745   2.301 -0.4772  0.2362 -0.5557
 9904TIP3    H151203   3.321   4.742   2.206  2.1007  0.4414 -0.8303
 9904TIP3    H251204   3.357   4.657   2.325 -2.7326 -0.3369  0.2771
 9905TIP3   OH251205   4.261   6.247   2.058  0.4702 -0.2397  0.3864
 9905TIP3    H151206   4.258   6.284   1.970  0.4405 -2.7004 -0.7061
 9905TIP3    H251207   4.188   6.289   2.104 -0.9365 -0.5412 -1.4575
 9906TIP3   OH251208   2.694   4.178   3.901 -0.4910  0.6515 -0.3642
 9906TIP3    H151209   2.709   4.219   3.816  0.5625  0.2446 -0.3879
 9906TIP3    H251210   2.777   4.186   3.947 -1.0606  0.9061  0.6552
 9907TIP3   OH251211   1.393   1.278   2.429 -0.4352  0.2083 -0.0189
 9907TIP3    H151212   1.390   1.349   2.365 -0.4001  0.9882  0.8346
 9907TIP3    H251213   1.304   1.275   2.465 -0.4081 -0.1163  0.0232
 9908TIP3   OH251214   2.762   0.733   1.431  0.0257 -0.2209 -0.0947
 9908TIP3    H151215   2.686   0.781   1.397 -0.0141 -1.1460 -1.3906
 9908TIP3    H251216   2.732   0.642   1.435  0.9651 -0.5476 -0.3542
 9909TIP3   OH251217   3.130   2.943   4.291 -0.0437 -0.1874  0.4497
 9909TIP3    H151218   3.220   2.924   4.318  0.0136 -4.1291 -1.8354
 9909TIP3    H251219   3.077   2.888   4.349 -0.7092 -0.4357 -0.3956
 9910TIP3   OH251220   5.859   3.735  14.113  0.7034  0.0976 -0.0817
 9910TIP3    H151221   5.831   3.689  14.034  0.3030 -0.5096  0.4048
 9910TIP3    H251222   5.838   3.827  14.096  0.4076 -0.0599 -0.5850
 9911TIP3   OH251223   0.019   1.289   3.949 -0.2251 -0.2138  0.1484
 9911TIP3    H151224  -0.041   1.296   4.023  0.4217  1.5474  0.5718
 9911TIP3    H251225  -0.025   1.231   3.887 -2.6347  1.4157  0.1978
 9912TIP3   OH251226   5.605   2.753   3.918 -0.1041  0.0736 -0.2411
 9912TIP3    H151227   5.609   2.657   3.918 -2.6352 -0.1666 -3.1782
 9912TIP3    H251228   5.669   2.779   3.852 -1.2946  0.1740 -1.3926
 9913TIP3   OH251229   3.386   0.591   4.120  0.7476  0.0742 -0.4890
 9913TIP3    H151230   3.311   0.532   4.120  1.3101 -0.6634 -1.1398
 9913TIP3    H251231   3.349   0.678   4.101  0.2513 -0.5788 -2.7803
 9914TIP3   OH251232   6.700   3.899   6.613 -0.5317  0.3101 -0.2096
 9914TIP3    H151233   6.622   3.953   6.618  0.5331  1.7922  1.9155
 9914TIP3    H251234   6.748   3.932   6.537 -1.5107 -0.0003 -0.9737
 9915TIP3   OH251235   2.993   1.689   5.093  0.1730  0.1964  0.0079
 9915TIP3    H151236   2.999   1.759   5.158 -0.3021  0.2330  0.0189
 9915TIP3    H251237   2.934   1.625   5.133 -0.3461  0.3513 -0.5063
 9916TIP3   OH251238   5.841   3.687  14.379  0.5675  0.3675  0.5404
 9916TIP3    H151239   5.853   3.593  14.373  3.1096  0.5907  0.9619
 9916TIP3    H251240   5.844   3.718  14.288 -0.5499  0.0417  0.3823
 9917TIP3   OH251241   5.722   1.781  10.665 -0.4022 -1.1991  0.5057
 9917TIP3    H151242   5.730   1.869  10.628  0.7648 -0.5136  2.2322
 9917TIP3    H251243   5.768   1.724  10.602  1.1827 -0.1351  0.6324
 9918TIP3   OH251244   0.593   5.075   0.340 -0.1293 -0.1651 -0.0918
 9918TIP3    H151245   0.619   5.078   0.248  0.1626  1.0601  0.0093
 9918TIP3    H251246   0.536   5.152   0.350  0.4667  0.1562  0.9280
 9919TIP3   OH251247   2.986   1.541   5.738 -0.0191 -0.7108 -0.0593
 9919TIP3    H151248   2.953   1.464   5.692 -0.9154 -0.3640  0.0011
 9919TIP3    H251249   2.938   1.543   5.821  0.0300 -0.1166 -0.0389
 9920TIP3   OH251250   5.581   3.528  14.486 -0.3956 -0.2604 -0.7794
 9920TIP3    H151251   5.637   3.509  14.411 -1.5545 -0.3109 -1.6658
 9920TIP3    H251252   5.592   3.622  14.501  0.1731 -0.3322 -0.7225
 9921TIP3   OH251253   0.451   0.683  14.925  0.4529 -0.5325  0.6743
 9921TIP3    H151254   0.527   0.710  14.978  0.2266  1.4735  0.0481
 9921TIP3    H251255   0.380   0.674  14.989  0.3671  1.1312  0.8612
 9922TIP3   OH251256   2.442   2.559  15.076  0.7913  0.3421 -0.1826
 9922TIP3    H151257   2.401   2.637  15.039 -0.4108 -0.5114 -0.6941
 9922TIP3    H251258   2.522   2.547  15.025  0.2741  0.4512 -1.0301
 9923TIP3   OH251259   5.521   3.346  13.520  0.1723 -0.3011  0.1780
 9923TIP3    H151260   5.613   3.327  13.541  0.4636  1.0058  0.1464
 9923TIP3    H251261   5.480   3.362  13.604 -0.2609 -1.7901  0.2724
 9924TIP3   OH251262   5.142   5.738   3.363 -0.0255 -0.2893  0.0625
 9924TIP3    H151263   5.064   5.706   3.319 -1.3019  2.8275 -0.2387
 9924TIP3    H251264   5.201   5.663   3.367 -0.8519 -1.5100 -4.6161
 9925TIP3   OH251265   4.831   3.386  12.283  0.3146  0.0474 -0.0630
 9925TIP3    H151266   4.810   3.338  12.363  1.1693  1.8035  1.2828
 9925TIP3    H251267   4.780   3.342  12.215 -0.3451 -1.5860  1.3964
 9926TIP3   OH251268   1.548   3.678  11.850 -0.5118  0.2664  0.3432
 9926TIP3    H151269   1.552   3.593  11.894  0.9577  0.3136  0.3515
 9926TIP3    H251270   1.636   3.716  11.862 -0.3501  0.7105 -1.7660
 9927TIP3   OH251271   6.229   6.058  10.750 -0.0703 -0.4613 -0.1241
 9927TIP3    H151272   6.238   5.981  10.808  0.2409  0.6576  1.3716
 9927TIP3    H251273   6.176   6.120  10.801  2.9691  1.8923  0.4369
 9928TIP3   OH251274   6.069   1.071  11.209 -0.4300  0.2576 -0.3086
 9928TIP3    H151275   6.138   1.136  11.206 -0.5585  0.4655  0.7800
 9928TIP3    H251276   5.991   1.117  11.179 -0.4458  0.5104  0.1136
 9929TIP3   OH251277   0.344   0.174   1.866 -0.4069 -0.5406 -0.4120
 9929TIP3    H151278   0.291   0.114   1.919  0.0471 -1.0667 -0.5493
 9929TIP3    H251279   0.349   0.254   1.919 -0.3791 -0.8872  0.1171
 9930TIP3   OH251280   5.308   6.443  10.727 -0.1965 -0.4116  0.2610
 9930TIP3    H151281   5.393   6.410  10.758 -0.6046 -0.4864  1.3401
 9930TIP3    H251282   5.291   6.393  10.647  0.2972 -1.1424  0.6008
 9931TIP3   OH251283   3.759   2.663   5.986  0.5417  0.5578  0.2999
 9931TIP3    H151284   3.782   2.731   5.923  0.7332  0.7200  0.5442
 9931TIP3    H251285   3.721   2.710   6.059 -1.6109  0.2165 -0.5420
 9932TIP3   OH251286   1.362   6.036   0.135  0.1584 -0.0423  0.0458
 9932TIP3    H151287   1.284   5.981   0.137 -0.3610  0.6790  0.1200
 9932TIP3    H251288   1.358   6.087   0.216  0.6568  0.0705  0.0051
 9933TIP3   OH251289   4.666   0.166   4.509 -0.4092 -0.5146  0.2652
 9933TIP3    H151290   4.606   0.096   4.534 -0.0416 -0.0801  2.6586
 9933TIP3    H251291   4.738   0.122   4.464 -0.8969 -1.4794  0.4095
 9934TIP3   OH251292   3.015   0.140  14.221  0.1596 -0.3135  0.0580
 9934TIP3    H151293   2.983   0.229  14.211  0.8837 -0.1676 -1.0791
 9934TIP3    H251294   2.939   0.091  14.253 -0.8914  0.2569 -1.4642
 9935TIP3   OH251295   0.505   3.896   4.487  0.0352 -0.2277  0.1280
 9935TIP3    H151296   0.508   3.911   4.581 -1.1044  2.5196 -0.1559
 9935TIP3    H251297   0.595   3.876   4.463  0.1119 -2.4918  1.9194
 9936TIP3   OH251298   0.086   6.288   0.555  0.4342  0.3547 -0.5922
 9936TIP3    H151299   0.146   6.240   0.612 -1.4064 -2.1632 -0.6114
 9936TIP3    H251300   0.022   6.327   0.614  0.3966  0.5345 -0.7513
 9937TIP3   OH251301   3.750   1.165  14.952  0.4165 -0.0158  0.3593
 9937TIP3    H151302   3.702   1.245  14.929  1.3345  0.4489  0.0153
 9937TIP3    H251303   3.711   1.137  15.035  0.7036  1.3111  0.9595
 9938TIP3   OH251304   6.156   3.605   2.053 -0.2540  0.5490 -0.5228
 9938TIP3    H151305   6.203   3.576   1.975  0.4599  1.6985 -0.5418
 9938TIP3    H251306   6.085   3.541   2.063  0.7806 -0.7248 -0.9902
 9939TIP3   OH251307   1.141   4.780   1.937  0.1853 -0.3918 -1.0205
 9939TIP3    H151308   1.220   4.826   1.911  0.4409 -0.9266 -1.2058
 9939TIP3    H251309   1.122   4.812   2.025 -0.5816  1.2948 -1.7577
 9940TIP3   OH251310   3.644   0.686   4.352  0.9385 -0.5973 -0.0051
 9940TIP3    H151311   3.573   0.750   4.345 -0.3084 -1.5032  2.8469
 9940TIP3    H251312   3.724   0.738   4.339 -0.1182  1.0326 -0.3272
 9941TIP3   OH251313   6.496   1.443  13.129 -0.3783  0.1789 -0.1932
 9941TIP3    H151314   6.424   1.417  13.186 -0.6308 -0.4683 -0.7885
 9941TIP3    H251315   6.472   1.409  13.043 -0.1100  1.3290 -0.7388
 9942TIP3   OH251316   2.309   4.578  14.961 -0.4534 -0.4253 -0.4551
 9942TIP3    H151317   2.219   4.608  14.961 -0.7163 -1.1524  0.8752
 9942TIP3    H251318   2.305   4.486  14.933 -0.2866 -0.8176  0.7385
 9943TIP3   OH251319   6.669   6.509   1.358 -0.3925 -0.1525 -0.3444
 9943TIP3    H151320   6.593   6.566   1.346 -0.0431  0.8352  1.7593
 9943TIP3    H251321   6.678   6.500   1.453  2.2414 -0.0577 -0.5085
 9944TIP3   OH251322   4.338   2.964  16.952 -0.0865  0.1661 -0.2192
 9944TIP3    H151323   4.416   2.914  16.978  0.9267  0.6488 -2.1084
 9944TIP3    H251324   4.356   3.054  16.980  0.1140  0.3058 -0.7855
 9945TIP3   OH251325   2.624   1.774   4.702 -0.3467  0.1504 -0.3420
 9945TIP3    H151326   2.691   1.762   4.770  1.0935  2.9348 -1.1127
 9945TIP3    H251327   2.545   1.795   4.751  0.5308  1.5600  0.5424
 9946TIP3   OH251328   5.136   1.146  16.663 -0.7394  0.1877 -0.1751
 9946TIP3    H151329   5.189   1.091  16.605 -2.2585 -0.3534 -1.1108
 9946TIP3    H251330   5.111   1.089  16.735  1.1612  0.8653  1.1185
 9947TIP3   OH251331   1.129   1.672  14.654 -0.1092 -0.1690 -0.6335
 9947TIP3    H151332   1.086   1.633  14.730  0.0689 -0.6018 -0.7522
 9947TIP3    H251333   1.175   1.748  14.689 -0.9219  0.2643 -0.4928
 9948TIP3   OH251334   0.885   1.838   3.603  0.1037 -0.1520  0.0172
 9948TIP3    H151335   0.963   1.879   3.564 -0.1417  2.6604  2.1142
 9948TIP3    H251336   0.817   1.905   3.596 -1.6777 -1.8948 -0.2065
 9949TIP3   OH251337   3.255   2.044   5.092  0.2245  0.6581 -0.2305
 9949TIP3    H151338   3.337   2.030   5.045 -0.5556 -1.2315 -1.1098
 9949TIP3    H251339   3.252   1.974   5.157 -1.5701 -0.5353 -1.5188
 9950TIP3   OH251340   1.203   3.880   0.320 -0.4042 -0.2196 -0.4095
 9950TIP3    H151341   1.197   3.961   0.269 -0.4005 -0.1378 -0.2796
 9950TIP3    H251342   1.206   3.909   0.411  0.0644 -0.3450 -0.3810
 9951TIP3   OH251343   2.335   2.979  11.348  0.5827 -0.1965  0.3049
 9951TIP3    H151344   2.286   2.901  11.322 -0.1316  0.6277 -0.9241
 9951TIP3    H251345   2.412   2.945  11.393  0.9377 -1.6759 -1.3255
 9952TIP3   OH251346   5.732   5.459   2.515  1.1340  0.3319  0.3709
 9952TIP3    H151347   5.782   5.413   2.582  0.4362  1.4693  1.7435
 9952TIP3    H251348   5.749   5.552   2.531 -1.2290  0.7734  0.8428
 9953TIP3   OH251349   2.763   4.410   2.932  0.0102 -0.5199 -0.2246
 9953TIP3    H151350   2.733   4.499   2.916  2.2066  0.4733  0.8100
 9953TIP3    H251351   2.737   4.392   3.022  1.8111  0.0982  0.4512
 9954TIP3   OH251352   1.856   6.211   3.591 -0.6189  0.2924 -0.5457
 9954TIP3    H151353   1.787   6.154   3.556 -0.3141  0.9619 -2.3172
 9954TIP3    H251354   1.818   6.299   3.587  0.5689  0.7794 -2.3080
 9955TIP3   OH251355   4.055   6.089  11.860 -0.6102 -0.5137 -0.4411
 9955TIP3    H151356   3.994   6.016  11.863 -1.4602  0.1822  1.5543
 9955TIP3    H251357   4.095   6.090  11.947  0.5856  0.4083 -0.9688
 9956TIP3   OH251358   0.979   0.486   1.669 -0.2302  0.3770 -0.3552
 9956TIP3    H151359   0.940   0.530   1.745  1.1521  0.6882  0.2022
 9956TIP3    H251360   1.026   0.411   1.706  0.9229  0.8525 -0.8137
 9957TIP3   OH251361   2.654   5.653   3.042  0.3096  0.3971  0.6770
 9957TIP3    H151362   2.605   5.715   3.096  0.8724  1.7786 -0.3470
 9957TIP3    H251363   2.722   5.619   3.100 -0.2399  0.4365  1.3564
 9958TIP3   OH251364   2.868   3.088   4.090  0.5694  0.3188  0.7221
 9958TIP3    H151365   2.816   3.058   4.165 -0.0626  0.1646  0.2350
 9958TIP3    H251366   2.919   3.161   4.123  1.6606 -0.8807  1.7778
 9959TIP3   OH251367   2.439   3.886  13.414  0.2408  0.0877 -0.0874
 9959TIP3    H151368   2.379   3.960  13.415  0.7794  0.5638 -1.3224
 9959TIP3    H251369   2.471   3.881  13.324 -0.6373 -2.3699 -0.3523
 9960TIP3   OH251370   2.486   5.502   0.310 -0.2140  0.3110 -0.2423
 9960TIP3    H151371   2.401   5.486   0.271  0.3069  0.2853 -1.4051
 9960TIP3    H251372   2.473   5.484   0.404 -1.7959  1.6126 -0.1644
 9961TIP3   OH251373   3.041   1.140   2.857  0.3107 -0.3815  0.3822
 9961TIP3    H151374   3.018   1.142   2.764  1.2012  0.9945  0.1599
 9961TIP3    H251375   3.048   1.233   2.882 -0.9582 -0.7066  2.0966
 9962TIP3   OH251376   6.317   6.348   3.852 -0.4401 -0.2494 -0.4395
 9962TIP3    H151377   6.351   6.437   3.859 -0.6518 -0.2013  0.0169
 9962TIP3    H251378   6.368   6.308   3.782  0.4068 -0.1165  0.0971
 9963TIP3   OH251379   3.036   6.059  16.655 -0.1165 -0.1287  0.0450
 9963TIP3    H151380   3.032   6.066  16.750 -0.4636  0.7845 -0.0232
 9963TIP3    H251381   3.129   6.050  16.635 -0.1170 -1.3417  0.5203
 9964TIP3   OH251382   2.902   2.485  16.710 -0.5959  0.1016 -0.1013
 9964TIP3    H151383   2.880   2.559  16.652  0.2558  0.3052 -0.1701
 9964TIP3    H251384   2.845   2.415  16.681 -1.4037  0.7192 -0.0555
 9965TIP3   OH251385   2.746   1.918  14.925  0.5601  1.1158 -0.2473
 9965TIP3    H151386   2.726   2.011  14.937 -2.7945  0.3524  1.2988
 9965TIP3    H251387   2.661   1.876  14.919  1.6516 -2.3838  3.7165
 9966TIP3   OH251388   2.375   4.611  12.851  0.3525 -0.2081  0.3577
 9966TIP3    H151389   2.359   4.566  12.768  1.3911 -0.5963  0.3558
 9966TIP3    H251390   2.366   4.704  12.831 -1.0359 -0.3524  0.1898
 9967TIP3   OH251391   1.090   4.831  11.685  0.3631  0.0705 -0.3000
 9967TIP3    H151392   1.112   4.850  11.594  1.5938  0.1874  0.0064
 9967TIP3    H251393   1.010   4.780  11.680  2.3370 -3.1843 -1.6892
 9968TIP3   OH251394   6.124   6.664   5.480 -0.7646  0.1128  0.2866
 9968TIP3    H151395   6.081   6.593   5.528 -1.1262 -1.0924 -1.7109
 9968TIP3    H251396   6.129   6.736   5.543 -3.2459 -0.6057  1.4485
 9969TIP3   OH251397   4.112   5.275   5.775 -0.0261 -0.7226  0.7105
 9969TIP3    H151398   4.037   5.329   5.749  0.8111 -0.9245 -2.4997
 9969TIP3    H251399   4.163   5.332   5.832 -0.6721  0.8350 -0.1875
 9970TIP3   OH251400   5.274   6.088   4.764  0.1586  0.7311 -0.3259
 9970TIP3    H151401   5.251   6.029   4.836  1.2939 -0.2794 -0.7448
 9970TIP3    H251402   5.191   6.126   4.737 -0.6541 -0.7882 -0.1004
 9971TIP3   OH251403   4.747   0.255   4.764  0.2656 -0.0550 -0.3345
 9971TIP3    H151404   4.813   0.242   4.696  0.9926 -1.3077  0.5667
 9971TIP3    H251405   4.666   0.220   4.726  0.5303 -0.2114 -0.7589
 9972TIP3   OH251406   2.610   1.624  17.061  0.7382 -0.0514 -0.0355
 9972TIP3    H151407   2.591   1.636  16.968  0.7582 -0.8462 -0.1459
 9972TIP3    H251408   2.705   1.608  17.064  0.2849 -3.6792 -0.3051
 9973TIP3   OH251409   2.476   2.860   0.907 -0.1285 -0.9403  0.3029
 9973TIP3    H151410   2.528   2.791   0.866  0.7347 -0.3353  0.3473
 9973TIP3    H251411   2.386   2.840   0.882  0.2809 -1.0647 -1.1830
 9974TIP3   OH251412   0.927   5.066   5.512 -0.3189 -0.3765  0.3948
 9974TIP3    H151413   0.967   5.031   5.592  3.7708  0.4827 -1.0300
 9974TIP3    H251414   0.901   4.989   5.462 -2.2198 -0.9341  2.1004
 9975TIP3   OH251415   3.552   3.139  11.510  0.0840 -0.3073  0.2237
 9975TIP3    H151416   3.461   3.168  11.516 -0.3829 -1.7615  0.6167
 9975TIP3    H251417   3.577   3.158  11.419 -0.1368  1.3502  0.4707
 9976TIP3   OH251418   2.605   4.507   4.713 -0.2662  0.2642 -0.3726
 9976TIP3    H151419   2.585   4.567   4.642 -0.0584 -0.7863 -1.3569
 9976TIP3    H251420   2.553   4.428   4.693 -0.6313  0.1380  0.9418
 9977TIP3   OH251421   5.259   3.812  13.427 -0.0309 -0.3852  0.2577
 9977TIP3    H151422   5.339   3.861  13.409 -0.1332 -0.1223  0.5108
 9977TIP3    H251423   5.198   3.841  13.360 -0.5850  0.9968  1.3206
 9978TIP3   OH251424   0.964   6.279   1.629  0.5493 -0.0585 -0.3660
 9978TIP3    H151425   0.977   6.233   1.711  0.4767  1.6958  0.6880
 9978TIP3    H251426   1.047   6.270   1.582  0.3901 -1.5675 -0.3937
 9979TIP3   OH251427   0.120   4.281  12.719 -0.3169 -0.2389 -0.1183
 9979TIP3    H151428   0.041   4.256  12.768 -1.3888 -0.6637 -1.9683
 9979TIP3    H251429   0.156   4.198  12.688 -0.2257  0.0876 -0.8900
 9980TIP3   OH251430   0.170   1.895  11.099 -0.2293  0.2110 -0.2101
 9980TIP3    H151431   0.169   1.887  11.004 -1.1709  0.6945 -0.2512
 9980TIP3    H251432   0.230   1.827  11.128  1.0241  0.8621 -1.2131
 9981TIP3   OH251433   6.370   5.613   3.144  0.2512  0.3924 -0.3274
 9981TIP3    H151434   6.342   5.618   3.053  1.2375  1.3042 -0.5964
 9981TIP3    H251435   6.412   5.697   3.161  0.0818  0.2305  0.9736
 9982TIP3   OH251436   4.244   4.027  13.910 -0.0814 -0.1840  0.1049
 9982TIP3    H151437   4.272   4.039  14.001  0.4206 -0.6586  0.0178
 9982TIP3    H251438   4.149   4.012  13.916 -0.1986  0.6839  0.4692
 9983TIP3   OH251439   3.550   5.344   3.577 -0.3198  0.3772 -0.5232
 9983TIP3    H151440   3.630   5.327   3.626 -1.6599  0.8118  2.0087
 9983TIP3    H251441   3.557   5.436   3.550 -1.1977  1.4101  2.4153
 9984TIP3   OH251442   2.803   3.502   0.025  0.3225  0.4170 -0.1466
 9984TIP3    H151443   2.745   3.524  -0.048  0.0301 -1.3146 -0.4593
 9984TIP3    H251444   2.756   3.533   0.103  0.6136  2.2224 -0.6316
 9985TIP3   OH251445   5.274   5.186   2.194  0.7031 -0.2764 -0.5329
 9985TIP3    H151446   5.359   5.163   2.232  1.4556  0.3662 -1.7749
 9985TIP3    H251447   5.295   5.236   2.115 -0.8170 -0.7191 -1.2651
 9986TIP3   OH251448   6.425   3.198  12.683  0.0148  0.1100 -0.2879
 9986TIP3    H151449   6.393   3.287  12.668 -1.7872 -0.2748  0.9509
 9986TIP3    H251450   6.519   3.209  12.699 -0.1262  1.7478 -0.4138
 9987TIP3   OH251451   2.855   6.110   6.085  0.5121 -0.1853 -0.1830
 9987TIP3    H151452   2.842   6.177   6.017 -1.9889 -0.9117 -0.5370
 9987TIP3    H251453   2.813   6.147   6.163 -0.4214 -1.0874 -0.2418
 9988TIP3   OH251454   0.631   0.815  14.326 -0.4650 -0.2273 -0.1166
 9988TIP3    H151455   0.587   0.731  14.314 -0.9841  0.0561 -0.2441
 9988TIP3    H251456   0.597   0.848  14.410 -0.0331 -0.2846  0.0834
 9989TIP3   OH251457   6.213   5.054  13.852 -0.2063 -0.5563  0.1481
 9989TIP3    H151458   6.225   5.117  13.780 -1.6708 -1.3772 -0.8622
 9989TIP3    H251459   6.250   4.973  13.819 -2.0674 -1.2843 -0.2447
 9990TIP3   OH251460   3.034   0.925   5.485 -0.1531  0.2022 -0.8472
 9990TIP3    H151461   3.117   0.907   5.529 -0.5407 -1.6450 -0.7783
 9990TIP3    H251462   3.045   0.888   5.397 -0.0812  2.1101 -1.6851
 9991TIP3   OH251463   6.596   0.083   5.753  0.3452 -0.2217 -0.1512
 9991TIP3    H151464   6.575   0.169   5.718 -0.2505  0.0880  0.9326
 9991TIP3    H251465   6.526   0.026   5.722 -0.0313 -0.0053  0.2803
 9992TIP3   OH251466   4.723   2.020  10.769 -0.1452 -0.7779 -0.0633
 9992TIP3    H151467   4.725   2.103  10.721  0.5922 -0.6021  0.2594
 9992TIP3    H251468   4.663   1.965  10.719 -3.2055  0.9654  1.4077
 9993TIP3   OH251469   5.271   0.967  14.318 -0.0972  0.0754 -0.6146
 9993TIP3    H151470   5.297   0.944  14.229 -0.6181  0.7291 -0.9495
 9993TIP3    H251471   5.351   0.958  14.370 -0.4452 -3.3752 -0.4771
 9994TIP3   OH251472   3.009   5.647   2.508 -0.6452  0.1070  0.0348
 9994TIP3    H151473   3.004   5.739   2.537 -3.6532 -0.1932  0.7945
 9994TIP3    H251474   2.989   5.650   2.415 -2.2924  0.1708  0.3505
 9995TIP3   OH251475   2.873   0.089   6.034 -1.0019 -0.2458 -1.0550
 9995TIP3    H151476   2.953   0.074   6.083 -1.8111  0.2430  0.4836
 9995TIP3    H251477   2.803   0.069   6.097 -2.0810  1.0567 -1.8056
 9996TIP3   OH251478   4.674   3.620   4.496  0.3336  0.2130 -0.0064
 9996TIP3    H151479   4.586   3.583   4.489  0.5545 -0.2041 -0.6597
 9996TIP3    H251480   4.664   3.695   4.555 -0.1668 -0.7051  1.1249
 9997TIP3   OH251481   1.653   1.430  11.430 -0.3054 -0.0370 -0.0837
 9997TIP3    H151482   1.573   1.453  11.477 -0.2118  0.5470 -0.2043
 9997TIP3    H251483   1.623   1.408  11.341 -0.3077  0.4253 -0.1991
 9998TIP3   OH251484   4.092   1.421   5.398 -0.1119  0.0852 -0.1757
 9998TIP3    H151485   4.023   1.450   5.339  0.9482 -1.0032 -2.0694
 9998TIP3    H251486   4.149   1.497   5.409 -1.0632  0.7010  0.6153
 9999TIP3   OH251487   0.851   2.401   0.392 -0.7032  0.6719 -0.7156
 9999TIP3    H151488   0.920   2.420   0.456 -0.2131 -2.8303 -0.0074
 9999TIP3    H251489   0.897   2.393   0.309 -0.5898  0.4876 -0.6356
10000TIP3   OH251490   4.285   0.253   6.340 -0.0290  0.2958 -0.0602
10000TIP3    H151491   4.365   0.237   6.390 -0.2863 -0.0881  0.2413
10000TIP3    H251492   4.247   0.331   6.381 -0.0354  0.2156  0.0886
10001TIP3   OH251493   4.387   5.417   4.394  0.2939  1.1024  0.6586
10001TIP3    H151494   4.363   5.480   4.462  0.7183  1.5270  0.4191
10001TIP3    H251495   4.404   5.336   4.442 -1.0868  0.9190  0.8887
10002TIP3   OH251496   0.259   4.014  16.051 -0.5575  0.1159  0.4583
10002TIP3    H151497   0.291   4.103  16.032 -0.6147 -0.0736 -0.5921
10002TIP3    H251498   0.268   3.968  15.968 -1.9951 -0.4296  0.5860
10003TIP3   OH251499   2.305   4.023   5.419 -0.2678 -0.1374 -0.0243
10003TIP3    H151500   2.333   4.097   5.365  2.2158 -0.1986  1.0492
10003TIP3    H251501   2.356   4.032   5.499 -1.2463 -2.0415  0.8650
10004TIP3   OH251502   5.330   3.230  16.320  0.2653 -0.0825 -0.5588
10004TIP3    H151503   5.325   3.252  16.227  0.3253  1.5847 -0.2040
10004TIP3    H251504   5.410   3.178  16.328  0.1541 -0.4087 -1.4671
10005TIP3   OH251505   3.788   3.600   4.479  0.2788  0.0502  0.1439
10005TIP3    H151506   3.762   3.690   4.459  1.4234  0.2808 -0.4306
10005TIP3    H251507   3.833   3.570   4.400  0.5627 -0.7749  0.6005
10006TIP3   OH251508   2.626   3.362  12.403 -0.3729 -0.3096  0.2079
10006TIP3    H151509   2.536   3.329  12.411 -1.3454  1.1302 -2.9562
10006TIP3    H251510   2.675   3.290  12.363 -0.7855 -0.2660 -0.3939
10007TIP3   OH251511   0.212   0.266  15.124  0.4898  0.1502 -0.4755
10007TIP3    H151512   0.207   0.357  15.096  1.5708  0.6144  0.7111
10007TIP3    H251513   0.123   0.233  15.115  0.3177  0.9671 -2.0397
10008TIP3   OH251514   1.139   4.841  15.009  0.1327  0.1567  0.3403
10008TIP3    H151515   1.113   4.841  15.101 -0.1021 -0.5910  0.2791
10008TIP3    H251516   1.164   4.751  14.991  1.3846  0.5569 -0.0023
10009TIP3   OH251517   3.623   3.992   1.099  0.1092 -0.0003  0.0355
10009TIP3    H151518   3.564   3.949   1.037  0.4258 -0.8547  0.3082
10009TIP3    H251519   3.582   4.076   1.117 -0.5802 -0.2248 -0.4424
10010TIP3   OH251520   2.006   5.266  15.270 -0.2695 -0.1262 -0.1056
10010TIP3    H151521   1.997   5.245  15.177  0.7914  0.0337 -0.2551
10010TIP3    H251522   2.077   5.209  15.301 -0.2191  0.2387  0.4657
10011TIP3   OH251523   1.635   5.178   2.073  0.2162  0.0615 -0.1091
10011TIP3    H151524   1.644   5.139   1.986 -0.8785  2.0312 -1.1766
10011TIP3    H251525   1.607   5.268   2.057 -1.6898  0.0223  2.3174
10012TIP3   OH251526   3.392   0.869   4.636  0.3414 -0.2452 -0.1916
10012TIP3    H151527   3.358   0.809   4.570  0.5026 -1.3201  0.6831
10012TIP3    H251528   3.387   0.955   4.595 -2.3408 -0.4781 -0.5450
10013TIP3   OH251529   0.284   6.451   1.522 -0.2193  0.4149  0.2452
10013TIP3    H151530   0.221   6.408   1.580 -0.5497  1.3694  0.6084
10013TIP3    H251531   0.232   6.482   1.448 -0.1856  1.2434  0.5662
10014TIP3   OH251532   5.379   2.774   2.862  0.0309  0.4147 -0.2590
10014TIP3    H151533   5.370   2.807   2.772 -0.6869  1.8094  0.2969
10014TIP3    H251534   5.467   2.800   2.889 -0.0259  0.6616 -0.3086
10015TIP3   OH251535   1.823   3.535  16.225  0.0461  0.0022  0.0831
10015TIP3    H151536   1.859   3.448  16.207 -1.3005 -0.9307  1.6815
10015TIP3    H251537   1.755   3.547  16.159 -1.4114 -1.2340  1.2881
10016TIP3   OH251538   0.676   0.821  15.014  0.2591  0.2830 -0.5448
10016TIP3    H151539   0.717   0.868  14.942  2.7920  0.3994  0.8580
10016TIP3    H251540   0.749   0.788  15.066 -1.4533 -0.5579  1.4842
10017TIP3   OH251541   6.681   2.926   4.405  0.5564 -0.2256  0.3085
10017TIP3    H151542   6.698   2.855   4.343  1.4068  0.5853 -0.4306
10017TIP3    H251543   6.726   3.002   4.367 -0.9475  0.9011  0.6948
10018TIP3   OH251544   6.431   0.507  16.149  0.1969 -0.0564  0.6457
10018TIP3    H151545   6.456   0.572  16.214  0.9106 -0.0967  0.4191
10018TIP3    H251546   6.401   0.432  16.200 -0.6683  0.4495  0.9070
10019TIP3   OH251547   2.001   4.015  14.687 -0.2227  0.4910 -0.6024
10019TIP3    H151548   1.958   4.074  14.625 -0.2634  2.2516  1.0082
10019TIP3    H251549   2.050   3.954  14.632 -1.9473  0.6297 -2.3947
10020TIP3   OH251550   5.734   3.559  13.288  0.2941 -0.1162  0.1337
10020TIP3    H151551   5.673   3.528  13.221 -0.3987 -3.3517  2.0206
10020TIP3    H251552   5.679   3.602  13.353  0.7246  1.2935 -0.3963
10021TIP3   OH251553   0.182   4.537  11.645  0.3469 -0.1201  0.0411
10021TIP3    H151554   0.095   4.512  11.616  0.2580 -0.8399  0.8704
10021TIP3    H251555   0.222   4.455  11.675  1.4841  0.1119 -0.7497
10022TIP3   OH251556   5.872   5.121  14.907 -0.4229 -0.1218 -0.0569
10022TIP3    H151557   5.872   5.195  14.968 -0.3156  0.7549 -1.0856
10022TIP3    H251558   5.790   5.076  14.925 -0.1867 -0.1492  1.0344
10023TIP3   OH251559   2.140   2.362  16.460  0.3225  1.0887  0.0162
10023TIP3    H151560   2.050   2.350  16.429  0.7812  2.3568 -2.0422
10023TIP3    H251561   2.172   2.274  16.477 -1.3855  0.6304  1.0695
10024TIP3   OH251562   6.388   2.982   3.270  0.3133 -0.0118  0.0211
10024TIP3    H151563   6.391   3.044   3.343 -0.4549  1.5862 -1.2349
10024TIP3    H251564   6.318   2.921   3.294  0.7358 -0.1050  1.0586
10025TIP3   OH251565   4.199   4.325  13.396  0.1702  0.2985 -0.1498
10025TIP3    H151566   4.263   4.333  13.325 -0.4442  1.8839 -0.5613
10025TIP3    H251567   4.138   4.259  13.365  0.4408  0.2910 -0.6878
10026TIP3   OH251568   6.355   4.912   4.217 -0.6997 -0.3363 -0.4395
10026TIP3    H151569   6.420   4.962   4.166 -1.8679  1.1647 -0.5354
10026TIP3    H251570   6.271   4.947   4.188 -1.7878 -3.9471 -2.1457
10027TIP3   OH251571   5.135   1.963  15.324  0.4063 -0.0867 -0.0039
10027TIP3    H151572   5.108   1.875  15.298  0.2340 -0.2956  0.8595
10027TIP3    H251573   5.217   1.978  15.276 -0.8309  0.2889 -2.1089
10028TIP3   OH251574   0.899   3.483   0.369  0.4598  0.6770 -0.5515
10028TIP3    H151575   0.910   3.537   0.447 -0.6680  1.3936 -0.8644
10028TIP3    H251576   0.892   3.393   0.402  0.1057  0.9633  0.1709
10029TIP3   OH251577   5.589   2.889  12.340 -0.7195 -0.6614  0.4149
10029TIP3    H151578   5.567   2.925  12.426 -0.9730 -0.0055  0.0826
10029TIP3    H251579   5.506   2.855  12.306 -1.1194  1.1273 -0.5154
10030TIP3   OH251580   3.439   1.959  15.895 -0.0287 -0.1438 -0.3221
10030TIP3    H151581   3.408   1.868  15.899  0.6945 -0.4230 -0.8672
10030TIP3    H251582   3.369   2.006  15.850 -0.0178 -0.6058 -0.8253
10031TIP3   OH251583   2.901   4.946   5.981 -0.3215  0.0453  1.5924
10031TIP3    H151584   2.981   4.992   5.954  0.8028 -2.2440  0.7983
10031TIP3    H251585   2.836   4.971   5.915 -0.2354  1.6861  2.0704
10032TIP3   OH251586   0.858   1.655  13.423  1.1042 -0.3590  0.2516
10032TIP3    H151587   0.817   1.571  13.446 -0.3940  0.5558  1.0166
10032TIP3    H251588   0.947   1.648  13.459 -0.2709 -0.0599  4.0818
10033TIP3   OH251589   4.736   2.727   3.671 -0.1304  0.1154  0.3818
10033TIP3    H151590   4.771   2.783   3.601  0.1482 -0.6794 -0.1225
10033TIP3    H251591   4.645   2.712   3.646  0.3706 -1.4233 -0.6502
10034TIP3   OH251592   0.679   2.508   2.061  0.3731  0.0488  0.2074
10034TIP3    H151593   0.727   2.590   2.063 -0.3959  0.5005  0.4210
10034TIP3    H251594   0.629   2.511   1.979 -1.7738  1.0451  1.4815
10035TIP3   OH251595   3.912   4.931   4.580 -0.1761  0.4752  0.1160
10035TIP3    H151596   3.943   5.010   4.624  1.1120  0.4228 -0.6350
10035TIP3    H251597   3.888   4.872   4.650 -0.2826  1.2019  0.7037
10036TIP3   OH251598   4.919   0.371   3.099  0.0870 -0.3013 -0.5068
10036TIP3    H151599   4.916   0.459   3.137 -1.0161 -0.0589 -1.0982
10036TIP3    H251600   4.853   0.321   3.147  0.7560 -0.8395 -0.1256
10037TIP3   OH251601   4.563   4.317   5.480  0.2357  0.4911  0.3856
10037TIP3    H151602   4.563   4.222   5.489 -0.9461  0.2293 -1.7224
10037TIP3    H251603   4.655   4.341   5.473  0.6365 -0.2893  2.2184
10038TIP3   OH251604   5.138   1.045   2.792 -0.0395  0.0519 -0.2497
10038TIP3    H151605   5.193   0.967   2.795 -0.2454 -0.1142 -0.7192
10038TIP3    H251606   5.082   1.032   2.716 -0.9888  0.0392  0.4238
10039TIP3   OH251607   6.684   4.673   1.968  0.4183 -0.2097  0.2504
10039TIP3    H151608   6.779   4.689   1.969  0.6682 -1.5717  0.1699
10039TIP3    H251609   6.673   4.590   2.014 -0.6010 -0.6858 -0.8023
10040TIP3   OH251610   1.422   2.984  16.598  0.6392 -0.3189 -0.0855
10040TIP3    H151611   1.413   2.974  16.503  1.4691 -0.9447 -0.1102
10040TIP3    H251612   1.356   2.924  16.634 -1.6877  1.9744 -0.2208
10041TIP3   OH251613   0.376   0.516  11.930  0.5234 -0.6444  0.2735
10041TIP3    H151614   0.363   0.595  11.982  1.9007  0.1623 -0.5548
10041TIP3    H251615   0.356   0.543  11.840  0.1907 -1.4668  0.0917
10042TIP3   OH251616   6.227   2.317   5.128 -0.4571 -0.0405 -0.0612
10042TIP3    H151617   6.156   2.327   5.065 -0.4380  0.3219 -0.0281
10042TIP3    H251618   6.300   2.281   5.077 -0.3219  0.6010 -0.3323
10043TIP3   OH251619   5.722   1.330  11.619 -0.1022 -0.3585  0.5789
10043TIP3    H151620   5.785   1.381  11.569 -1.3032  0.1043 -0.4970
10043TIP3    H251621   5.729   1.364  11.709 -0.2187  1.0653  0.0705
10044TIP3   OH251622   0.367   3.379   1.532 -0.3168  0.0382  0.0603
10044TIP3    H151623   0.393   3.289   1.549 -0.9559 -0.4770 -1.5596
10044TIP3    H251624   0.447   3.430   1.544  0.5264 -0.9989 -0.9324
10045TIP3   OH251625   6.051   4.913  13.427 -0.4251  0.2404 -0.7449
10045TIP3    H151626   5.988   4.956  13.485 -0.0807  0.2835 -0.3979
10045TIP3    H251627   6.008   4.832  13.400 -0.6349  0.2769 -0.5227
10046TIP3   OH251628   2.493   2.540   3.413 -0.9249  0.3430 -0.3216
10046TIP3    H151629   2.574   2.489   3.413 -0.9798  0.2455 -1.0683
10046TIP3    H251630   2.455   2.524   3.500  0.0942  0.7985  0.2309
10047TIP3   OH251631   4.045   4.839  11.021  0.3091 -0.0252  0.1876
10047TIP3    H151632   4.079   4.759  11.061  0.9828  0.1000 -0.1027
10047TIP3    H251633   3.951   4.838  11.038  0.6379  0.2591  2.1852
10048TIP3   OH251634   1.335   5.380   5.914  0.9798  0.0999  0.0480
10048TIP3    H151635   1.270   5.379   5.844  0.4987  2.6141  0.3858
10048TIP3    H251636   1.341   5.288   5.942 -2.5144 -0.2485  0.0798
10049TIP3   OH251637   4.866   2.859  10.709  0.0629 -0.1749 -0.2561
10049TIP3    H151638   4.832   2.803  10.639 -0.5852  3.5381 -3.2027
10049TIP3    H251639   4.791   2.911  10.737  0.9713  0.3929  1.2030
10050TIP3   OH251640   3.810   0.871  15.603 -0.2064  0.2542  0.1442
10050TIP3    H151641   3.731   0.871  15.549  1.0675 -1.8914 -1.9297
10050TIP3    H251642   3.882   0.867  15.540  1.5718  1.3171  1.9784
10051TIP3   OH251643   4.787   0.939  17.004  0.0609  0.0483  0.3921
10051TIP3    H151644   4.881   0.923  16.994  0.3595  0.5975  1.9256
10051TIP3    H251645   4.746   0.859  16.975  1.0684 -0.5430  0.5336
10052TIP3   OH251646   3.394   2.480   1.079 -0.8751  0.0546  0.2012
10052TIP3    H151647   3.331   2.429   1.027 -0.4299 -0.1100 -0.1810
10052TIP3    H251648   3.382   2.447   1.168  0.1755 -1.5302 -0.2099
10053TIP3   OH251649   1.197   3.450   0.052 -0.4346  0.2415  0.4687
10053TIP3    H151650   1.200   3.544   0.032 -2.1368  0.5731  1.4928
10053TIP3    H251651   1.123   3.417   0.002  0.5921 -0.7441 -0.4485
10054TIP3   OH251652   4.769   4.110  15.586 -0.6981 -0.0884 -0.6661
10054TIP3    H151653   4.755   4.081  15.495  0.1455  3.8093 -2.2505
10054TIP3    H251654   4.687   4.152  15.610 -0.7895 -0.7856  0.2780
10055TIP3   OH251655   2.004   0.301  13.611 -0.5147  0.2343  0.2577
10055TIP3    H151656   1.988   0.378  13.556  0.7536 -1.1896 -2.2910
10055TIP3    H251657   1.920   0.256  13.613 -0.6198  0.3804 -0.4509
10056TIP3   OH251658   2.471   2.164   1.775  0.5238  0.1170  0.2798
10056TIP3    H151659   2.442   2.170   1.684  1.5135 -1.3079 -0.1703
10056TIP3    H251660   2.565   2.150   1.770  0.6648  0.4196  1.5477
10057TIP3   OH251661   6.363   2.199   3.683 -0.3784  0.3120 -0.4451
10057TIP3    H151662   6.427   2.167   3.746  0.6845  1.6803 -0.7865
10057TIP3    H251663   6.355   2.128   3.619 -0.8497 -0.7427  0.7556
10058TIP3   OH251664   0.766   4.872   2.141  0.3676 -0.5250  0.3481
10058TIP3    H151665   0.748   4.833   2.227 -2.3900  0.4946  0.3546
10058TIP3    H251666   0.703   4.829   2.082 -1.2743  2.1838 -0.0734
10059TIP3   OH251667   1.843   4.127   0.726  0.6075  0.0809  0.2096
10059TIP3    H151668   1.786   4.182   0.779  1.7957  0.3357  1.2516
10059TIP3    H251669   1.782   4.077   0.670 -0.5026  3.1307 -1.5615
10060TIP3   OH251670   4.117   1.556  10.315 -0.2981  0.3598  0.1888
10060TIP3    H151671   4.088   1.579  10.226  1.6494 -0.7848 -0.8181
10060TIP3    H251672   4.077   1.471  10.332 -0.8077  0.6553  0.5055
10061TIP3   OH251673   2.812   6.042  13.455 -0.3668 -0.0625  0.1122
10061TIP3    H151674   2.876   5.973  13.476  1.4508  1.1273 -1.2752
10061TIP3    H251675   2.776   6.067  13.540 -0.1120 -1.7885  0.7774
10062TIP3   OH251676   4.407   5.431   2.753  0.0850 -0.4050  0.0879
10062TIP3    H151677   4.329   5.421   2.808  0.9382 -0.5268  1.3104
10062TIP3    H251678   4.433   5.522   2.766  1.6169 -1.0250  1.7719
10063TIP3   OH251679   5.064   5.330  15.828 -0.3365 -0.1000 -0.1046
10063TIP3    H151680   4.975   5.326  15.793 -0.0689  0.1123 -0.8061
10063TIP3    H251681   5.090   5.238  15.839  0.4350 -0.2456 -2.6602
10064TIP3   OH251682   1.327   6.788  11.159  0.2332 -0.5716 -0.2262
10064TIP3    H151683   1.384   6.859  11.128  1.2260 -1.6766 -1.0561
10064TIP3    H251684   1.249   6.832  11.191 -0.1570  0.8062 -2.7973
10065TIP3   OH251685   2.334   1.788  15.899 -0.0937 -0.4133 -0.3129
10065TIP3    H151686   2.313   1.695  15.905 -1.5245 -0.0389  1.2232
10065TIP3    H251687   2.252   1.833  15.920  1.0565  1.1791  1.1016
10066TIP3   OH251688   1.144   4.334   1.203  0.2776 -0.1227  0.0045
10066TIP3    H151689   1.150   4.239   1.195  1.6512 -0.1144  0.5487
10066TIP3    H251690   1.051   4.353   1.205 -0.0102 -1.4516 -0.2082
10067TIP3   OH251691   0.944   1.584  10.384  0.4088  0.4096 -1.0691
10067TIP3    H151692   0.935   1.676  10.359  0.9660  1.0544  0.8925
10067TIP3    H251693   1.037   1.564  10.370  0.6852  0.7222  0.1988
10068TIP3   OH251694   3.750   1.157  12.094 -0.0326  0.0329  0.1147
10068TIP3    H151695   3.820   1.212  12.130  1.0032 -1.9208  1.2220
10068TIP3    H251696   3.689   1.144  12.166 -0.6995  0.3692 -0.3755
10069TIP3   OH251697   1.998   6.673   2.785  0.0860 -0.3893  0.3155
10069TIP3    H151698   1.973   6.763   2.804  0.5400 -0.0514 -0.6135
10069TIP3    H251699   1.953   6.621   2.851 -0.2074  0.5131  0.8419
10070TIP3   OH251700   4.489   6.782  15.250  0.2518 -0.0249 -0.3655
10070TIP3    H151701   4.433   6.834  15.308  0.7840  0.6163 -0.4075
10070TIP3    H251702   4.569   6.835  15.240  0.0649  0.0259 -1.9142
10071TIP3   OH251703   0.264   2.515  11.538 -0.5194  0.1163  0.6231
10071TIP3    H151704   0.204   2.562  11.480 -0.8621  0.4477  1.2337
10071TIP3    H251705   0.241   2.423  11.527 -1.0617  0.2316  0.7589
10072TIP3   OH251706   0.438   2.234  15.021  0.1363  0.0698  0.4716
10072TIP3    H151707   0.501   2.169  15.050 -0.1642  0.3963  1.9407
10072TIP3    H251708   0.383   2.188  14.957  0.1995 -0.9842  1.1625
10073TIP3   OH251709   1.606   4.670   3.148 -0.0233  0.0289  0.0359
10073TIP3    H151710   1.667   4.602   3.120  1.9085  0.7799  2.1515
10073TIP3    H251711   1.660   4.749   3.155 -1.3342  0.8400  1.5490
10074TIP3   OH251712   6.041   2.516   4.594 -0.5636 -0.5626 -0.4090
10074TIP3    H151713   6.128   2.554   4.598  0.6402 -3.1673  3.0880
10074TIP3    H251714   5.989   2.567   4.656 -0.6964 -0.8498 -0.2817
10075TIP3   OH251715   0.907   4.576   2.051  0.0593 -0.0502 -0.2513
10075TIP3    H151716   0.923   4.516   2.124 -0.0899 -0.3530 -0.4621
10075TIP3    H251717   0.984   4.632   2.048  0.0943 -0.0807  0.0966
10076TIP3   OH251718   4.692   1.513  13.382 -0.1408  0.5571 -0.0171
10076TIP3    H151719   4.626   1.560  13.330  0.7276  0.5441 -1.1823
10076TIP3    H251720   4.663   1.422  13.381 -0.9600  0.7943  0.8636
10077TIP3   OH251721   0.486   6.547   2.587 -0.2122  0.1258  0.1342
10077TIP3    H151722   0.571   6.514   2.557 -0.5347 -2.0658  1.4019
10077TIP3    H251723   0.422   6.490   2.543 -0.8357 -0.5970  1.8906
10078TIP3   OH251724   0.298   3.157   1.198 -0.2878  0.2450  0.7643
10078TIP3    H151725   0.384   3.161   1.156  0.4571  0.1597  2.1937
10078TIP3    H251726   0.297   3.071   1.241 -0.1065  1.1425  2.6640
10079TIP3   OH251727   3.961   3.155   2.431  0.2519 -0.1198  0.1781
10079TIP3    H151728   3.889   3.200   2.388  0.6060 -0.0414 -0.3426
10079TIP3    H251729   3.934   3.064   2.437 -0.6491  0.2051  1.6079
10080TIP3   OH251730   4.623   5.115  14.093  0.0040 -0.2453 -0.3552
10080TIP3    H151731   4.559   5.174  14.053  0.4813  0.8667  0.4642
10080TIP3    H251732   4.690   5.173  14.130  0.0583 -1.2514  1.2310
10081TIP3   OH251733   0.371   0.841  14.165  0.4686  0.2147  0.0251
10081TIP3    H151734   0.464   0.861  14.152  0.3547 -0.4220 -2.3023
10081TIP3    H251735   0.326   0.904  14.109 -0.1929 -2.2905 -2.4958
10082TIP3   OH251736   5.674   6.419   1.319 -0.1934  0.1863  0.3298
10082TIP3    H151737   5.610   6.377   1.376  1.1994 -0.7460  1.2565
10082TIP3    H251738   5.732   6.348   1.292 -0.4459  0.7178 -1.7903
10083TIP3   OH251739   2.956   2.044   2.683  0.0547  0.1925  0.2850
10083TIP3    H151740   2.928   2.099   2.610 -0.5026 -1.1228 -0.5137
10083TIP3    H251741   3.036   2.087   2.715  0.6757  0.4556 -1.5055
10084TIP3   OH251742   3.117   0.458  10.866  0.8540  0.1725  0.1003
10084TIP3    H151743   3.052   0.439  10.798  1.8245 -1.1850 -0.4902
10084TIP3    H251744   3.183   0.389  10.857  1.1739  0.1176  2.2310
10085TIP3   OH251745   3.664   3.044   0.543 -0.0277  0.1673 -0.2578
10085TIP3    H151746   3.720   3.009   0.474  0.4627 -0.5336  0.4812
10085TIP3    H251747   3.649   3.135   0.518  2.7277  0.8711  0.2909
10086TIP3   OH251748   6.560   0.388  15.341 -0.6647 -0.1000  0.0031
10086TIP3    H151749   6.479   0.422  15.380 -1.2069  1.6587 -2.4138
10086TIP3    H251750   6.575   0.304  15.385 -2.8556  0.3349  1.7251
10087TIP3   OH251751   2.540   0.642  13.808 -0.1104  0.6340  0.1086
10087TIP3    H151752   2.573   0.598  13.729 -0.2179  2.2971 -0.9203
10087TIP3    H251753   2.468   0.587  13.838 -0.7426  0.4750 -1.5672
10088TIP3   OH251754   2.442   4.878  12.395 -0.3171 -0.4375  0.2120
10088TIP3    H151755   2.366   4.851  12.344  0.1095 -1.1265 -0.0748
10088TIP3    H251756   2.407   4.896  12.483 -0.6395 -1.9686  0.4382
10089TIP3   OH251757   1.229   4.767   4.516 -0.1533 -0.0247  0.2526
10089TIP3    H151758   1.184   4.833   4.569 -1.9329 -0.5583 -0.5105
10089TIP3    H251759   1.217   4.797   4.426 -0.5265 -1.1190 -0.0662
10090TIP3   OH251760   5.013   4.974  13.914 -0.2387  0.1801 -0.0132
10090TIP3    H151761   5.000   5.016  13.829  2.7658  1.0038 -0.1759
10090TIP3    H251762   5.053   5.042  13.969  0.0300 -1.0046  1.3335
10091TIP3   OH251763   1.508   3.120   4.012 -0.1586  0.2073 -0.4170
10091TIP3    H151764   1.521   3.026   4.027  0.7689  0.6072  1.7914
10091TIP3    H251765   1.527   3.133   3.920  1.9173 -1.4647 -0.2927
10092TIP3   OH251766   6.024   5.341   4.162  0.2165  0.3082 -0.2144
10092TIP3    H151767   6.056   5.395   4.090 -0.7178  0.7110 -0.3386
10092TIP3    H251768   6.068   5.376   4.240  0.5903  0.4042 -0.4636
10093TIP3   OH251769   4.387   1.645  10.365 -0.5827 -0.0144  0.5091
10093TIP3    H151770   4.373   1.706  10.437  0.5399 -0.2686  0.9640
10093TIP3    H251771   4.300   1.609  10.347 -0.6146 -1.5445  3.1850
10094TIP3   OH251772   6.529   3.275  17.035 -0.2365  0.0219 -0.2614
10094TIP3    H151773   6.455   3.243  17.087  0.2380 -1.5890 -0.5354
10094TIP3    H251774   6.596   3.208  17.044  0.8414  0.9968 -0.8025
10095TIP3   OH251775   0.295   5.935   3.984 -0.1703  0.0557 -0.3322
10095TIP3    H151776   0.390   5.929   3.989 -0.1954  0.3247  0.7350
10095TIP3    H251777   0.264   5.878   4.054 -0.7064  2.3010  1.3828
10096TIP3   OH251778   3.485   5.345  13.167  0.0021 -0.3007 -0.6210
10096TIP3    H151779   3.428   5.372  13.239 -1.5764  0.4277 -2.0710
10096TIP3    H251780   3.463   5.253  13.153 -1.2380  0.0832 -1.4595
10097TIP3   OH251781   3.951   6.442  11.516  0.3493  0.4863  0.1364
10097TIP3    H151782   4.028   6.421  11.463 -0.0350 -0.0221 -0.2417
10097TIP3    H251783   3.911   6.357  11.534  0.8167  0.6025  1.7938
10098TIP3   OH251784   4.815   2.156   1.114  0.0865 -0.0553  0.0545
10098TIP3    H151785   4.753   2.084   1.098 -1.4444  0.7777  1.8493
10098TIP3    H251786   4.873   2.123   1.182  1.3803 -0.6585 -1.2896
10099TIP3   OH251787   4.085   5.027   3.852 -0.5771  0.3014  0.3667
10099TIP3    H151788   4.040   4.946   3.877  2.2222 -1.5021  0.0715
10099TIP3    H251789   4.111   5.013   3.761  0.4532  1.2427  0.4935
10100TIP3   OH251790   1.024   5.748  13.666  1.1791  0.0462  0.1463
10100TIP3    H151791   1.118   5.739  13.651  1.6046  0.6482  2.1238
10100TIP3    H251792   1.016   5.827  13.719 -0.5941  0.7660 -1.0872
10101TIP3   OH251793   2.368   2.095  11.093 -0.0018  0.9133  0.2538
10101TIP3    H151794   2.457   2.097  11.060  0.5568  0.2267  1.6160
10101TIP3    H251795   2.375   2.128  11.183 -1.0138  0.2774  0.5856
10102TIP3   OH251796   0.747   1.007  13.294  0.4243 -0.2351  0.6265
10102TIP3    H151797   0.717   0.951  13.223 -0.4422  0.2218  0.6153
10102TIP3    H251798   0.800   0.950  13.350  0.4419 -0.7899  0.0430
10103TIP3   OH251799   4.670   0.692  16.259  0.4205 -0.3344 -0.1452
10103TIP3    H151800   4.722   0.765  16.292  0.9051 -0.9229  0.4205
10103TIP3    H251801   4.620   0.661  16.335  0.7123 -0.9998 -0.2100
10104TIP3   OH251802   0.648   5.946   6.198  0.2256 -0.3766 -0.1563
10104TIP3    H151803   0.560   5.937   6.161  0.0246  0.8555 -0.0302
10104TIP3    H251804   0.702   5.889   6.143 -0.7381 -1.6547  0.1664
10105TIP3   OH251805   0.137   2.990  15.733  0.1616 -0.1376  0.3784
10105TIP3    H151806   0.108   3.073  15.697 -0.2536 -0.4857 -0.1120
10105TIP3    H251807   0.073   2.926  15.701  0.6094 -0.6825  0.5438
10106TIP3   OH251808   3.043   2.742   5.255 -0.1225 -0.2324  0.0501
10106TIP3    H151809   3.058   2.716   5.346 -2.4216 -3.9948 -0.4316
10106TIP3    H251810   2.964   2.796   5.258  0.0691  0.0300  0.3440
10107TIP3   OH251811   0.678   5.500   2.573 -0.3068 -0.7374 -0.1167
10107TIP3    H151812   0.624   5.536   2.504 -0.0875  3.0375  1.4498
10107TIP3    H251813   0.766   5.533   2.556  0.4812 -2.5108  0.2066
10108TIP3   OH251814   5.836   0.946   5.349  0.0817  0.5138  0.4626
10108TIP3    H151815   5.871   1.033   5.328 -1.9591  0.9844 -1.2972
10108TIP3    H251816   5.875   0.888   5.284  0.3745  0.3487  0.7803
10109TIP3   OH251817   4.212   6.042   0.088 -0.4992 -0.4834  0.0743
10109TIP3    H151818   4.122   6.068   0.069  0.0143 -0.5199 -2.7373
10109TIP3    H251819   4.265   6.115   0.054  0.5948 -1.2672  0.0683
10110TIP3   OH251820   1.259   3.415  13.093  0.1525 -0.2849 -0.1905
10110TIP3    H151821   1.309   3.403  13.013  0.7127 -0.9981  0.2556
10110TIP3    H251822   1.184   3.356  13.083 -1.6272  1.9929 -1.6110
10111TIP3   OH251823   2.208   0.903  16.920 -0.9583  0.6936  0.3450
10111TIP3    H151824   2.120   0.941  16.922 -1.0683  0.8119 -2.4701
10111TIP3    H251825   2.256   0.958  16.858 -0.1528 -1.7755 -1.3606
10112TIP3   OH251826   2.913   1.414  12.690 -0.4990 -0.9917  0.3108
10112TIP3    H151827   2.821   1.401  12.669 -0.2179 -1.7428 -0.4855
10112TIP3    H251828   2.935   1.340  12.747  0.2523 -2.3110 -1.5809
10113TIP3   OH251829   5.541   6.185  12.811  0.1409 -0.0238  0.7557
10113TIP3    H151830   5.545   6.277  12.834 -1.5500  0.2885 -0.0631
10113TIP3    H251831   5.448   6.167  12.798  0.5396 -1.4924 -0.4309
10114TIP3   OH251832   3.303   2.307   5.060 -0.1840 -0.1530 -0.0933
10114TIP3    H151833   3.252   2.233   5.093 -4.2505  1.9942 -0.8737
10114TIP3    H251834   3.269   2.383   5.108  1.2864  1.6999 -1.8027
10115TIP3   OH251835   5.764   0.962  15.102  0.2797 -0.2854  0.2807
10115TIP3    H151836   5.753   1.033  15.165 -0.9417 -0.2259  0.0288
10115TIP3    H251837   5.714   0.991  15.025  0.9363 -0.7925 -0.3561
10116TIP3   OH251838   2.049   3.832   2.850  0.2201  0.2576  0.6967
10116TIP3    H151839   2.125   3.889   2.859  1.1545 -0.6115 -0.9838
10116TIP3    H251840   2.086   3.750   2.816 -1.6085  0.3558 -1.8224
10117TIP3   OH251841   6.171   6.661  16.672  0.5406  0.0356  0.8314
10117TIP3    H151842   6.224   6.592  16.631  1.8611  1.9302 -0.8217
10117TIP3    H251843   6.227   6.696  16.741 -0.3352 -0.8265  2.0264
10118TIP3   OH251844   4.781   2.190  11.994  0.1319 -0.1226  0.6230
10118TIP3    H151845   4.692   2.161  11.971  0.9686 -1.1915 -1.6011
10118TIP3    H251846   4.837   2.115  11.973  1.7631  1.1834  0.0515
10119TIP3   OH251847   1.900   3.670   2.312  0.6260  0.8309 -0.5829
10119TIP3    H151848   1.910   3.705   2.401  0.8001  0.1136 -0.3108
10119TIP3    H251849   1.987   3.635   2.291  0.7023  1.3838 -1.2092
10120TIP3   OH251850   3.301   2.343  12.600  0.1544 -0.4848 -0.0722
10120TIP3    H151851   3.261   2.417  12.553 -0.6787 -0.1467  1.1099
10120TIP3    H251852   3.351   2.296  12.533 -1.5012 -0.3992 -1.4374
10121TIP3   OH251853   5.793   3.836  15.631 -0.5725 -0.2993 -0.2251
10121TIP3    H151854   5.836   3.881  15.704 -0.4765 -2.0061  0.8283
10121TIP3    H251855   5.754   3.906  15.579 -0.0961  1.0102  1.1104
10122TIP3   OH251856   1.363   3.610   6.794  0.8540 -0.0954  0.1180
10122TIP3    H151857   1.407   3.565   6.721 -0.1449 -0.9592  0.0156
10122TIP3    H251858   1.316   3.540   6.839 -1.0547  0.8737 -0.2474
10123TIP3   OH251859   5.202   5.547   5.023  0.0388  0.2156  0.0788
10123TIP3    H151860   5.203   5.516   5.113  0.3889 -0.4719 -0.1503
10123TIP3    H251861   5.245   5.477   4.973  0.2526  0.7839 -0.5543
10124TIP3   OH251862   4.602   6.341  15.644 -0.2062  0.0891  0.0267
10124TIP3    H151863   4.606   6.363  15.551  1.8884  0.6882  0.2000
10124TIP3    H251864   4.631   6.250  15.649  3.6943  1.1229  0.2885
10125TIP3   OH251865   2.892   4.594   3.279  0.1714  0.3734  0.2848
10125TIP3    H151866   2.919   4.528   3.216  2.0341 -0.5092  1.8965
10125TIP3    H251867   2.865   4.669   3.226 -0.0530 -0.9553 -1.5458
10126TIP3   OH251868   1.292   5.924   3.008 -0.0040  0.6480  0.3055
10126TIP3    H151869   1.278   5.884   3.093 -1.3031  2.2897  0.9064
10126TIP3    H251870   1.205   5.928   2.968  0.0556  2.8875  0.3113
10127TIP3   OH251871   0.069   2.861   1.943 -0.0561  0.3281 -0.1032
10127TIP3    H151872  -0.019   2.884   1.915  0.3423 -0.1734 -1.8943
10127TIP3    H251873   0.074   2.890   2.034 -1.4965  1.8679 -0.4799
10128TIP3   OH251874   6.481   1.503   3.405  0.7407 -0.1532  0.3080
10128TIP3    H151875   6.523   1.553   3.334  1.2552 -0.3120  0.4934
10128TIP3    H251876   6.430   1.436   3.360  0.2104  0.4053  0.0621
10129TIP3   OH251877   6.752   6.617   0.588  0.0715  0.0224  0.0142
10129TIP3    H151878   6.841   6.619   0.552  0.6013 -0.6477  1.2136
10129TIP3    H251879   6.733   6.709   0.608  0.5711  0.1495 -0.0580
10130TIP3   OH251880   4.325   2.494   3.226  0.1592 -0.2377 -0.7989
10130TIP3    H151881   4.317   2.481   3.320 -1.2580 -0.9393 -0.9924
10130TIP3    H251882   4.419   2.482   3.208  0.6597  1.0920  0.6589
10131TIP3   OH251883   5.616   0.120  12.712 -0.7463 -0.1646 -0.5068
10131TIP3    H151884   5.564   0.130  12.632 -0.0407 -0.7920 -1.0613
10131TIP3    H251885   5.706   0.134  12.684 -0.5580  0.3875  0.3450
10132TIP3   OH251886   6.145   1.896   6.341  0.4892 -0.2283  0.1790
10132TIP3    H151887   6.057   1.860   6.351  0.4011  0.4801  2.7055
10132TIP3    H251888   6.135   1.989   6.359  1.5622  0.1151 -0.8710
10133TIP3   OH251889   3.944   3.649   2.107 -0.1071 -0.1713  0.5634
10133TIP3    H151890   3.929   3.557   2.086 -0.0014  0.0566 -0.5748
10133TIP3    H251891   4.003   3.647   2.182  0.7364 -1.0454 -0.0876
10134TIP3   OH251892   0.696   6.382  13.691 -0.0215 -0.0369 -0.2243
10134TIP3    H151893   0.747   6.459  13.717  1.4210  0.6362 -4.2736
10134TIP3    H251894   0.606   6.407  13.708  0.5803  1.2141  1.4895
10135TIP3   OH251895   3.351   3.719  14.067  0.0976 -0.1799  0.2104
10135TIP3    H151896   3.319   3.672  13.991 -1.2670  3.2887 -1.5575
10135TIP3    H251897   3.286   3.702  14.135 -2.8468  2.4678 -1.7277
10136TIP3   OH251898   4.387   1.492  14.188  0.0487  0.1185  0.3846
10136TIP3    H151899   4.379   1.456  14.277  0.9062  0.0840  0.4605
10136TIP3    H251900   4.463   1.549  14.192  0.5079 -0.4018 -0.4909
10137TIP3   OH251901   2.429   0.788   6.004 -0.5302 -0.1982 -0.2361
10137TIP3    H151902   2.496   0.757   6.064  0.9212 -0.9689 -2.1400
10137TIP3    H251903   2.478   0.818   5.927 -2.0297  4.0326  0.1910
10138TIP3   OH251904   0.222   5.921   2.170 -0.2075  0.1954 -0.3440
10138TIP3    H151905   0.145   5.925   2.228  0.8470 -1.3235  1.2370
10138TIP3    H251906   0.185   5.905   2.083 -1.6534 -1.8974  0.5857
10139TIP3   OH251907   4.364   2.692   4.043 -0.8620 -0.3619 -0.1945
10139TIP3    H151908   4.443   2.647   4.073 -1.3789 -0.8652  0.4417
10139TIP3    H251909   4.333   2.640   3.969 -0.4816 -0.0343 -0.5926
10140TIP3   OH251910   0.367   1.866   2.539  0.1333  0.1565  0.1260
10140TIP3    H151911   0.365   1.801   2.468  0.5330  0.0019  0.2504
10140TIP3    H251912   0.368   1.950   2.494 -2.1904  0.1672 -0.0322
10141TIP3   OH251913   2.039   0.758   0.821 -0.4230  0.4515 -0.3685
10141TIP3    H151914   2.020   0.721   0.907  0.2460  0.2599 -0.2978
10141TIP3    H251915   2.113   0.817   0.835  1.2195 -1.2749 -1.1656
10142TIP3   OH251916   4.100   0.518  16.228 -0.0510 -0.2610  0.2779
10142TIP3    H151917   4.054   0.588  16.182 -1.3369 -0.3950  1.3241
10142TIP3    H251918   4.059   0.437  16.198 -0.1347 -0.4161  0.7883
10143TIP3   OH251919   5.445   0.682   4.379  0.2065  0.4446 -0.6009
10143TIP3    H151920   5.376   0.650   4.437  0.9621  0.8773  0.5893
10143TIP3    H251921   5.524   0.681   4.434  1.0037  0.6151 -1.7167
10144TIP3   OH251922   4.777   0.322   1.096  0.2530 -0.6905  0.3276
10144TIP3    H151923   4.821   0.328   1.012  0.0616 -0.9641  0.2033
10144TIP3    H251924   4.783   0.409   1.134 -1.4036  0.0001 -0.8590
10145TIP3   OH251925   5.964   6.552   3.520 -0.4267  0.7881  0.4119
10145TIP3    H151926   5.953   6.486   3.452  1.1952 -0.1214  0.9689
10145TIP3    H251927   5.972   6.501   3.601  1.2860  1.6201  0.8058
10146TIP3   OH251928   6.386   3.202   3.684  0.2242  0.6168 -0.3354
10146TIP3    H151929   6.345   3.160   3.759 -0.3856  1.2332 -0.3116
10146TIP3    H251930   6.444   3.268   3.722  0.7966  0.1501 -0.3848
10147TIP3   OH251931   0.097   1.601   5.897 -0.5035  0.3042 -0.3088
10147TIP3    H151932   0.016   1.555   5.920 -0.8143  0.3313 -1.2994
10147TIP3    H251933   0.079   1.640   5.811 -0.0606  1.8623  0.2918
10148TIP3   OH251934   5.518   3.342  16.058 -0.9738 -0.1087  0.2933
10148TIP3    H151935   5.563   3.426  16.046 -1.7272  0.3041  0.3146
10148TIP3    H251936   5.583   3.277  16.033 -0.9993  0.5433 -1.6559
10149TIP3   OH251937   4.238   0.894   6.111  0.0477  0.5063  0.0064
10149TIP3    H151938   4.187   0.965   6.151 -0.9089 -0.2230  0.0994
10149TIP3    H251939   4.213   0.816   6.160  1.5870  0.1832  0.3469
10150TIP3   OH251940   4.901   2.544   4.546  0.0495 -0.0748 -0.6351
10150TIP3    H151941   4.930   2.594   4.622  1.2192 -1.7213  0.0854
10150TIP3    H251942   4.953   2.579   4.473 -0.5129  0.9864 -0.5401
10151TIP3   OH251943   4.084   4.207  11.149  0.2152  0.2359 -0.0154
10151TIP3    H151944   4.146   4.248  11.089  0.3409 -1.8679 -1.4382
10151TIP3    H251945   4.125   4.215  11.235  2.1509 -0.4437 -0.8171
10152TIP3   OH251946   4.005   2.954   3.317  1.2790 -0.0350  0.0249
10152TIP3    H151947   3.920   2.991   3.339  0.8927 -0.2146 -1.0757
10152TIP3    H251948   4.049   2.942   3.401  0.2425  0.1158  0.6046
10153TIP3   OH251949   4.048   4.694   3.340  0.6910  0.0554 -0.1253
10153TIP3    H151950   4.085   4.615   3.378  1.5356  0.2087 -0.6126
10153TIP3    H251951   4.123   4.744   3.309  0.1542  0.9292 -0.0706
10154TIP3   OH251952   1.094   5.404  17.091 -0.3113  0.0354  1.0112
10154TIP3    H151953   1.176   5.408  17.042  0.8912  0.0388  2.9460
10154TIP3    H251954   1.054   5.322  17.063  0.8041 -0.4345  0.7404
10155TIP3   OH251955   5.098   3.061  16.392 -0.2034 -0.1492 -0.4701
10155TIP3    H151956   5.069   3.149  16.370 -0.3859 -0.2731 -0.7267
10155TIP3    H251957   5.187   3.055  16.359 -0.7703 -0.6282 -1.9687
10156TIP3   OH251958   1.487   3.168   5.925 -0.4971  0.0784 -0.2926
10156TIP3    H151959   1.552   3.109   5.886  0.2383  0.3051  0.5628
10156TIP3    H251960   1.451   3.118   5.999 -1.1485  0.0394 -0.6292
10157TIP3   OH251961   2.148   3.824   5.273  0.1889  0.0817  0.2287
10157TIP3    H151962   2.200   3.850   5.349  0.3505 -1.8044  0.8231
10157TIP3    H251963   2.057   3.843   5.298  0.3713  1.1581  0.1362
10158TIP3   OH251964   5.650   3.940  13.915 -0.3031  0.1479 -0.3137
10158TIP3    H151965   5.570   3.946  13.968  0.5242 -3.2996  1.6063
10158TIP3    H251966   5.718   3.980  13.969 -0.2290  0.5549 -0.7078
10159TIP3   OH251967   3.249   1.924  13.490 -0.0680 -0.1623  0.7637
10159TIP3    H151968   3.264   1.974  13.570 -0.3575  0.9791  0.1364
10159TIP3    H251969   3.176   1.866  13.510  0.4257 -0.5106  1.5826
10160TIP3   OH251970   5.634   6.634   3.085  0.2080  0.0575  0.0762
10160TIP3    H151971   5.619   6.720   3.124 -0.2304  0.0077  0.0275
10160TIP3    H251972   5.729   6.628   3.076  0.2140  0.7953 -0.5029
10161TIP3   OH251973   2.214   0.819  12.388  0.2404  0.3176 -0.0238
10161TIP3    H151974   2.261   0.843  12.308 -0.1426  0.8286 -0.1032
10161TIP3    H251975   2.224   0.896  12.445  2.6948 -0.9578  1.4668
10162TIP3   OH251976   1.396   6.627   0.236  0.1630  0.1077 -0.2316
10162TIP3    H151977   1.316   6.678   0.239  0.0393 -0.1182  0.3765
10162TIP3    H251978   1.403   6.587   0.322  0.7003 -0.2265 -0.4218
10163TIP3   OH251979   5.651   0.949  10.907 -0.0992  0.0807 -0.6836
10163TIP3    H151980   5.588   0.916  10.971  2.6862  0.8549  2.7666
10163TIP3    H251981   5.638   1.044  10.906 -0.8579  0.0014 -2.2602
10164TIP3   OH251982   5.292   5.024   2.849  0.2938  0.3954 -0.4093
10164TIP3    H151983   5.232   5.047   2.778 -2.3815 -0.6961  1.3399
10164TIP3    H251984   5.373   4.999   2.804 -0.8508  0.9522 -2.9864
10165TIP3   OH251985   6.786   2.802  15.605  0.1938 -0.0482 -0.6411
10165TIP3    H151986   6.714   2.846  15.559  0.4750  1.5551  0.3639
10165TIP3    H251987   6.746   2.766  15.684  0.1617 -0.7467 -0.9687
10166TIP3   OH251988   2.767   2.382   4.368  0.1446  0.3354 -0.2762
10166TIP3    H151989   2.678   2.414   4.388 -0.2494  0.4959 -2.1086
10166TIP3    H251990   2.753   2.294   4.334  0.6357  0.5040 -0.9294
10167TIP3   OH251991   5.276   1.601  17.131 -0.1143  0.2944 -0.0376
10167TIP3    H151992   5.297   1.678  17.183 -0.8546 -0.2681  1.1489
10167TIP3    H251993   5.191   1.572  17.165  1.7691 -3.2071  2.2620
10168TIP3   OH251994   2.492   5.774   3.841 -0.1265 -0.4281  0.3277
10168TIP3    H151995   2.471   5.858   3.880  1.5372  0.9761 -1.6079
10168TIP3    H251996   2.580   5.753   3.872 -0.4820 -1.4353  0.7169
10169TIP3   OH251997   4.376   6.092   2.384 -0.3529  0.1084 -0.4627
10169TIP3    H151998   4.355   6.142   2.463  1.0016 -0.6015  0.3756
10169TIP3    H251999   4.437   6.149   2.336 -1.7105  0.8434 -1.3830
10170TIP3   OH252000   5.741   0.324  16.845  0.8715  0.5016 -0.0225
10170TIP3    H152001   5.794   0.300  16.769  0.7445  0.7351 -0.1872
10170TIP3    H252002   5.686   0.396  16.814  0.6419  0.4321  0.2220
10171TIP3   OH252003   2.759   3.615   5.225  0.8032 -0.6351  0.1258
10171TIP3    H152004   2.678   3.628   5.276  1.5984 -0.9928  1.5334
10171TIP3    H252005   2.733   3.634   5.135 -1.0189 -1.3549  0.4387
10172TIP3   OH252006   1.066   6.182   1.863  0.0362  0.6621  0.0582
10172TIP3    H152007   1.060   6.096   1.905  0.5174 -0.5303 -2.1581
10172TIP3    H252008   1.149   6.218   1.894 -0.0472  0.2415  0.8129
10173TIP3   OH252009   2.344   5.036  11.435 -0.8135  0.4838  0.3887
10173TIP3    H152010   2.382   4.988  11.508  0.6747  0.9885 -0.0326
10173TIP3    H252011   2.380   4.994  11.357 -0.9275  1.1271 -0.0184
10174TIP3   OH252012   5.440   1.161   5.625 -0.5481 -0.2975  0.1949
10174TIP3    H152013   5.395   1.108   5.690 -1.1430 -0.5801 -0.4346
10174TIP3    H252014   5.506   1.103   5.587 -1.4644 -0.7398 -0.7756
10175TIP3   OH252015   5.178   0.827  13.055 -0.1841  0.1828 -0.0146
10175TIP3    H152016   5.207   0.740  13.027 -1.2158  0.0820 -0.8103
10175TIP3    H252017   5.085   0.817  13.075 -0.1263  0.9228  0.7052
10176TIP3   OH252018   1.688   4.579   1.977  0.1329 -0.2163  0.1548
10176TIP3    H152019   1.602   4.551   1.945  1.0353 -2.3201 -0.6353
10176TIP3    H252020   1.750   4.529   1.925  1.9140  2.1077 -0.0808
10177TIP3   OH252021   1.386   2.745  11.531 -0.2804  0.2841  0.2476
10177TIP3    H152022   1.396   2.833  11.494 -0.5951  0.3153  0.2368
10177TIP3    H252023   1.299   2.745  11.570  0.7699  0.9545  2.8443
10178TIP3   OH252024   2.666   0.979   1.903 -0.6963  0.4847  0.3579
10178TIP3    H152025   2.708   0.976   1.989  0.5938 -1.0372 -0.2700
10178TIP3    H252026   2.695   1.062   1.866 -0.9778  0.9936  1.2513
10179TIP3   OH252027   5.117   1.390   0.834 -0.6278 -0.5089  0.2843
10179TIP3    H152028   5.145   1.401   0.743  1.4007  0.0459  0.9166
10179TIP3    H252029   5.022   1.386   0.830 -0.5381 -2.1358 -2.0299
10180TIP3   OH252030   3.923   3.466  17.093 -0.2353  0.8950 -0.1224
10180TIP3    H152031   3.968   3.477  17.009  2.0978  1.1640  1.0607
10180TIP3    H252032   3.895   3.375  17.093  1.5404  0.3059 -0.4242
10181TIP3   OH252033   2.364   6.309   1.268  0.0093 -0.2617  0.1126
10181TIP3    H152034   2.455   6.280   1.256  0.4744  0.7559  1.0073
10181TIP3    H252035   2.363   6.397   1.230 -0.5136 -0.1345  0.4235
10182TIP3   OH252036   4.440   0.883  17.100  0.3140 -0.8923  0.0529
10182TIP3    H152037   4.447   0.944  17.173 -3.2742 -0.5822  0.3648
10182TIP3    H252038   4.433   0.939  17.022 -2.3055 -0.7905  0.2687
10183TIP3   OH252039   5.275   3.125  16.624  0.4794 -0.0949  0.6030
10183TIP3    H152040   5.313   3.037  16.622 -0.8001 -0.6688 -1.0646
10183TIP3    H252041   5.189   3.113  16.663  0.0491  0.2835 -0.2047
10184TIP3   OH252042   3.017   5.776  15.107  0.3267 -0.3514 -0.6325
10184TIP3    H152043   3.077   5.782  15.181  1.5341 -0.4448 -1.5698
10184TIP3    H252044   2.968   5.858  15.109  2.1442  0.8084 -1.2053
10185TIP3   OH252045   0.853   2.825   0.474  0.2355  0.1626 -0.3183
10185TIP3    H152046   0.827   2.912   0.443 -0.5415  0.1826  0.3364
10185TIP3    H252047   0.938   2.838   0.516 -0.6736  0.9805  1.3641
10186TIP3   OH252048   6.029   3.261   0.976  0.0582  0.2718 -0.9512
10186TIP3    H152049   6.036   3.352   1.007 -1.4004  0.0652  0.0878
10186TIP3    H252050   5.938   3.253   0.947  0.7231 -0.3011 -2.9896
10187TIP3   OH252051   1.411   1.753  13.206 -0.5600  0.3484  0.1106
10187TIP3    H152052   1.340   1.712  13.158 -1.0075  0.2086  0.8747
10187TIP3    H252053   1.385   1.845  13.214 -1.3558  0.0147  1.6184
10188TIP3   OH252054   1.331   6.048   1.266 -0.6208 -0.7464 -0.4893
10188TIP3    H152055   1.261   6.071   1.205 -0.4403  2.2338  0.2455
10188TIP3    H252056   1.411   6.067   1.218 -0.4798  1.9611  0.6221
10189TIP3   OH252057   2.037   5.148   5.130 -0.2673 -0.2354 -0.0439
10189TIP3    H152058   2.022   5.086   5.201  0.5570  0.2189  0.5400
10189TIP3    H252059   1.982   5.116   5.058 -0.4425 -1.1918  0.5024
10190TIP3   OH252060   0.189   3.290   1.897  1.0753  0.2287 -0.5769
10190TIP3    H152061   0.144   3.344   1.831  0.2540  0.3036  0.0292
10190TIP3    H252062   0.140   3.306   1.978  0.7360 -1.5194 -0.4043
10191TIP3   OH252063   4.404   5.601  14.125 -0.4918 -0.3484  0.1371
10191TIP3    H152064   4.425   5.636  14.211  0.3579 -0.4420 -0.0178
10191TIP3    H252065   4.325   5.549  14.138 -1.1930  0.8003  0.5658
10192TIP3   OH252066   6.667   3.581  16.989  0.5446  0.0820  0.1976
10192TIP3    H152067   6.702   3.503  17.032  0.4890  0.3589  0.7661
10192TIP3    H252068   6.743   3.638  16.979  0.4060  0.3764  0.7458
10193TIP3   OH252069   4.931   1.264  14.895 -0.6261 -0.3047  0.1892
10193TIP3    H152070   4.992   1.309  14.953 -1.2046  0.0420  0.5281
10193TIP3    H252071   4.910   1.329  14.828 -0.1673 -0.6171 -0.2653
10194TIP3   OH252072   2.457   5.492  12.861  0.3571 -0.0112 -0.1010
10194TIP3    H152073   2.506   5.558  12.909 -0.1167 -0.2755  0.7733
10194TIP3    H252074   2.416   5.439  12.929 -0.9902  0.0977 -0.7894
10195TIP3   OH252075   1.189   6.531   4.058 -0.0407 -0.0156 -0.5626
10195TIP3    H152076   1.249   6.510   4.129 -0.9878 -1.5420 -0.1590
10195TIP3    H252077   1.245   6.543   3.982  0.8064 -2.0756 -0.3439
10196TIP3   OH252078   3.636   0.724  14.590 -0.4336  0.1549  0.0718
10196TIP3    H152079   3.648   0.808  14.635  0.8732 -0.1836  0.4053
10196TIP3    H252080   3.694   0.664  14.637 -1.2833 -0.9170 -0.2198
10197TIP3   OH252081   4.449   0.979  12.402  0.1725  0.2335 -0.0731
10197TIP3    H152082   4.464   0.928  12.322 -0.9033 -1.5839  0.8206
10197TIP3    H252083   4.403   1.057  12.373  1.0550  0.3049 -1.3792
10198TIP3   OH252084   5.255   3.700  13.029  0.0529 -0.2284  0.0202
10198TIP3    H152085   5.318   3.679  13.098  0.3600 -1.8022 -0.6980
10198TIP3    H252086   5.278   3.789  13.003  2.7102 -1.0792 -0.9219
10199TIP3   OH252087   1.450   2.304   1.427  0.3576  0.0099  0.2150
10199TIP3    H152088   1.454   2.283   1.521  0.9229  0.5937  0.3283
10199TIP3    H252089   1.520   2.253   1.388  1.2900  1.1176  0.3889
10200TIP3   OH252090   0.144   6.679   6.061  0.3249 -0.2738 -0.0140
10200TIP3    H152091   0.181   6.755   6.106  0.2278  0.8428 -1.7214
10200TIP3    H252092   0.127   6.710   5.972 -1.0728 -1.8965 -0.3635
10201TIP3   OH252093   0.690   0.568  11.812 -0.0370  0.1091 -0.3755
10201TIP3    H152094   0.596   0.587  11.811  0.0485  0.5330 -0.7856
10201TIP3    H252095   0.695   0.472  11.810 -0.4521  0.0961 -1.2855
10202TIP3   OH252096   4.236   2.737   5.961  0.0802 -0.0850  0.5054
10202TIP3    H152097   4.217   2.790   5.884  0.3372 -0.5846  0.0852
10202TIP3    H252098   4.216   2.793   6.036  1.8454  1.1866  0.0910
10203TIP3   OH252099   4.703   5.175  14.791 -0.3515  0.2385 -0.4746
10203TIP3    H152100   4.755   5.243  14.833 -0.5934  1.6260 -2.3115
10203TIP3    H252101   4.754   5.095  14.804 -0.3515  0.5600  2.2779
10204TIP3   OH252102   2.184   3.775   5.604 -0.1019 -0.0859 -0.1091
10204TIP3    H152103   2.168   3.864   5.634 -0.1761 -0.2685  0.4005
10204TIP3    H252104   2.278   3.771   5.587 -0.1849  0.2467 -0.6547
10205TIP3   OH252105   5.423   1.160  11.165  0.4911 -0.1428 -0.6710
10205TIP3    H152106   5.401   1.212  11.089 -1.2769 -0.1679 -0.2158
10205TIP3    H252107   5.347   1.169  11.223  1.2069 -1.2300  0.4808
10206TIP3   OH252108   4.035   1.701   5.668  0.1207 -0.1137  0.1733
10206TIP3    H152109   4.080   1.685   5.585  1.0651 -1.8123  0.9326
10206TIP3    H252110   4.061   1.790   5.693  1.7587 -0.4329 -0.2427
10207TIP3   OH252111   0.369   1.785  10.911 -0.2236 -0.2119 -0.1667
10207TIP3    H152112   0.449   1.802  10.861 -0.7033  0.8702 -0.6059
10207TIP3    H252113   0.298   1.796  10.847 -0.7429 -0.9125  0.2720
10208TIP3   OH252114   0.037   4.054  13.607  0.3820 -0.0013 -0.0085
10208TIP3    H152115  -0.018   4.105  13.667  1.5504  1.0270  0.2410
10208TIP3    H252116   0.055   3.974  13.655 -1.1324 -0.5134 -0.2288
10209TIP3   OH252117   2.442   4.377  12.131 -0.4368 -0.2368 -0.2822
10209TIP3    H152118   2.451   4.357  12.038 -0.8457 -1.4583 -0.0841
10209TIP3    H252119   2.353   4.413  12.139 -0.1271  0.5768 -0.4712
10210TIP3   OH252120   1.387   2.471   2.199  0.3650  0.9926 -0.2754
10210TIP3    H152121   1.461   2.416   2.172 -2.3281 -2.9302 -0.4983
10210TIP3    H252122   1.343   2.494   2.118 -0.8669 -0.2135  0.0227
10211TIP3   OH252123   0.784   5.458   2.239  0.6581 -0.2814 -0.1158
10211TIP3    H152124   0.710   5.514   2.264 -1.5523 -1.7802 -2.6896
10211TIP3    H252125   0.764   5.374   2.279  0.3861 -0.9572 -1.5959
10212TIP3   OH252126   3.120   4.932   6.326 -0.3615  0.0247  0.4076
10212TIP3    H152127   3.157   4.995   6.264  0.7550  0.4993  1.5083
10212TIP3    H252128   3.026   4.948   6.324 -0.2628  0.4869 -0.6614
10213TIP3   OH252129   5.732   6.520   2.172 -0.6866 -0.0889 -0.2901
10213TIP3    H152130   5.789   6.593   2.148  1.0250 -1.3809 -0.3506
10213TIP3    H252131   5.656   6.561   2.212 -0.0651  1.7467 -0.8990
10214TIP3   OH252132   4.435   5.859   2.071  0.2388  0.5113 -0.3611
10214TIP3    H152133   4.497   5.929   2.093  0.1487  0.8563 -1.1744
10214TIP3    H252134   4.409   5.877   1.980 -0.4172 -0.1087 -0.3070
10215TIP3   OH252135   2.062   5.349   0.171  0.6101  0.4550  0.6938
10215TIP3    H152136   2.142   5.296   0.175  1.3305  1.5002  0.4479
10215TIP3    H252137   2.067   5.406   0.248 -0.7580 -0.6221  1.6372
10216TIP3   OH252138   3.867   3.068   6.233 -0.8667 -0.2661  0.7045
10216TIP3    H152139   3.774   3.046   6.244 -0.7903 -0.8242  0.3077
10216TIP3    H252140   3.906   3.050   6.318 -0.6819 -2.4174  0.2380
10217TIP3   OH252141   2.533   2.925   5.468  0.1039  0.5055 -0.0750
10217TIP3    H152142   2.572   2.988   5.529 -1.5051  1.6678 -0.1810
10217TIP3    H252143   2.486   2.863   5.524 -1.4269  1.6097 -0.0622
10218TIP3   OH252144   2.529   4.875  16.691  0.2414  0.2594 -0.3264
10218TIP3    H152145   2.502   4.887  16.783  1.7036 -3.0472  0.6801
10218TIP3    H252146   2.448   4.883  16.641 -1.0023 -0.0666  1.5265
10219TIP3   OH252147   0.587   0.726  16.480  0.0813 -0.0677 -0.3660
10219TIP3    H152148   0.612   0.816  16.460 -0.3378  0.8415  2.7336
10219TIP3    H252149   0.667   0.687  16.515 -0.2179 -0.3436  0.0054
10220TIP3   OH252150   6.077   0.346  12.365 -0.0658 -0.4873  0.0165
10220TIP3    H152151   6.142   0.343  12.295 -0.1926  0.6570 -0.1665
10220TIP3    H252152   6.012   0.409  12.334  1.2507  2.1979  2.2958
10221TIP3   OH252153   1.473   5.123   0.870 -0.6629 -0.3118  0.0812
10221TIP3    H152154   1.420   5.200   0.894 -0.1064  0.6177 -1.4958
10221TIP3    H252155   1.412   5.050   0.874 -0.8370 -0.1169  3.2185
10222TIP3   OH252156   0.793   5.676  14.326  0.0100  0.3084 -0.1474
10222TIP3    H152157   0.758   5.605  14.381  1.8166  0.0210  0.6810
10222TIP3    H252158   0.801   5.751  14.385  0.8366  0.3487 -0.3034
10223TIP3   OH252159   3.727   6.379  14.477  0.3521  0.1017  0.2031
10223TIP3    H152160   3.802   6.389  14.536 -0.8382  0.9524  1.6560
10223TIP3    H252161   3.753   6.428  14.398  2.0676 -1.2587 -0.1561
10224TIP3   OH252162   6.545   2.442   0.336 -0.0308  0.1614  0.7260
10224TIP3    H152163   6.555   2.439   0.240 -0.5527 -1.5991  0.6918
10224TIP3    H252164   6.482   2.513   0.351 -0.5070 -0.0233 -0.2921
10225TIP3   OH252165   5.119   6.542  14.872  0.3778 -0.2739 -0.1069
10225TIP3    H152166   5.120   6.508  14.961 -2.4583 -0.2296  0.0234
10225TIP3    H252167   5.076   6.474  14.820 -0.4414  0.7823 -0.8853
10226TIP3   OH252168   4.130   3.457  16.843 -0.0596 -0.3420  0.1560
10226TIP3    H152169   4.083   3.535  16.815  0.7557  0.1826  0.2206
10226TIP3    H252170   4.071   3.384  16.822 -0.5728  0.2423 -0.4637
10227TIP3   OH252171   2.335   0.917  15.855  0.1619  0.5686 -0.2166
10227TIP3    H152172   2.413   0.885  15.902  0.8317  2.2107 -0.1243
10227TIP3    H252173   2.333   0.865  15.775 -0.8941 -2.1781  1.4392
10228TIP3   OH252174   5.040   4.456  11.782  0.1450  0.1984 -0.1709
10228TIP3    H152175   5.075   4.501  11.705 -0.9569  0.0805 -0.7663
10228TIP3    H252176   5.013   4.527  11.841  1.0344  0.2885  0.1415
10229TIP3   OH252177   3.268   0.269  15.998  0.8616  0.4043 -0.0848
10229TIP3    H152178   3.288   0.361  16.018  1.7165  0.3023 -0.4405
10229TIP3    H252179   3.196   0.247  16.057 -1.9140  2.3720 -2.4744
10230TIP3   OH252180   4.154   3.396   1.455  0.6916 -0.5417 -0.5121
10230TIP3    H152181   4.193   3.311   1.476  1.5771  0.1653  0.7996
10230TIP3    H252182   4.221   3.440   1.402  0.2389 -0.6318 -1.1772
10231TIP3   OH252183   4.019   0.607  13.513 -0.0284  0.2270  0.0212
10231TIP3    H152184   4.001   0.529  13.567 -1.5614  1.2571  1.0633
10231TIP3    H252185   3.957   0.600  13.440  0.2251  0.1873 -0.1913
10232TIP3   OH252186   2.876   3.214  15.691 -0.4374  0.0258  0.1992
10232TIP3    H152187   2.845   3.267  15.765  0.6089  0.8494  0.0594
10232TIP3    H252188   2.800   3.207  15.633 -0.9754  0.2305  0.8624
10233TIP3   OH252189   1.818   1.319   5.927 -0.1055  0.2131 -0.4194
10233TIP3    H152190   1.857   1.403   5.901 -0.1658  0.0573 -1.0132
10233TIP3    H252191   1.729   1.341   5.953  0.4387  0.6221  1.2362
10234TIP3   OH252192   2.247   2.596  13.593 -0.1094 -0.6332 -0.2808
10234TIP3    H152193   2.324   2.651  13.580 -1.1055  0.4847 -1.7751
10234TIP3    H252194   2.279   2.506  13.578  1.1056 -0.2867  0.1605
10235TIP3   OH252195   3.073   0.641  14.947  0.1726 -0.0724 -0.2162
10235TIP3    H152196   3.146   0.645  15.008  0.2436 -1.1700 -0.2076
10235TIP3    H252197   3.025   0.562  14.971 -0.0880 -0.2517 -1.2526
10236TIP3   OH252198   1.604   3.499  12.671  0.0296 -0.0898 -0.4198
10236TIP3    H152199   1.577   3.496  12.763  0.7749 -0.0026 -0.1890
10236TIP3    H252200   1.524   3.482  12.622 -0.5650  0.7814  0.2163
10237TIP3   OH252201   6.290   5.824   1.874 -0.3500 -0.5658 -0.3731
10237TIP3    H152202   6.314   5.763   1.944  0.0141 -1.7459 -1.4828
10237TIP3    H252203   6.301   5.910   1.913  0.9280 -1.1715  0.6986
10238TIP3   OH252204   6.425   4.753  15.927  0.0990  0.0198  0.5043
10238TIP3    H152205   6.422   4.792  16.014 -1.8971  0.7620  0.1435
10238TIP3    H252206   6.474   4.672  15.939 -0.3453 -0.0149  2.3754
10239TIP3   OH252207   2.446   2.316   6.828 -0.4664  0.1962  0.0583
10239TIP3    H152208   2.369   2.317   6.773  0.1149 -0.3575 -0.7860
10239TIP3    H252209   2.474   2.408   6.833  0.4254  0.0704 -1.9487
10240TIP3   OH252210   3.911   6.620  13.901  0.3712 -0.2139  0.7464
10240TIP3    H152211   3.944   6.602  13.989 -1.5929 -1.7977  1.2236
10240TIP3    H252212   3.816   6.611  13.908  0.0947  0.4384 -1.3783
10241TIP3   OH252213   3.562   5.698  14.507  0.3799  0.0605 -0.3422
10241TIP3    H152214   3.498   5.682  14.577  1.8231  1.6848  1.4868
10241TIP3    H252215   3.614   5.772  14.539 -0.2724  2.4254 -4.1433
10242TIP3   OH252216   6.352   2.432  11.552  0.1832  0.0067 -0.1591
10242TIP3    H152217   6.389   2.460  11.468  0.7859 -2.3300 -0.7455
10242TIP3    H252218   6.290   2.363  11.530 -1.5030  1.0106  1.1712
10243TIP3   OH252219   5.938   0.640   5.466 -0.0098  0.0573  1.3528
10243TIP3    H152220   5.884   0.602   5.397  1.4066  2.4544 -1.2922
10243TIP3    H252221   5.912   0.732   5.470  1.8454  0.6063  2.0584
10244TIP3   OH252222   6.761   2.231   4.815  0.1565  0.6326 -0.2306
10244TIP3    H152223   6.687   2.210   4.759  0.7103  0.2526 -0.8277
10244TIP3    H252224   6.727   2.297   4.875 -0.7323  0.2787 -0.3325
10245TIP3   OH252225   1.730   5.094   1.163 -0.2800  0.0501  0.2198
10245TIP3    H152226   1.754   5.177   1.122  1.1177  0.4934  1.7824
10245TIP3    H252227   1.665   5.117   1.229 -0.5076 -0.2169  0.0888
10246TIP3   OH252228   1.974   3.304  12.339  0.0316 -0.4707 -0.4498
10246TIP3    H152229   1.939   3.240  12.400 -2.0407 -0.7081 -1.7959
10246TIP3    H252230   1.990   3.254  12.259  2.8759 -0.2128 -0.1496
10247TIP3   OH252231   5.568   1.301   2.113  0.2484 -0.1027  0.2615
10247TIP3    H152232   5.476   1.288   2.087 -0.2370  1.7097  0.9212
10247TIP3    H252233   5.568   1.287   2.208  0.6922 -0.2477  0.2422
10248TIP3   OH252234   4.331   3.012  13.196 -0.2316 -0.1018  0.5567
10248TIP3    H152235   4.282   3.052  13.268 -0.2308 -1.2928  1.2391
10248TIP3    H252236   4.335   2.919  13.218  1.9757 -0.1141  0.3131
10249TIP3   OH252237   2.867   4.475   5.667 -0.1245  0.3941 -0.4902
10249TIP3    H152238   2.774   4.496   5.674  0.0213  0.9148 -0.0698
10249TIP3    H252239   2.901   4.537   5.602  0.0003  0.4323 -0.3890
10250TIP3   OH252240   1.284   1.666  15.877 -0.3140 -0.1942 -0.0968
10250TIP3    H152241   1.248   1.693  15.962  0.5005 -0.4710  0.3490
10250TIP3    H252242   1.358   1.725  15.863  0.6023 -1.2312  0.2108
10251TIP3   OH252243   5.677   5.567  16.711 -0.3364 -0.3367  0.0817
10251TIP3    H152244   5.697   5.486  16.758  1.8719  0.8237  1.3386
10251TIP3    H252245   5.616   5.614  16.769  0.8534  0.2353  0.9051
10252TIP3   OH252246   1.041   2.472   0.578  0.1290 -0.2957 -0.5455
10252TIP3    H152247   1.134   2.489   0.563  0.6080 -1.2416  1.1045
10252TIP3    H252248   1.021   2.517   0.660 -0.5552 -1.1120 -0.2503
10253TIP3   OH252249   1.802   6.397   5.779  0.5996  0.2543  0.1014
10253TIP3    H152250   1.834   6.336   5.845  0.8892  1.0473  0.7117
10253TIP3    H252251   1.774   6.473   5.829  0.2546  0.6276 -0.6478
10254TIP3   OH252252   0.801   3.979   0.744  0.7104  0.5885 -0.1794
10254TIP3    H152253   0.713   3.947   0.721  1.4027 -1.2212 -0.5224
10254TIP3    H252254   0.822   3.932   0.824  0.9368  1.8787  0.5283
10255TIP3   OH252255   4.461   5.034   2.440 -0.2795 -0.0655 -0.9131
10255TIP3    H152256   4.412   5.092   2.498  0.4179  0.1656 -0.5370
10255TIP3    H252257   4.477   4.955   2.492 -0.2986 -0.1604 -1.0501
10256TIP3   OH252258   1.028   5.013  17.192 -0.5362 -0.1349  0.0817
10256TIP3    H152259   0.992   5.055  17.114 -0.9602  0.8804  0.8014
10256TIP3    H252260   1.118   4.991  17.168 -0.5080  0.6103 -0.5458
10257TIP3   OH252261   1.597   6.370   5.543  0.1241  0.1890 -0.0588
10257TIP3    H152262   1.653   6.333   5.611  1.6316  0.1466 -1.2640
10257TIP3    H252263   1.510   6.334   5.560  0.8742 -1.3366  0.6937
10258TIP3   OH252264   6.018   4.906  15.751  0.1469 -0.0242  0.3279
10258TIP3    H152265   6.087   4.840  15.757 -0.4279 -0.5052  2.8159
10258TIP3    H252266   6.060   4.980  15.708  1.5763 -1.0817 -0.1721
10259TIP3   OH252267   2.479   5.101  13.513 -0.0439 -0.1996 -0.1481
10259TIP3    H152268   2.484   5.196  13.502  1.0170 -0.3514 -1.1844
10259TIP3    H252269   2.420   5.088  13.587 -1.5282  1.2133 -1.0389
10260TIP3   OH252270   1.644   5.437   1.231 -0.3704 -0.4449 -0.5968
10260TIP3    H152271   1.593   5.356   1.234  1.2026 -1.5953 -2.5517
10260TIP3    H252272   1.677   5.441   1.142  2.3625  0.5915  0.3649
10261TIP3   OH252273   3.412   0.513  12.366  0.0631 -0.4998  0.2553
10261TIP3    H152274   3.502   0.537  12.346  1.4640 -4.0811  1.5744
10261TIP3    H252275   3.385   0.456  12.295 -0.4622 -1.0143  0.8514
10262TIP3   OH252276   1.877   2.937  16.844 -0.8815  0.0985  0.3277
10262TIP3    H152277   1.889   2.983  16.927  0.2006  0.3759  0.0408
10262TIP3    H252278   1.783   2.927  16.835 -1.1240  1.6846  0.7406
10263TIP3   OH252279   4.046   4.281  12.654 -0.2005 -0.6510 -0.5946
10263TIP3    H152280   4.071   4.217  12.588  2.3683 -2.5828  1.9997
10263TIP3    H252281   3.957   4.256  12.679 -0.1835 -1.5879 -1.4046
10264TIP3   OH252282   2.184   4.020   5.700  0.9191 -0.1212 -0.1729
10264TIP3    H152283   2.227   4.074   5.767  0.6541  0.1587 -0.2253
10264TIP3    H252284   2.152   4.082   5.636 -1.4253 -0.0932  0.9073
10265TIP3   OH252285   3.202   4.350  13.886  0.3288  0.3916 -0.2125
10265TIP3    H152286   3.222   4.267  13.929  1.7113 -0.6771 -2.6633
10265TIP3    H252287   3.285   4.398  13.887  0.4325  0.3011 -1.6390
10266TIP3   OH252288   0.066   5.178   3.416 -0.3306 -0.0093 -0.4085
10266TIP3    H152289   0.105   5.157   3.331  1.5541 -1.5990  0.7629
10266TIP3    H252290  -0.017   5.130   3.417 -1.2094  1.3480 -1.9309
10267TIP3   OH252291   2.966   2.126   1.780 -0.7366  0.0551 -0.0880
10267TIP3    H152292   2.903   2.131   1.708 -1.5943  2.3029  0.7236
10267TIP3    H252293   2.996   2.216   1.792  0.8387 -0.5788  1.1301
10268TIP3   OH252294   3.876   4.790   4.820  0.0886 -0.0597 -0.1428
10268TIP3    H152295   3.876   4.854   4.892  0.0677 -0.4854  0.2387
10268TIP3    H252296   3.968   4.763   4.813  0.2542  0.6425 -0.8792
10269TIP3   OH252297   2.007   5.591  17.055 -0.0636 -0.3688  0.0376
10269TIP3    H152298   1.990   5.683  17.078  1.4905 -0.1056  0.2034
10269TIP3    H252299   2.077   5.595  16.990  1.5307 -1.5193  1.5992
10270TIP3   OH252300   4.568   4.589  12.550  0.8675 -0.0635 -0.5038
10270TIP3    H152301   4.502   4.610  12.616  0.3184 -1.4497 -0.5702
10270TIP3    H252302   4.595   4.674  12.514 -0.6738  0.5373 -0.2903
10271TIP3   OH252303   3.354   3.942   5.917  0.0704  0.1956  0.7628
10271TIP3    H152304   3.339   3.970   6.007 -0.7678  2.1844  0.0735
10271TIP3    H252305   3.449   3.941   5.907  0.2069 -1.1493  1.9516
10272TIP3   OH252306   3.285   1.506  13.903 -0.5155 -0.3496  0.2456
10272TIP3    H152307   3.195   1.518  13.872 -0.5091  2.9640  1.0750
10272TIP3    H252308   3.331   1.584  13.871  1.9548 -1.6739  0.3431
10273TIP3   OH252309   1.682   1.241  13.729 -0.1008  0.2777 -0.7155
10273TIP3    H152310   1.613   1.239  13.663  0.1398  1.8993 -1.0657
10273TIP3    H252311   1.636   1.267  13.809 -0.3681 -1.5493 -0.2317
10274TIP3   OH252312   3.976   1.716  11.443 -0.2086  0.3608 -0.8545
10274TIP3    H152313   4.071   1.710  11.443 -0.2922 -1.9957 -1.9121
10274TIP3    H252314   3.949   1.667  11.520 -0.5775 -0.2356 -1.3497
10275TIP3   OH252315   1.697   5.895   2.007  0.5465 -0.3776  0.0076
10275TIP3    H152316   1.718   5.971   1.953 -1.4281  0.4364  0.3274
10275TIP3    H252317   1.602   5.897   2.017  0.6822 -1.4771  2.1054
10276TIP3   OH252318   5.330   6.776  11.235 -0.1843  0.4232 -0.2333
10276TIP3    H152319   5.384   6.837  11.185 -0.8342 -0.5493 -2.2411
10276TIP3    H252320   5.241   6.794  11.206 -0.4099 -1.3414 -0.7882
10277TIP3   OH252321   4.781   0.053   3.988  0.3297  0.5728 -0.1626
10277TIP3    H152322   4.870   0.069   4.019  0.7120 -1.1264 -0.2637
10277TIP3    H252323   4.793   0.002   3.908 -0.7170  1.9783 -1.2511
10278TIP3   OH252324   5.547   0.551   2.223  0.3963  0.4191 -0.5100
10278TIP3    H152325   5.518   0.554   2.314  1.2301  3.8372 -0.2241
10278TIP3    H252326   5.636   0.516   2.228  0.2165  0.0017 -0.1103
10279TIP3   OH252327   5.836   1.441  13.917 -0.0140  0.5899  0.2504
10279TIP3    H152328   5.920   1.427  13.961 -0.4137  2.3212  1.6278
10279TIP3    H252329   5.858   1.494  13.840  0.2362  0.5001  0.2593
10280TIP3   OH252330   5.157   3.675   3.399 -0.0419 -0.1725 -0.4320
10280TIP3    H152331   5.251   3.692   3.409  0.7500 -2.7895 -2.3823
10280TIP3    H252332   5.144   3.587   3.435 -1.5967 -0.1611 -0.8835
10281TIP3   OH252333   6.665   4.545   0.742  0.1487  0.6120  0.9658
10281TIP3    H152334   6.648   4.619   0.683 -0.2725 -2.0934 -2.6819
10281TIP3    H252335   6.595   4.550   0.807 -0.1452  3.0887  0.5821
10282TIP3   OH252336   3.322   3.914  12.889 -0.2484 -0.3596  0.2580
10282TIP3    H152337   3.305   3.850  12.819 -0.5259  0.6108 -0.5957
10282TIP3    H252338   3.284   3.996  12.855 -0.0419  0.2177  1.3915
10283TIP3   OH252339   2.228   4.372  14.788  0.1190  0.2825  0.2283
10283TIP3    H152340   2.153   4.396  14.734 -0.8688  0.4950  1.6257
10283TIP3    H252341   2.236   4.277  14.778  0.1723  0.3656 -0.5450
10284TIP3   OH252342   1.184   1.380  15.885  0.3585  0.4871  0.3892
10284TIP3    H152343   1.121   1.418  15.825  0.9466  1.8729  0.5976
10284TIP3    H252344   1.207   1.452  15.944  3.3785  0.5622 -0.7095
10285TIP3   OH252345   1.198   0.228   1.430  0.1711 -0.2114 -1.1106
10285TIP3    H152346   1.110   0.221   1.393  0.4637  0.7938 -2.0706
10285TIP3    H252347   1.225   0.318   1.409  0.1245  0.6894  2.1125
10286TIP3   OH252348   6.556   1.718   4.120 -0.9442  0.6639 -0.3102
10286TIP3    H152349   6.493   1.664   4.074 -1.3936  1.1648 -0.2886
10286TIP3    H252350   6.573   1.670   4.202 -3.4574  1.8631  1.0103
10287TIP3   OH252351   0.704   0.221  12.697  0.1021 -0.1175  0.8171
10287TIP3    H152352   0.705   0.251  12.606 -0.8804  0.5249  1.0099
10287TIP3    H252353   0.752   0.138  12.695  1.8126  0.8343  0.0542
10288TIP3   OH252354   1.425   0.759  14.326 -0.4308 -0.1804 -0.2206
10288TIP3    H152355   1.514   0.759  14.363 -0.7765  0.8080  0.6616
10288TIP3    H252356   1.437   0.733  14.235  0.9065  1.0058 -0.4219
10289TIP3   OH252357   4.860   5.676  14.398  0.2341 -0.2872 -0.0792
10289TIP3    H152358   4.832   5.710  14.483  1.8850 -0.0490  0.4075
10289TIP3    H252359   4.801   5.602  14.380 -0.4262 -0.0447  1.0360
10290TIP3   OH252360   1.469   6.341   2.482 -0.1226 -0.5503 -0.0336
10290TIP3    H152361   1.516   6.272   2.528 -0.5300  0.1049  1.4165
10290TIP3    H252362   1.377   6.322   2.496 -0.2648 -0.4012 -0.7065
10291TIP3   OH252363   6.069   1.840  13.845  0.9034  0.6693  0.1738
10291TIP3    H152364   6.073   1.838  13.941 -1.6806 -0.4297  0.3371
10291TIP3    H252365   6.160   1.830  13.818  1.6015 -0.1756  2.5104
10292TIP3   OH252366   6.712   4.630  12.570 -0.2206 -0.4174 -0.5467
10292TIP3    H152367   6.686   4.554  12.517 -0.2413 -1.7169  1.2077
10292TIP3    H252368   6.804   4.613  12.593 -1.0296 -1.6184  2.3864
10293TIP3   OH252369   5.508   1.078   1.000 -0.3145  0.5666  0.5798
10293TIP3    H152370   5.601   1.087   0.978 -0.6602  0.3951 -1.1018
10293TIP3    H252371   5.467   1.158   0.967 -1.1536 -0.5221 -1.1466
10294TIP3   OH252372   2.779   3.493   3.303  0.0751  0.3067  0.7201
10294TIP3    H152373   2.705   3.433   3.305  0.3310 -0.0017  1.7958
10294TIP3    H252374   2.841   3.457   3.366  1.6249 -0.0324 -0.9305
10295TIP3   OH252375   0.959   0.776   3.744 -1.2012 -0.5774  0.2361
10295TIP3    H152376   0.969   0.766   3.839 -1.4420 -0.5643  0.2630
10295TIP3    H252377   1.031   0.833   3.718 -1.2479 -0.4261  0.4391
10296TIP3   OH252378   2.865   0.275  11.187  0.3185 -0.0079  0.0569
10296TIP3    H152379   2.958   0.268  11.164  0.2234 -0.7046 -0.1171
10296TIP3    H252380   2.834   0.350  11.137 -0.1076 -1.9936 -2.8747
10297TIP3   OH252381   5.727   1.812  13.230 -0.5772 -0.3660  0.0379
10297TIP3    H152382   5.758   1.722  13.240  1.2353  0.1195 -0.7456
10297TIP3    H252383   5.767   1.842  13.148  1.2446  2.0326  1.6503
10298TIP3   OH252384   0.010   6.429   6.370 -0.0854  0.1545 -0.2400
10298TIP3    H152385  -0.040   6.506   6.398  1.2616  0.4465  1.5461
10298TIP3    H252386   0.043   6.391   6.451  0.7371 -1.3201 -1.2110
10299TIP3   OH252387   1.067   5.479  11.429  0.2094  0.5980  0.2366
10299TIP3    H152388   1.016   5.473  11.510  1.0968 -0.7265  0.7319
10299TIP3    H252389   1.131   5.548  11.447 -0.7721  1.6069 -0.0429
10300TIP3   OH252390   0.464   3.560  16.597 -0.1928 -0.5929 -0.1390
10300TIP3    H152391   0.523   3.635  16.590 -1.0809  0.2583  1.2315
10300TIP3    H252392   0.437   3.543  16.507  0.6773  0.1809 -0.5673
10301TIP3   OH252393   4.169   1.497  11.114  0.2519 -0.0302  0.2589
10301TIP3    H152394   4.181   1.427  11.178  0.2587  0.1984  0.5050
10301TIP3    H252395   4.078   1.525  11.126  0.2779  0.0692  0.2251
10302TIP3   OH252396   3.564   5.978   2.541  0.6256 -0.7224 -0.1746
10302TIP3    H152397   3.592   6.046   2.480  1.0860 -0.0325  0.7794
10302TIP3    H252398   3.560   5.898   2.487 -1.2404  0.2644 -1.6216
10303TIP3   OH252399   1.189   6.427  12.584  0.2419 -0.2540  0.2686
10303TIP3    H152400   1.097   6.425  12.557  0.1418  0.2620  0.5588
10303TIP3    H252401   1.237   6.449  12.504  0.0208  0.4556  0.3247
10304TIP3   OH252402   2.413   4.581   5.053 -0.2530 -0.1399 -0.2825
10304TIP3    H152403   2.437   4.638   5.127  1.9955 -1.9348  0.5014
10304TIP3    H252404   2.435   4.633   4.976  0.3073  0.6385  0.3719
10305TIP3   OH252405   3.396   5.967   2.765  0.0393  0.0910 -0.1192
10305TIP3    H152406   3.396   6.053   2.807  1.4565  0.5889 -1.0684
10305TIP3    H252407   3.460   5.974   2.694 -0.4054 -1.5039 -0.7396
10306TIP3   OH252408   1.787   2.778  15.837  0.0097 -0.2438  0.6906
10306TIP3    H152409   1.826   2.865  15.835 -1.2430  0.3518 -0.6702
10306TIP3    H252410   1.696   2.793  15.864 -0.7060 -0.8540 -1.2025
10307TIP3   OH252411   6.408   4.539  11.249 -0.4975  0.5253 -0.1425
10307TIP3    H152412   6.426   4.568  11.339 -0.3458 -0.8466  0.2828
10307TIP3    H252413   6.494   4.522  11.212 -0.5317  1.5673 -0.7310
10308TIP3   OH252414   4.427   3.979   5.902  0.0572 -0.2111 -0.4667
10308TIP3    H152415   4.438   3.910   5.836 -0.1861 -0.0162 -0.7107
10308TIP3    H252416   4.402   3.932   5.981  0.4333 -0.4557 -0.4877
10309TIP3   OH252417   4.893   1.813   4.616 -0.2032  0.4870  0.2973
10309TIP3    H152418   4.799   1.830   4.622 -0.1646  0.8619 -0.1159
10309TIP3    H252419   4.931   1.898   4.593  0.2542  0.3765  0.6250
10310TIP3   OH252420   5.158   3.332   5.335  0.4754 -0.1861  0.0194
10310TIP3    H152421   5.190   3.297   5.418  3.1303 -1.7271 -1.4975
10310TIP3    H252422   5.235   3.332   5.278 -1.3367  0.3176 -2.6133
10311TIP3   OH252423   5.453   4.654   3.179  0.0803  0.4603 -0.7019
10311TIP3    H152424   5.423   4.682   3.092  2.7747 -1.8682 -2.5729
10311TIP3    H252425   5.382   4.600   3.213 -0.9874  1.3449 -1.4682
10312TIP3   OH252426   5.724   2.691  12.989  0.2942 -0.6564  0.2217
10312TIP3    H152427   5.735   2.691  12.894  1.3508 -0.2799  0.3299
10312TIP3    H252428   5.662   2.762  13.006 -0.2361 -1.0121 -0.2185
10313TIP3   OH252429   1.159   5.502  16.720 -0.0500  0.1117 -0.5619
10313TIP3    H152430   1.066   5.511  16.736 -0.1896  1.6594 -1.9415
10313TIP3    H252431   1.173   5.543  16.634  1.9702  0.4567 -0.1317
10314TIP3   OH252432   1.661   6.652   1.942  0.0482 -0.0965 -0.1796
10314TIP3    H152433   1.638   6.703   1.865  0.6509  0.3789 -0.0581
10314TIP3    H252434   1.689   6.717   2.006 -0.3222 -0.4964  0.3961
10315TIP3   OH252435   6.262   6.013  13.149  0.4078  0.4514 -0.3776
10315TIP3    H152436   6.168   5.998  13.161  0.6617 -0.7689  0.2813
10315TIP3    H252437   6.303   5.970  13.224  1.5694 -0.1604 -1.3258
10316TIP3   OH252438   2.690   2.040  11.517  0.4139  0.5290  0.2506
10316TIP3    H152439   2.702   1.969  11.453 -1.3411 -0.9363  1.4406
10316TIP3    H252440   2.778   2.059  11.548  0.9854 -0.7968 -0.4653
10317TIP3   OH252441   5.820   2.863   4.996 -0.1104  0.1728  0.1037
10317TIP3    H152442   5.810   2.841   5.089  1.8010 -0.3042  0.2371
10317TIP3    H252443   5.869   2.790   4.960 -0.1688  0.7231 -1.1249
10318TIP3   OH252444   3.770   2.777   2.606 -0.2712 -0.2280 -0.2002
10318TIP3    H152445   3.675   2.774   2.595 -0.1881 -2.1257 -0.8341
10318TIP3    H252446   3.783   2.768   2.701 -0.7300 -2.0790 -0.2708
10319TIP3   OH252447   4.679   6.230  11.499 -0.2300 -0.6668 -0.1233
10319TIP3    H152448   4.619   6.200  11.568 -0.1696 -1.6349 -0.4847
10319TIP3    H252449   4.731   6.299  11.541 -0.9372 -0.4850  0.4768
10320TIP3   OH252450   1.306   3.169   4.208 -0.3804 -0.2076  0.5213
10320TIP3    H152451   1.354   3.205   4.282  0.8162 -0.4934 -0.0984
10320TIP3    H252452   1.363   3.184   4.133 -1.2362 -0.6161 -0.2267
10321TIP3   OH252453   4.862   2.701  11.307 -0.2622  0.6584 -0.9873
10321TIP3    H152454   4.866   2.689  11.402  0.8874  1.2895 -0.9281
10321TIP3    H252455   4.780   2.660  11.281 -0.4090  0.1255  0.2261
10322TIP3   OH252456   6.491   5.081  14.701 -0.0696  0.5997 -0.1639
10322TIP3    H152457   6.475   5.170  14.732 -1.3028  1.5167 -3.1099
10322TIP3    H252458   6.404   5.040  14.703  0.0860  0.2166 -0.9159
10323TIP3   OH252459   2.081   0.830   3.016 -0.6029  0.2491 -0.3264
10323TIP3    H152460   2.054   0.745   3.051  0.7524 -1.4583 -3.0603
10323TIP3    H252461   1.999   0.872   2.988 -1.1808 -0.8962 -0.4028
10324TIP3   OH252462   3.201   4.459   3.757  0.5410  0.4118 -0.5494
10324TIP3    H152463   3.117   4.487   3.794  0.8806  0.5037  0.1668
10324TIP3    H252464   3.204   4.500   3.671  0.0349  0.7506 -0.4109
10325TIP3   OH252465   5.989   1.403  16.863 -0.5724  0.0184  0.4421
10325TIP3    H152466   6.025   1.403  16.774 -1.0136 -0.4055  0.2600
10325TIP3    H252467   6.066   1.395  16.920 -0.3515 -0.5413  0.0687
10326TIP3   OH252468   4.426   2.022   1.126 -0.1148 -0.4082  0.5452
10326TIP3    H152469   4.455   2.076   1.052  1.6158 -0.1190  1.3788
10326TIP3    H252470   4.380   2.083   1.183 -0.0732 -0.2772  0.4396
10327TIP3   OH252471   0.255   2.075   5.326 -0.5042  0.0957  0.3453
10327TIP3    H152472   0.242   2.102   5.236 -1.1806  1.8612  0.9277
10327TIP3    H252473   0.328   2.129   5.357 -0.9372  0.2485  1.1396
10328TIP3   OH252474   6.045   6.740  16.957  0.2808 -0.6236 -0.0859
10328TIP3    H152475   6.025   6.672  17.022 -2.3248 -0.0718 -0.1972
10328TIP3    H252476   5.990   6.718  16.882 -0.1265  1.2239 -0.3746
10329TIP3   OH252477   4.648   4.850   3.295 -0.3594 -0.2965  0.8536
10329TIP3    H152478   4.691   4.782   3.244 -0.2653 -0.5247  1.2414
10329TIP3    H252479   4.719   4.901   3.333 -0.4246  0.1607  0.3867
10330TIP3   OH252480   5.039   6.030   5.246 -0.0260 -0.2549 -0.3331
10330TIP3    H152481   5.057   5.940   5.219 -0.6543 -0.4891 -0.0042
10330TIP3    H252482   4.945   6.041   5.232  0.0192  0.3096 -0.2419
10331TIP3   OH252483   0.653   4.756   4.117  0.1358 -0.1044  0.3582
10331TIP3    H152484   0.657   4.661   4.126  0.9878 -0.0160  1.0901
10331TIP3    H252485   0.741   4.786   4.138 -0.2592  0.8862  0.6765
10332TIP3   OH252486   6.746   6.128   2.120 -0.0670  0.9803  0.2498
10332TIP3    H152487   6.671   6.188   2.122  0.2079  1.3150  1.7893
10332TIP3    H252488   6.717   6.056   2.065 -0.6525  2.1984 -1.0963
10333TIP3   OH252489   0.150   0.093  15.715  0.3284 -0.3323  0.3930
10333TIP3    H152490   0.172   0.125  15.627 -0.6324  1.8296  0.8594
10333TIP3    H252491   0.058   0.067  15.708  0.2956 -0.2996  0.7206
10334TIP3   OH252492   1.783   1.135  11.488  0.3586 -0.6162  0.3884
10334TIP3    H152493   1.696   1.165  11.515  1.0765  0.4535  1.6175
10334TIP3    H252494   1.836   1.215  11.486  1.2823 -1.2170 -0.5550
10335TIP3   OH252495   5.713   6.140  14.364  0.3003 -0.1452 -0.4745
10335TIP3    H152496   5.664   6.197  14.305 -1.7995 -1.5572 -0.2025
10335TIP3    H252497   5.676   6.053  14.349  0.3935 -0.7237  2.1985
10336TIP3   OH252498   1.229   0.848   4.740  0.1005 -0.0913 -0.4369
10336TIP3    H152499   1.153   0.891   4.701 -0.5280  0.7247  1.5771
10336TIP3    H252500   1.205   0.835   4.832  1.5406 -1.8602 -0.2597
10337TIP3   OH252501   3.839   2.371  13.312  0.0266  0.1213  0.3797
10337TIP3    H152502   3.819   2.283  13.345  0.5383  0.3375  1.2818
10337TIP3    H252503   3.934   2.380  13.324  0.3852 -0.0693 -1.8392
10338TIP3   OH252504   0.948   3.358   5.001  0.0586 -0.0084 -0.2478
10338TIP3    H152505   1.042   3.373   4.995  0.6114 -3.1754 -1.4976
10338TIP3    H252506   0.909   3.435   4.959  2.0080  1.4232  0.3889
10339TIP3   OH252507   1.830   3.896   4.718 -0.9450 -0.1740 -0.4258
10339TIP3    H152508   1.919   3.893   4.682 -0.7451 -0.6587  0.0798
10339TIP3    H252509   1.823   3.815   4.770 -1.7967 -0.3046 -0.7284
10340TIP3   OH252510   2.745   3.571   4.522  0.4921 -0.1563 -0.4040
10340TIP3    H152511   2.740   3.534   4.610  0.1264  0.2066 -0.2705
10340TIP3    H252512   2.835   3.554   4.494  0.1743 -1.6764 -0.5813
10341TIP3   OH252513   2.280   0.059   4.022  0.0962  0.1726  0.1369
10341TIP3    H152514   2.201   0.097   3.983  0.0853 -0.8066 -0.8653
10341TIP3    H252515   2.322   0.131   4.068 -0.4252  1.1537 -0.8904
10342TIP3   OH252516   1.643   1.479  15.240 -0.3335 -0.2759  0.6056
10342TIP3    H152517   1.727   1.470  15.286 -0.0650 -2.0611 -0.1655
10342TIP3    H252518   1.591   1.404  15.270 -2.0633  1.3287  1.8164
10343TIP3   OH252519   0.362   0.229  17.178  0.2247 -0.2348  0.1893
10343TIP3    H152520   0.451   0.204  17.152  0.3167  0.8669 -0.6469
10343TIP3    H252521   0.375   0.296  17.246 -0.0058 -1.6094  1.6456
10344TIP3   OH252522   1.298   0.097  16.266 -0.1408  0.1551 -0.3785
10344TIP3    H152523   1.228   0.039  16.236 -0.6490  0.6825 -0.2226
10344TIP3    H252524   1.336   0.051  16.342 -0.2535 -0.1741 -0.5174
10345TIP3   OH252525   1.771   0.229  12.017 -0.0832  0.0836 -0.2312
10345TIP3    H152526   1.767   0.324  12.015  1.3357  0.1543 -0.9277
10345TIP3    H252527   1.825   0.206  11.941 -0.4244 -1.2743 -0.0833
10346TIP3   OH252528   1.336   5.099  13.727 -0.4150  0.2835 -0.3270
10346TIP3    H152529   1.253   5.138  13.755  0.0174  0.4435  0.7695
10346TIP3    H252530   1.403   5.157  13.764  0.2466  2.3528 -4.2730
10347TIP3   OH252531   0.136   5.805   3.646  0.1374  0.2443  0.6329
10347TIP3    H152532   0.086   5.835   3.722 -0.0721 -1.8066  1.3693
10347TIP3    H252533   0.226   5.832   3.666 -0.2129  1.4482  0.6550
10348TIP3   OH252534   6.446   1.044   2.388  0.3673 -0.0171 -0.2632
10348TIP3    H152535   6.474   1.071   2.300  1.0735 -3.1859 -1.1140
10348TIP3    H252536   6.522   1.061   2.444  0.5840  0.2360 -0.6311
10349TIP3   OH252537   2.980   1.925  11.402  0.1934 -0.2790 -0.6277
10349TIP3    H152538   2.894   1.884  11.402  0.3890 -0.7627  1.1968
10349TIP3    H252539   2.968   2.009  11.447  0.9536 -1.0781  1.1521
10350TIP3   OH252540   3.286   4.820   3.953 -0.6737 -0.2616 -0.1506
10350TIP3    H152541   3.341   4.895   3.975  1.9409 -1.7782 -1.0107
10350TIP3    H252542   3.215   4.857   3.901  0.7006  1.6058 -0.8123
10351TIP3   OH252543   6.754   6.620  12.524 -0.1419 -0.2065 -0.1460
10351TIP3    H152544   6.815   6.565  12.475  0.5370 -0.2531  0.7262
10351TIP3    H252545   6.668   6.583  12.504  0.0617  0.0812 -1.6776
10352TIP3   OH252546   4.539   0.358   2.653 -0.0136 -0.0288  0.0793
10352TIP3    H152547   4.485   0.312   2.718 -1.5926 -0.2804 -1.3359
10352TIP3    H252548   4.629   0.346   2.683 -0.6655 -0.4359  2.0129
10353TIP3   OH252549   0.744   5.237  11.768  0.1235 -0.5227  0.5268
10353TIP3    H152550   0.696   5.187  11.702  3.0629 -0.0645 -2.1721
10353TIP3    H252551   0.687   5.312  11.787 -0.9064 -0.7370 -1.4265
10354TIP3   OH252552   0.439   4.331  16.645  0.5249  0.4806  0.2161
10354TIP3    H152553   0.506   4.329  16.577  0.4095 -1.6675  0.0947
10354TIP3    H252554   0.468   4.266  16.709 -0.1619  1.3501  1.4442
10355TIP3   OH252555   6.570   2.078   0.188  0.6380 -0.1285  0.6197
10355TIP3    H152556   6.482   2.115   0.203  0.4346 -0.0935 -0.5637
10355TIP3    H252557   6.604   2.127   0.113  1.5762 -0.3141  0.9140
10356TIP3   OH252558   5.202   3.171   0.822 -0.7264 -0.0963  0.1245
10356TIP3    H152559   5.125   3.133   0.864 -1.5062  0.3862 -0.8342
10356TIP3    H252560   5.177   3.180   0.730  0.4958  0.0265 -0.2105
10357TIP3   OH252561   4.144   2.941  16.246 -0.8106 -0.5668  0.3620
10357TIP3    H152562   4.223   2.928  16.193 -1.7245  0.4057 -1.3144
10357TIP3    H252563   4.107   2.854  16.254  0.3769 -1.0312  1.1241
10358TIP3   OH252564   6.683   4.651   5.249  0.3435 -0.2735 -0.1469
10358TIP3    H152565   6.614   4.713   5.227  2.5679  2.4295 -0.1164
10358TIP3    H252566   6.673   4.637   5.343 -0.4458 -0.3051 -0.2319
10359TIP3   OH252567   0.897   5.119   6.773  0.3223 -0.8480  0.1833
10359TIP3    H152568   0.949   5.159   6.703  1.0399 -1.6153  0.2568
10359TIP3    H252569   0.847   5.049   6.730  0.4126 -1.0197  0.3529
10360TIP3   OH252570   6.295   6.800  13.942 -0.0100 -0.1163 -0.8571
10360TIP3    H152571   6.265   6.891  13.936  2.8473  1.0383  0.4030
10360TIP3    H252572   6.390   6.807  13.955  0.2010 -3.2692  0.1453
10361TIP3   OH252573   6.374   4.915  11.629  0.0438 -0.0851 -0.4667
10361TIP3    H152574   6.380   4.841  11.689 -3.1317  0.4960  0.7946
10361TIP3    H252575   6.411   4.989  11.678 -1.3448  0.1212  0.3045
10362TIP3   OH252576   5.489   1.399  11.486  0.3129 -0.8946 -0.2756
10362TIP3    H152577   5.402   1.437  11.499 -0.8143 -3.4908  0.4720
10362TIP3    H252578   5.536   1.420  11.567 -0.5348 -1.6271  0.4375
10363TIP3   OH252579   1.480   0.666   0.285  0.7514 -0.0200 -0.0413
10363TIP3    H152580   1.446   0.728   0.349  0.6310 -0.5967  0.4667
10363TIP3    H252581   1.494   0.718   0.206 -0.5279  0.4186 -0.0132
10364TIP3   OH252582   0.730   2.537  14.524 -0.0646 -0.1750 -0.2193
10364TIP3    H152583   0.662   2.476  14.495  0.9499 -0.2670 -2.6110
10364TIP3    H252584   0.702   2.622  14.490  1.4221 -0.3777 -2.1363
10365TIP3   OH252585   5.804   3.299  15.351  0.3144 -1.5057 -0.0515
10365TIP3    H152586   5.837   3.228  15.296  1.2401 -0.5159 -0.8072
10365TIP3    H252587   5.777   3.366  15.288  0.5892 -0.6990  0.6811
10366TIP3   OH252588   1.153   2.051   4.776 -0.5859 -0.1390  0.3609
10366TIP3    H152589   1.160   2.023   4.867  0.2584  0.1312  0.3850
10366TIP3    H252590   1.242   2.049   4.743 -0.7036  1.0314 -0.0826
10367TIP3   OH252591   3.461   2.497  11.002  0.9245 -0.3240  0.0998
10367TIP3    H152592   3.512   2.508  11.082  0.5300 -1.0642  0.4667
10367TIP3    H252593   3.382   2.550  11.015 -0.4972 -2.6022  1.4377
10368TIP3   OH252594   0.441   6.640  14.405 -0.1588  0.4002  0.0064
10368TIP3    H152595   0.397   6.656  14.322 -2.9354  0.6808  1.4229
10368TIP3    H252596   0.483   6.724  14.426  1.6932 -0.0357 -1.6288
10369TIP3   OH252597   2.290   3.348  15.997 -0.1302  0.0803 -0.1411
10369TIP3    H152598   2.344   3.353  15.918 -0.3372 -0.0143 -0.2879
10369TIP3    H252599   2.209   3.306  15.969  0.0532 -0.5534  0.2628
10370TIP3   OH252600   1.157   6.365   1.456 -0.2769 -0.4884  0.0205
10370TIP3    H152601   1.133   6.319   1.375  0.5382  1.0393 -1.1384
10370TIP3    H252602   1.253   6.363   1.457 -0.2756 -1.3383  1.4993
10371TIP3   OH252603   4.893   0.895  13.528 -0.3963  0.3089  0.2311
10371TIP3    H152604   4.926   0.809  13.551  0.4133  1.0335  1.9208
10371TIP3    H252605   4.935   0.916  13.444  1.0137 -0.0925  0.8142
10372TIP3   OH252606   0.696   1.288   0.213 -0.1916  0.2301 -0.0256
10372TIP3    H152607   0.611   1.306   0.172 -0.6259 -0.4070  0.5723
10372TIP3    H252608   0.752   1.259   0.141 -0.7847 -0.3485 -0.2573
10373TIP3   OH252609   4.473   6.605   4.309  0.5982  0.6711  0.1164
10373TIP3    H152610   4.541   6.616   4.242  0.8224 -3.2849 -0.5538
10373TIP3    H252611   4.393   6.636   4.268  1.7175  5.1094  0.7918
10374TIP3   OH252612   0.715   5.200  11.432  0.0149  0.7811 -0.0310
10374TIP3    H152613   0.660   5.182  11.356  0.5661 -1.5984  0.0645
10374TIP3    H252614   0.667   5.162  11.506  1.3754 -0.6935  0.1540
10375TIP3   OH252615   3.050   4.363   1.077  0.3684 -0.1295 -0.6360
10375TIP3    H152616   3.116   4.353   1.145 -0.8036 -0.9929  0.4057
10375TIP3    H252617   3.007   4.447   1.096 -0.2279 -0.5600 -0.0551
10376TIP3   OH252618   3.310   2.997  13.437 -0.0029 -0.1937 -0.1004
10376TIP3    H152619   3.342   2.906  13.432 -1.3366 -0.6383 -1.3925
10376TIP3    H252620   3.388   3.051  13.425  0.4684 -1.2147 -1.9439
10377TIP3   OH252621   3.397   6.521   1.906  0.3692  0.1804  0.1883
10377TIP3    H152622   3.477   6.471   1.889 -0.7060 -1.3897 -0.4504
10377TIP3    H252623   3.356   6.477   1.980 -0.8600 -0.2622 -0.7199
10378TIP3   OH252624   1.208   0.524   5.268 -0.4954  1.0631 -0.2204
10378TIP3    H152625   1.261   0.581   5.213 -0.3743  1.0735 -0.0955
10378TIP3    H252626   1.126   0.572   5.281 -0.0707  1.5902  0.5745
10379TIP3   OH252627   3.325   4.065   2.362 -0.0768 -0.1105  0.0025
10379TIP3    H152628   3.409   4.093   2.397  0.3098  1.7051 -2.1776
10379TIP3    H252629   3.337   4.063   2.267 -2.6114  0.6606 -0.4209
10380TIP3   OH252630   2.602   2.709  15.579  0.2985  0.0343 -0.4419
10380TIP3    H152631   2.561   2.793  15.596  1.6881  0.5521  0.5360
10380TIP3    H252632   2.546   2.645  15.625  0.7313  0.7609  1.1703
10381TIP3   OH252633   3.791   2.436  16.978 -0.0003 -0.1915 -0.6160
10381TIP3    H152634   3.849   2.495  16.929  0.0702  0.8929  0.7198
10381TIP3    H252635   3.849   2.394  17.042 -0.6381  0.9234  0.7521
10382TIP3   OH252636   4.465   6.455   4.578  0.0264  0.1620  0.1037
10382TIP3    H152637   4.526   6.529   4.571  0.3547 -0.2740 -2.5920
10382TIP3    H252638   4.379   6.496   4.582  0.3159  0.7157  1.1601
10383TIP3   OH252639   1.609   4.948  14.149  0.3242  0.0581  0.2237
10383TIP3    H152640   1.649   5.010  14.088 -0.4620 -1.2717 -1.7579
10383TIP3    H252641   1.520   4.936  14.116 -0.3889 -0.1579  2.1146
10384TIP3   OH252642   3.557   2.992  10.985  0.3166 -0.1293 -0.6124
10384TIP3    H152643   3.583   3.084  10.993  0.5936 -0.2921  0.4111
10384TIP3    H252644   3.533   2.982  10.892  2.4311  0.4101 -1.2717
10385TIP3   OH252645   0.333   0.072  16.571 -0.0154  0.5113  0.0192
10385TIP3    H152646   0.260   0.108  16.622  0.8287  1.0431  0.8886
10385TIP3    H252647   0.379   0.016  16.633  1.0102  1.1306 -0.1652
10386TIP3   OH252648   5.131   2.011   4.290 -0.0173 -0.3850  0.6811
10386TIP3    H152649   5.051   1.989   4.243 -0.0591 -0.9199  1.0080
10386TIP3    H252650   5.107   2.012   4.382  0.1321  0.3931  0.7237
10387TIP3   OH252651   4.058   5.541   3.091  0.4487 -0.4141 -0.2720
10387TIP3    H152652   4.048   5.489   3.171  0.1740 -1.7496 -1.1373
10387TIP3    H252653   4.116   5.613   3.116 -0.3401 -0.3052  1.3413
10388TIP3   OH252654   4.310   2.825   3.335 -0.4713  0.5431  0.0319
10388TIP3    H152655   4.256   2.812   3.414 -0.6637 -0.3165 -0.2295
10388TIP3    H252656   4.311   2.920   3.323 -0.8761  0.6559  0.7708
10389TIP3   OH252657   0.941   3.346   1.736 -0.4610 -0.2815  0.1739
10389TIP3    H152658   0.915   3.273   1.679  0.6317 -0.0485 -0.6633
10389TIP3    H252659   1.009   3.392   1.686 -0.4503  0.7437  1.1008
10390TIP3   OH252660   6.185   2.547  12.094 -0.4259 -0.1948 -0.3842
10390TIP3    H152661   6.236   2.510  12.022 -0.1433 -0.7699  0.0967
10390TIP3    H252662   6.107   2.583  12.053  0.1885  0.3714 -1.0949
10391TIP3   OH252663   0.212   3.358  15.977  0.7036  0.1902  0.3395
10391TIP3    H152664   0.264   3.438  15.966  1.9736 -0.7711 -1.1433
10391TIP3    H252665   0.277   3.290  15.995 -0.2210 -0.7554  0.1872
10392TIP3   OH252666   4.808   2.422   3.053 -0.2744  0.4681 -0.2158
10392TIP3    H152667   4.732   2.398   3.105  0.1506  1.2264  0.7800
10392TIP3    H252668   4.865   2.469   3.113  1.3486 -0.7373 -0.7368
10393TIP3   OH252669   4.254   2.581  14.212  0.3867  0.0846 -0.5270
10393TIP3    H152670   4.247   2.486  14.222 -0.8028  0.2013 -0.1587
10393TIP3    H252671   4.284   2.594  14.122  0.4302 -0.6282 -0.6171
10394TIP3   OH252672   2.909   4.165   3.018 -0.2695  0.0577  0.2815
10394TIP3    H152673   2.859   4.238   2.982 -0.8035 -0.4875 -0.1128
10394TIP3    H252674   2.884   4.090   2.964  0.5680 -0.3397  0.4241
10395TIP3   OH252675   6.203   3.289  14.377 -0.1768  0.1943  0.0804
10395TIP3    H152676   6.231   3.227  14.309  2.4161  3.0574 -1.7387
10395TIP3    H252677   6.147   3.351  14.330 -2.9791 -0.7551  1.9225
10396TIP3   OH252678   4.984   3.667  13.225 -0.0030 -0.0798 -0.3854
10396TIP3    H152679   5.026   3.754  13.224 -0.8450  0.3335 -0.3437
10396TIP3    H252680   4.945   3.661  13.312 -0.0907 -0.4386 -0.4507
10397TIP3   OH252681   0.120   4.206   5.782 -0.0940  0.7302 -0.3124
10397TIP3    H152682   0.160   4.130   5.825 -2.1689 -1.1593 -1.4867
10397TIP3    H252683   0.193   4.266   5.767  1.4906 -0.6350  1.4554
10398TIP3   OH252684   1.931   6.363  17.000 -0.4543 -0.0422  0.0381
10398TIP3    H152685   1.923   6.297  16.930 -2.2868  2.0280 -1.8907
10398TIP3    H252686   2.017   6.402  16.986 -0.0370 -0.9003  0.1518
10399TIP3   OH252687   1.185   6.527   4.948  0.5531  0.3272  0.0862
10399TIP3    H152688   1.228   6.474   4.882 -0.7673  0.4180 -0.8812
10399TIP3    H252689   1.137   6.464   5.002 -0.4521  0.4433 -0.6399
10400TIP3   OH252690   1.078   6.592  13.987 -0.7618 -0.4451  0.1995
10400TIP3    H152691   1.167   6.581  14.019 -0.7410  1.9831  1.2612
10400TIP3    H252692   1.087   6.605  13.893 -0.0030 -0.2716  0.2906
10401TIP3   OH252693   4.964   6.227   4.960  0.1384  0.4206  0.1559
10401TIP3    H152694   4.985   6.299   4.901 -0.3787  1.7950  1.5648
10401TIP3    H252695   4.935   6.270   5.041 -0.3004 -1.3767  1.0128
10402TIP3   OH252696   4.610   3.998  15.045  0.2678 -0.2869  0.0889
10402TIP3    H152697   4.556   3.970  15.118 -0.9941 -2.5765 -1.5892
10402TIP3    H252698   4.554   3.988  14.968  2.1720  0.0149 -1.4157
10403TIP3   OH252699   2.878   2.532   5.658  0.0200  0.3058 -0.5702
10403TIP3    H152700   2.935   2.523   5.734 -1.1873  2.5482  0.6871
10403TIP3    H252701   2.810   2.466   5.671  0.4688 -0.1162 -0.3412
10404TIP3   OH252702   2.154   3.215   5.200  0.1318  0.2791 -0.9354
10404TIP3    H152703   2.245   3.238   5.183 -0.0315  0.8368 -1.0932
10404TIP3    H252704   2.158   3.130   5.244  0.7526  0.5597 -0.4414
10405TIP3   OH252705   6.151   2.798   5.115  0.2892 -0.1641 -0.0791
10405TIP3    H152706   6.084   2.740   5.080 -1.4514  0.7730  1.4897
10405TIP3    H252707   6.233   2.764   5.080 -0.9127 -1.8502 -1.4352
10406TIP3   OH252708   4.761   5.885  13.073  0.0892  0.3588 -0.2698
10406TIP3    H152709   4.801   5.829  13.140  0.8507  1.3353  0.1172
10406TIP3    H252710   4.833   5.905  13.013 -0.8142 -1.4241 -2.0638
10407TIP3   OH252711   5.409   4.778  16.559 -0.1630 -0.0385  0.0230
10407TIP3    H152712   5.360   4.859  16.545 -0.3479 -0.2272 -0.4472
10407TIP3    H252713   5.461   4.767  16.479  1.4583  0.7110  0.9202
10408TIP3   OH252714   3.622   1.299   2.033  0.3320  0.1439 -0.8393
10408TIP3    H152715   3.676   1.366   2.075 -0.2548  2.3763 -3.3952
10408TIP3    H252716   3.532   1.326   2.050 -0.1088 -2.3276  1.4842
10409TIP3   OH252717   2.428   0.082  14.812 -0.2127 -0.2994 -0.5007
10409TIP3    H152718   2.357   0.106  14.752  1.6273  1.5195 -2.1167
10409TIP3    H252719   2.410   0.132  14.891 -0.5825  0.3819 -1.0062
10410TIP3   OH252720   4.495   5.663   2.810  0.2422 -0.2146  0.1187
10410TIP3    H152721   4.509   5.725   2.881 -1.0824  0.5072 -0.2004
10410TIP3    H252722   4.564   5.683   2.746  0.1275  0.6034  0.2434
10411TIP3   OH252723   3.540   6.226   0.384 -0.3010 -0.2176 -0.2698
10411TIP3    H152724   3.471   6.161   0.401  1.0569 -2.1168 -1.5282
10411TIP3    H252725   3.552   6.270   0.468  0.0193 -2.9587  1.2519
10412TIP3   OH252726   3.108   3.666   1.155  0.3873 -0.2043  0.1679
10412TIP3    H152727   3.151   3.740   1.197  0.1625  0.7076 -1.1492
10412TIP3    H252728   3.018   3.696   1.139  0.1815 -0.8950 -0.0264
10413TIP3   OH252729   3.182   1.983   3.564  0.3096  0.2694 -0.0051
10413TIP3    H152730   3.263   1.964   3.611  0.5997 -0.7710 -0.8840
10413TIP3    H252731   3.118   1.924   3.603  0.0243  0.8932  0.4960
10414TIP3   OH252732   0.084   1.606   2.836  0.0086  0.6175  0.4015
10414TIP3    H152733   0.126   1.687   2.862 -0.4157  1.3201 -1.0287
10414TIP3    H252734   0.072   1.558   2.918  2.1506  1.0611  1.0304
10415TIP3   OH252735   3.829   0.632   0.647 -0.2779 -1.0797  0.0576
10415TIP3    H152736   3.787   0.612   0.731  0.6348 -2.3076  0.2536
10415TIP3    H252737   3.881   0.554   0.628  0.7123 -0.2054 -0.9164
10416TIP3   OH252738   2.793   1.206   1.858 -0.1103 -0.2314  0.0923
10416TIP3    H152739   2.855   1.250   1.916 -0.4284  0.5635 -0.1517
10416TIP3    H252740   2.792   1.260   1.779 -1.1705 -0.1876  0.1226
10417TIP3   OH252741   4.279   3.552   6.552 -0.0975  0.7384  0.1614
10417TIP3    H152742   4.285   3.591   6.465  0.3583  0.9379  0.2802
10417TIP3    H252743   4.240   3.621   6.607 -0.4207  0.5994  0.1120
10418TIP3   OH252744   5.993   1.966   3.506  0.3886 -0.0760  0.3261
10418TIP3    H152745   5.961   1.889   3.459  3.3059 -0.9073 -0.4951
10418TIP3    H252746   6.027   2.024   3.437 -0.6895  1.4739  1.0268
10419TIP3   OH252747   6.075   0.954  15.452  0.1884 -0.1471 -0.2616
10419TIP3    H152748   6.070   0.953  15.356  0.6468  1.3179 -0.3251
10419TIP3    H252749   6.162   0.918  15.472 -0.1800 -1.1169 -0.3453
10420TIP3   OH252750   0.546   3.391   1.273 -0.3596  0.2177  0.1461
10420TIP3    H152751   0.535   3.460   1.340 -0.2538  2.3128 -1.8608
10420TIP3    H252752   0.528   3.310   1.320  2.0257  1.2839  3.3508
10421TIP3   OH252753   4.105   4.789   0.570  0.1002  0.3019  0.4723
10421TIP3    H152754   4.063   4.791   0.484 -0.6240  1.2896  0.8259
10421TIP3    H252755   4.054   4.850   0.623  0.4775 -0.3622  1.6402
10422TIP3   OH252756   1.845   6.625  12.623  0.0265 -0.1321  0.5234
10422TIP3    H152757   1.908   6.656  12.558 -0.6248 -3.4243 -1.9072
10422TIP3    H252758   1.770   6.683  12.614  0.7204  0.6798 -0.2179
10423TIP3   OH252759   3.506   4.588   5.860 -0.0797  0.1565 -0.3886
10423TIP3    H152760   3.501   4.523   5.930 -0.6345  1.0010  0.3647
10423TIP3    H252761   3.416   4.614   5.844  0.1021  0.4594 -0.9566
10424TIP3   OH252762   5.543   2.823  15.049 -0.7854 -0.0355  0.0212
10424TIP3    H152763   5.511   2.775  14.972 -0.9613 -1.6850  1.0747
10424TIP3    H252764   5.479   2.893  15.062 -1.2346 -0.2740 -0.8245
10425TIP3   OH252765   2.897   3.179  11.380  0.1820  0.2036 -0.1160
10425TIP3    H152766   2.884   3.265  11.419  0.2432  0.0786  0.1825
10425TIP3    H252767   2.810   3.140  11.377  0.2939 -0.1257  0.6937
10426TIP3   OH252768   6.515   6.485   4.490  0.2632  0.6503 -0.1857
10426TIP3    H152769   6.580   6.523   4.430  0.3267  1.1836  0.2225
10426TIP3    H252770   6.436   6.475   4.436  0.3663  0.9803 -0.3985
10427TIP3   OH252771   0.745   6.363  10.938 -0.2287  0.0384  0.2605
10427TIP3    H152772   0.649   6.362  10.936 -0.2317  0.9385 -1.3259
10427TIP3    H252773   0.770   6.272  10.928 -0.8944 -0.3350  1.6507
10428TIP3   OH252774   2.867   1.834  13.284  0.4838  0.2377  0.5891
10428TIP3    H152775   2.921   1.757  13.269  1.1232  0.4967  1.4681
10428TIP3    H252776   2.903   1.900  13.225  1.6679  0.6455  1.7221
10429TIP3   OH252777   3.522   4.437   1.249  0.1661 -0.3451 -0.5941
10429TIP3    H152778   3.563   4.495   1.185 -0.1022 -0.9355 -1.3177
10429TIP3    H252779   3.432   4.468   1.255  1.0645  2.1694  2.4092
10430TIP3   OH252780   6.292   6.226   1.029  0.1337 -0.6725  0.4099
10430TIP3    H152781   6.381   6.191   1.035  0.5585  0.1957 -0.4824
10430TIP3    H252782   6.277   6.268   1.113  0.4491 -1.0808  0.6748
10431TIP3   OH252783   2.059   6.746  16.704 -0.6221  0.2231  0.2360
10431TIP3    H152784   2.111   6.668  16.688  0.8623  1.4862 -1.5263
10431TIP3    H252785   2.023   6.769  16.618 -2.2612  0.6633  1.0010
10432TIP3   OH252786   0.593   6.463   6.049  0.2861  0.1692  0.7160
10432TIP3    H152787   0.674   6.472   5.998 -0.3721  0.3359 -0.3242
10432TIP3    H252788   0.606   6.384   6.101  0.4030 -0.8779 -0.8361
10433TIP3   OH252789   4.923   2.934  14.108  0.4405 -0.3368 -0.1947
10433TIP3    H152790   4.907   2.889  14.025 -1.0177 -1.6427  0.7554
10433TIP3    H252791   4.860   3.007  14.107 -1.0667 -1.5887  0.6501
10434TIP3   OH252792   6.581   1.011  16.038 -0.2809  0.6727  0.1866
10434TIP3    H152793   6.525   1.081  16.072 -0.4176  0.9908 -0.6711
10434TIP3    H252794   6.670   1.046  16.047 -0.3630  1.0644 -0.4630
10435TIP3   OH252795   1.331   1.879  12.199 -0.5202 -0.0747 -0.6738
10435TIP3    H152796   1.402   1.834  12.245 -0.7036 -0.1658 -0.4780
10435TIP3    H252797   1.366   1.965  12.179  0.2627 -0.6971 -2.1024
10436TIP3   OH252798   1.831   3.927  15.221  0.6674 -0.4470  0.1500
10436TIP3    H152799   1.861   3.875  15.295  2.0626 -1.3302 -0.9683
10436TIP3    H252800   1.758   3.877  15.184 -1.0081  0.7209  1.7221
10437TIP3   OH252801   4.525   2.039  14.928  0.1084  0.0957  0.2196
10437TIP3    H152802   4.536   2.131  14.907  1.2664 -0.3612 -1.3611
10437TIP3    H252803   4.543   2.033  15.022 -0.9322  1.5961  0.5384
10438TIP3   OH252804   4.987   0.580   0.167 -0.1324  0.5935 -0.6460
10438TIP3    H152805   4.961   0.667   0.138  2.4432  1.9260  0.6931
10438TIP3    H252806   4.940   0.567   0.249 -0.0654  0.9703 -0.5477
10439TIP3   OH252807   0.719   0.379  14.432  0.2785  0.3359 -0.3269
10439TIP3    H152808   0.650   0.430  14.389 -1.5772 -0.3588  1.6260
10439TIP3    H252809   0.788   0.443  14.449 -1.1673  1.8317  0.3300
10440TIP3   OH252810   2.019   0.588   4.633  0.1074 -0.1174 -0.1863
10440TIP3    H152811   2.053   0.647   4.565  1.1607 -0.8235 -0.2757
10440TIP3    H252812   1.931   0.566   4.602 -0.2036  1.1655 -0.2967
10441TIP3   OH252813   4.887   4.314   2.340 -0.6481  0.3138  0.0823
10441TIP3    H152814   4.966   4.312   2.394  0.2869  0.5166 -1.2412
10441TIP3    H252815   4.919   4.307   2.250 -2.0466  1.5277 -0.5531
10442TIP3   OH252816   0.203   1.934  13.227  0.2432  0.5522 -0.4094
10442TIP3    H152817   0.222   1.951  13.135  0.3807  1.5470 -0.2018
10442TIP3    H252818   0.228   2.014  13.272 -1.3296  0.6703  0.2955
10443TIP3   OH252819   3.129   2.605  10.521  0.0789 -0.6004 -0.2083
10443TIP3    H152820   3.140   2.676  10.583  0.6185 -1.3663  0.5879
10443TIP3    H252821   3.064   2.637  10.459  1.0996  1.0023 -0.4948
10444TIP3   OH252822   1.454   2.627   0.364  0.6377 -0.1668 -0.0267
10444TIP3    H152823   1.443   2.534   0.347  0.5141 -0.1475 -0.0534
10444TIP3    H252824   1.439   2.669   0.279  1.8616 -0.2082 -0.2812
10445TIP3   OH252825   0.489   0.986  16.656 -0.1658 -0.0575 -0.1846
10445TIP3    H152826   0.541   0.988  16.735 -0.4386  0.3320 -0.0104
10445TIP3    H252827   0.491   1.076  16.623 -1.6896  0.2579  0.4717
10446TIP3   OH252828   5.587   2.201  13.871 -0.0435 -0.3245  0.2495
10446TIP3    H152829   5.528   2.267  13.833 -0.9740  0.3521  2.7130
10446TIP3    H252830   5.528   2.138  13.914  0.8739 -2.2812 -1.1622
10447TIP3   OH252831   5.663   0.688   1.972  0.1939  0.0628 -0.2626
10447TIP3    H152832   5.748   0.731   1.975  0.1029  0.3476 -1.3559
10447TIP3    H252833   5.635   0.684   2.063  2.2036 -1.7607  0.3622
10448TIP3   OH252834   2.792   6.328   3.333  0.2610  0.3529 -0.4438
10448TIP3    H152835   2.770   6.235   3.327 -0.7167  0.5689 -0.2666
10448TIP3    H252836   2.761   6.365   3.251 -1.6557  0.9730  0.5148
10449TIP3   OH252837   3.213   4.191   1.741  0.2508  0.4048 -0.0464
10449TIP3    H152838   3.223   4.179   1.647 -0.1964 -3.9854  0.2455
10449TIP3    H252839   3.296   4.228   1.769  0.8015  0.7880 -2.0085
10450TIP3   OH252840   3.903   1.238   2.551 -0.3596 -0.9880 -0.3108
10450TIP3    H152841   3.994   1.266   2.559 -0.0872 -2.2045  1.2297
10450TIP3    H252842   3.900   1.153   2.595 -2.0286 -1.4486 -1.2254
10451TIP3   OH252843   0.533   4.189  16.847  0.6366 -0.1005  0.0992
10451TIP3    H152844   0.496   4.141  16.920 -0.6343  1.8111  0.7773
10451TIP3    H252845   0.627   4.191  16.864  0.3529  0.4381  1.8049
10452TIP3   OH252846   6.591   5.073   2.414  0.5400  0.0433 -0.0014
10452TIP3    H152847   6.512   5.094   2.364  1.2105 -1.3772 -1.7758
10452TIP3    H252848   6.663   5.087   2.352  1.3642 -2.4420  0.2775
10453TIP3   OH252849   3.465   3.160   4.608  0.1685  0.3524  0.0172
10453TIP3    H152850   3.410   3.162   4.529 -0.6867  0.3481  0.6008
10453TIP3    H252851   3.432   3.231   4.662 -0.2745 -0.6070  1.0453
10454TIP3   OH252852   1.232   0.942  14.200  0.1698 -0.0759 -0.3958
10454TIP3    H152853   1.159   0.893  14.240  0.2799 -1.4426 -1.7740
10454TIP3    H252854   1.309   0.911  14.247 -0.0284  0.8205  0.5605
10455TIP3   OH252855   6.268   0.106   4.274  0.1891 -0.1188 -0.3488
10455TIP3    H152856   6.185   0.131   4.315  0.3940  1.1668 -0.6664
10455TIP3    H252857   6.259   0.135   4.183 -0.2240 -2.8425 -1.2482
10456TIP3   OH252858   0.997   6.799   5.454 -0.2025  0.4187 -0.0556
10456TIP3    H152859   1.047   6.735   5.504  1.5506  0.6849 -1.3920
10456TIP3    H252860   0.908   6.764   5.453 -0.1868  0.0814  2.6269
10457TIP3   OH252861   5.947   4.590  11.539 -0.1187  0.0622 -0.4915
10457TIP3    H152862   5.917   4.500  11.532  2.1516 -0.8226  0.1812
10457TIP3    H252863   5.918   4.618  11.626  2.2561 -1.3616  0.8638
10458TIP3   OH252864   3.924   4.898   1.926  0.1711 -0.5162  0.4176
10458TIP3    H152865   3.915   4.803   1.933  2.8747 -0.9518 -0.8473
10458TIP3    H252866   3.936   4.927   2.016 -1.4413 -1.2107  0.9034
10459TIP3   OH252867   2.599   0.294   0.113  0.2696  0.2843  0.6509
10459TIP3    H152868   2.504   0.294   0.106  0.1297 -4.1559 -1.1392
10459TIP3    H252869   2.629   0.308   0.023  1.2846  0.9246  1.0795
10460TIP3   OH252870   1.981   6.769   1.912  0.2832  0.3866  0.4623
10460TIP3    H152871   1.929   6.812   1.845 -2.3398 -1.7645  0.9206
10460TIP3    H252872   1.955   6.811   1.994  1.2158  0.9805  0.4703
10461TIP3   OH252873   1.654   2.158  12.014 -0.1193  0.2970 -0.4344
10461TIP3    H152874   1.688   2.211  11.942 -0.1267  2.4135  1.0410
10461TIP3    H252875   1.565   2.134  11.985  0.4317 -0.2386 -1.7689
10462TIP3   OH252876   0.400   4.856  14.973 -0.2997  0.2396 -0.0419
10462TIP3    H152877   0.446   4.860  15.057  0.2970  4.3749 -0.3576
10462TIP3    H252878   0.308   4.846  14.996  0.0008 -0.2277  1.0096
10463TIP3   OH252879   5.483   1.972  13.404  0.4271  0.2691 -0.2841
10463TIP3    H152880   5.478   2.021  13.486 -1.1126  1.2281 -0.8944
10463TIP3    H252881   5.408   1.912  13.407 -1.2343  2.0975 -2.0055
10464TIP3   OH252882   0.468   1.024  16.287 -0.5500 -0.1848 -0.2905
10464TIP3    H152883   0.552   1.016  16.331 -0.3277 -0.7441 -0.8155
10464TIP3    H252884   0.403   1.006  16.355 -0.3443  1.9807  0.5740
10465TIP3   OH252885   4.213   6.549   4.612 -0.3721 -0.2125 -0.1013
10465TIP3    H152886   4.168   6.620   4.566 -1.3497 -0.0737  1.0283
10465TIP3    H252887   4.153   6.474   4.605  0.3565 -0.7630 -0.7120
10466TIP3   OH252888   5.617   2.303  13.482 -0.5231  0.5662  0.0450
10466TIP3    H152889   5.676   2.257  13.542 -0.2993  0.6344 -0.1205
10466TIP3    H252890   5.539   2.248  13.478 -0.2922  0.2456 -0.0848
10467TIP3   OH252891   4.552   3.291   5.429  0.0994  0.3861  0.1317
10467TIP3    H152892   4.599   3.210   5.448 -1.2633 -0.7871 -1.2379
10467TIP3    H252893   4.486   3.266   5.364  1.9108  3.2474 -3.1758
10468TIP3   OH252894   3.027   5.767   4.196 -0.4891  0.3535  0.5737
10468TIP3    H152895   3.022   5.697   4.262  0.2117 -0.8088 -0.5398
10468TIP3    H252896   3.096   5.825   4.228 -0.3466 -0.0456  1.0064
10469TIP3   OH252897   5.126   6.621   2.520 -0.1552  0.1435  0.5540
10469TIP3    H152898   5.044   6.669   2.528 -0.3165  0.1848 -1.0795
10469TIP3    H252899   5.110   6.538   2.567 -1.3112 -0.0646 -0.1799
10470TIP3   OH252900   3.723   3.295   5.343  0.2238  0.3336 -0.4613
10470TIP3    H152901   3.670   3.224   5.377  0.6747  0.8697  1.4484
10470TIP3    H252902   3.743   3.269   5.253 -2.3379 -0.3780 -0.8870
10471TIP3   OH252903   1.999   2.020   3.618 -0.4322  0.4118  0.5363
10471TIP3    H152904   1.973   2.107   3.650  1.8460  1.1522  0.5598
10471TIP3    H252905   2.008   2.031   3.524 -2.9901 -0.6497  0.0848
10472TIP3   OH252906   6.247   2.765  14.196  0.4764  0.3197 -0.2162
10472TIP3    H152907   6.273   2.675  14.215  2.5643  0.7383 -0.7955
10472TIP3    H252908   6.167   2.756  14.145 -0.2398 -1.1195  1.0758
10473TIP3   OH252909   1.537   0.628   2.567 -0.4390 -0.2966  0.9390
10473TIP3    H152910   1.543   0.605   2.660 -0.9867  0.1235  1.0828
10473TIP3    H252911   1.622   0.666   2.546 -0.0715 -1.0025  1.0922
10474TIP3   OH252912   2.612   4.767  14.663  0.5882  0.0342 -0.4875
10474TIP3    H152913   2.587   4.799  14.577  1.1397 -0.4945 -0.8568
10474TIP3    H252914   2.554   4.693  14.679 -1.4056  1.7681  0.8224
10475TIP3   OH252915   6.524   4.746   3.155 -0.4131  0.1166 -0.7493
10475TIP3    H152916   6.460   4.806   3.192 -0.5207  0.1678 -1.0136
10475TIP3    H252917   6.514   4.756   3.060  0.6245  0.8095 -0.7942
10476TIP3   OH252918   0.952   5.168   6.207 -0.3494  0.1376 -0.4236
10476TIP3    H152919   0.858   5.166   6.223 -0.2422 -0.2414  0.1895
10476TIP3    H252920   0.962   5.133   6.119 -0.7221 -0.5662 -0.1951
10477TIP3   OH252921   2.000   5.650   1.026  0.4439 -0.3885  0.5691
10477TIP3    H152922   2.011   5.598   1.105  1.6809  1.4337  1.6702
10477TIP3    H252923   1.945   5.723   1.052  1.1634  0.4377 -0.1295
10478TIP3   OH252924   6.508   4.068   2.519  0.2368  0.3252  0.3889
10478TIP3    H152925   6.508   4.115   2.602 -1.2498  0.8036  0.1433
10478TIP3    H252926   6.449   3.994   2.533 -0.1311  0.4864 -0.2773
10479TIP3   OH252927   0.359   0.938   2.273  0.1703  0.6920 -0.1082
10479TIP3    H152928   0.314   0.892   2.202 -2.8550  0.6314  1.6593
10479TIP3    H252929   0.356   0.876   2.347  0.3202  1.9269  0.9668
10480TIP3   OH252930   4.713   3.548   0.048 -0.2900 -0.2529  0.1366
10480TIP3    H152931   4.716   3.595   0.132  0.7288 -0.7867  0.4176
10480TIP3    H252932   4.715   3.456   0.073 -1.4724 -0.4511 -0.4421
10481TIP3   OH252933   5.380   4.698  14.657  0.3818  0.2067 -0.5258
10481TIP3    H152934   5.387   4.793  14.641  0.0824  0.7637  2.1907
10481TIP3    H252935   5.470   4.666  14.652  1.3792  1.7000  3.6865
10482TIP3   OH252936   2.488   1.087  14.858 -0.4748  0.2262  0.4043
10482TIP3    H152937   2.568   1.035  14.851 -0.1471  0.9954 -2.7954
10482TIP3    H252938   2.421   1.035  14.816 -0.0563  2.2888 -3.2454
10483TIP3   OH252939   4.089   2.123   1.456  0.0814 -0.0085 -0.0594
10483TIP3    H152940   4.155   2.102   1.522  0.2615  0.8995  0.0507
10483TIP3    H252941   4.133   2.180   1.394 -1.0238  2.0621  0.9459
10484TIP3   OH252942   0.361   5.440   0.514 -0.1117  0.0198 -0.6118
10484TIP3    H152943   0.448   5.450   0.552 -0.2659  0.5872 -0.4042
10484TIP3    H252944   0.303   5.484   0.575 -0.4683  0.1820 -1.0622
10485TIP3   OH252945   1.063   3.807  16.339 -0.3189  0.3683 -0.2077
10485TIP3    H152946   1.085   3.772  16.426 -0.9111 -0.9677 -0.5631
10485TIP3    H252947   1.072   3.901  16.348  1.7611  0.1433  0.7221
10486TIP3   OH252948   2.935   0.275  10.458 -0.6810  0.2682 -0.1358
10486TIP3    H152949   2.876   0.331  10.408  0.4265  1.4025 -0.2284
10486TIP3    H252950   2.943   0.195  10.406  0.2948  1.3436 -1.7056
10487TIP3   OH252951   1.432   5.978   0.941  0.3980 -0.1719 -0.1732
10487TIP3    H152952   1.338   5.995   0.931  0.4861  0.1367 -0.4925
10487TIP3    H252953   1.449   5.904   0.883  0.6217  0.6777 -1.2346
10488TIP3   OH252954   2.156   2.037   4.624 -0.1043 -0.0018  0.1468
10488TIP3    H152955   2.186   2.060   4.536  1.1826 -2.8533 -0.2681
10488TIP3    H252956   2.077   2.089   4.637  1.0141  2.3638 -1.6485
10489TIP3   OH252957   0.725   0.163   2.082  0.6839 -0.3826  0.0790
10489TIP3    H152958   0.737   0.069   2.073 -1.0551 -0.6359  0.1019
10489TIP3    H252959   0.730   0.197   1.992 -0.8534 -0.7989 -0.1771
10490TIP3   OH252960   4.828   2.780   4.061 -0.6016 -0.2349 -0.5016
10490TIP3    H152961   4.920   2.763   4.042 -0.7655 -2.5738  0.4588
10490TIP3    H252962   4.800   2.840   3.992  1.2401 -0.6856 -1.7209
10491TIP3   OH252963   4.282   3.151  15.827 -0.3414  0.3764 -0.1657
10491TIP3    H152964   4.228   3.192  15.759 -0.0628 -0.1102 -0.6851
10491TIP3    H252965   4.274   3.057  15.811  2.1332  0.2915 -1.4506
10492TIP3   OH252966   5.742   3.988  11.626 -0.3107  0.1275  0.1626
10492TIP3    H152967   5.743   4.083  11.629  0.7831  0.1160  1.6749
10492TIP3    H252968   5.724   3.966  11.535  0.4118  1.7881 -0.4167
10493TIP3   OH252969   3.642   2.638   0.044  0.5653  0.4353 -0.1230
10493TIP3    H152970   3.578   2.678   0.103  0.7815  1.6696 -0.7130
10493TIP3    H252971   3.592   2.571  -0.003 -0.0628  0.7242  0.1185
10494TIP3   OH252972   5.360   1.878   5.686 -0.0749 -0.6356 -0.7479
10494TIP3    H152973   5.278   1.925   5.703  0.2437 -0.0149 -0.8757
10494TIP3    H252974   5.336   1.811   5.622 -0.7406 -1.3066  0.1898
10495TIP3   OH252975   6.422   1.637  15.401  0.0565 -0.0045 -0.1227
10495TIP3    H152976   6.504   1.665  15.361  0.8925  0.4325  1.7881
10495TIP3    H252977   6.375   1.719  15.418 -0.4768 -0.2111 -0.5577
10496TIP3   OH252978   6.149   1.481  15.453 -0.1009 -0.1816  0.0975
10496TIP3    H152979   6.086   1.511  15.387 -1.6151 -0.7706  1.1995
10496TIP3    H252980   6.191   1.560  15.485  0.2419  0.1638 -1.1497
10497TIP3   OH252981   2.629   2.693   1.188  0.3858  0.3502 -0.3028
10497TIP3    H152982   2.680   2.774   1.185 -1.2378  1.3987 -1.5445
10497TIP3    H252983   2.661   2.641   1.115  0.8401  0.2473 -0.0317
10498TIP3   OH252984   4.882   3.975  16.744  0.1250 -0.4066  0.0680
10498TIP3    H152985   4.919   3.902  16.695 -0.7422  0.3175 -1.7972
10498TIP3    H252986   4.895   3.953  16.836  1.6736 -1.9314 -0.4758
10499TIP3   OH252987   3.958   0.163  16.348 -0.0328 -0.0053 -0.2129
10499TIP3    H152988   4.007   0.140  16.269 -1.3351  0.1876 -1.1146
10499TIP3    H252989   3.881   0.211  16.316 -1.2236 -0.9600  1.0720
10500TIP3   OH252990   3.991   3.892  14.859 -0.0290  0.7539 -0.8112
10500TIP3    H152991   4.015   3.948  14.785  0.0521  0.8494 -0.7131
10500TIP3    H252992   3.926   3.943  14.907  1.4261  1.5776  0.3365
10501TIP3   OH252993   3.991   3.020  15.943 -0.5129  0.4007 -0.5808
10501TIP3    H152994   3.986   3.037  16.037  2.5276 -2.1343  0.2245
10501TIP3    H252995   4.054   3.085  15.911  1.3918 -1.0644 -0.0031
10502TIP3   OH252996   0.249   0.173   4.719  0.3117  0.3723  0.1641
10502TIP3    H152997   0.213   0.238   4.779 -0.2515  0.5890 -0.4004
10502TIP3    H252998   0.344   0.175   4.735  0.3379  1.5749 -0.0771
10503TIP3   OH252999   2.313   3.511   2.905  0.2211 -0.0129  0.0904
10503TIP3    H153000   2.348   3.575   2.843 -1.0647  0.4686 -0.1799
10503TIP3    H253001   2.228   3.486   2.868  0.2404 -1.1056  0.7290
10504TIP3   OH253002   5.411   3.545   2.332  0.1521  0.0270 -0.7887
10504TIP3    H153003   5.337   3.595   2.297  0.2313  1.2506  0.6800
10504TIP3    H253004   5.394   3.541   2.426  1.5241 -0.4184 -0.5455
10505TIP3   OH253005   0.933   1.030  15.205  0.0125  0.0127 -0.4179
10505TIP3    H153006   1.008   1.042  15.146 -0.8157 -1.4082 -1.8476
10505TIP3    H253007   0.908   1.119  15.230  1.6294  0.5556 -0.5827
10506TIP3   OH253008   3.714   3.405   3.828 -0.6738  0.0921 -0.9586
10506TIP3    H153009   3.786   3.350   3.860 -1.3070  0.0146  0.4018
10506TIP3    H253010   3.643   3.390   3.890 -0.3180  3.7944  0.6008
10507TIP3   OH253011   5.249   4.496   5.018 -0.1817  0.0308  0.3104
10507TIP3    H153012   5.238   4.562   4.950 -0.9852 -0.2847  0.1218
10507TIP3    H253013   5.210   4.535   5.096  0.3970  0.2394  0.5021
10508TIP3   OH253014   4.020   4.500  10.929  0.0379 -0.3355  0.1444
10508TIP3    H153015   4.071   4.419  10.933  1.6960  0.6383 -0.3526
10508TIP3    H253016   4.062   4.552  10.860 -1.9545  0.3258 -0.6517
10509TIP3   OH253017   6.607   3.996  11.858  0.1747 -0.0750  0.4428
10509TIP3    H153018   6.648   3.942  11.791 -2.7820 -0.3483 -1.3572
10509TIP3    H253019   6.644   4.084  11.845  0.9264 -0.5044 -0.3622
10510TIP3   OH253020   5.650   5.013   1.271  0.2385  0.1518 -0.2611
10510TIP3    H153021   5.683   4.978   1.354  0.5019 -2.3065 -1.3252
10510TIP3    H253022   5.571   4.962   1.253 -0.4925  1.4776 -0.9627
10511TIP3   OH253023   6.644   1.959  15.550  0.5847  0.6267 -0.1610
10511TIP3    H153024   6.688   1.911  15.480 -0.1089  1.5474 -1.2560
10511TIP3    H253025   6.601   1.891  15.602 -0.1730  0.0144 -1.5448
10512TIP3   OH253026   1.472   2.930   5.617  0.3578 -0.6365 -0.1093
10512TIP3    H153027   1.475   2.936   5.522  1.3494  0.2051 -0.0459
10512TIP3    H253028   1.380   2.913   5.637 -0.3959  1.8261 -1.1022
10513TIP3   OH253029   3.547   0.278  13.773 -0.5056 -0.0771 -0.0059
10513TIP3    H153030   3.570   0.186  13.756 -1.1492 -0.1269 -0.6655
10513TIP3    H253031   3.605   0.328  13.716  0.4254 -0.0206  0.9641
10514TIP3   OH253032   6.130   4.471  13.414 -0.0690 -0.0987 -0.2387
10514TIP3    H153033   6.173   4.518  13.343 -0.6644 -1.3949 -1.5138
10514TIP3    H253034   6.073   4.408  13.370  1.0560 -2.3680  1.3477
10515TIP3   OH253035   4.106   3.473   3.679  0.0462 -0.1314  0.4314
10515TIP3    H153036   4.079   3.396   3.630 -2.1860 -0.3484  1.8400
10515TIP3    H253037   4.127   3.439   3.766  1.1200  0.5950  0.4688
10516TIP3   OH253038   2.627   3.009  14.945  0.8892  0.1918  0.5817
10516TIP3    H153039   2.628   2.946  15.016 -2.5833 -1.1232 -0.3421
10516TIP3    H253040   2.583   2.964  14.873 -0.4165  3.0992 -0.6329
10517TIP3   OH253041   0.807   5.622   1.342 -0.2510 -0.4533  0.3954
10517TIP3    H153042   0.865   5.563   1.294 -0.8000 -1.1634  0.5787
10517TIP3    H253043   0.854   5.643   1.422 -0.1443 -0.8247  0.4294
10518TIP3   OH253044   4.570   4.341  15.837  0.1255 -0.5369 -0.7216
10518TIP3    H153045   4.557   4.328  15.743  1.8950 -0.6306 -0.9848
10518TIP3    H253046   4.523   4.267  15.877  1.0891 -1.7018 -1.6563
10519TIP3   OH253047   2.310   0.758  13.567 -0.1618 -0.4548  0.1707
10519TIP3    H153048   2.272   0.691  13.624  1.4925 -0.4284  1.3918
10519TIP3    H253049   2.340   0.709  13.490 -1.7849 -0.6016 -0.4035
10520TIP3   OH253050   0.686   4.589   2.997  0.2509  0.1077 -0.4587
10520TIP3    H153051   0.665   4.513   2.943  1.5162 -0.0292 -0.7819
10520TIP3    H253052   0.603   4.610   3.041  0.0301 -1.9037  0.2152
10521TIP3   OH253053   3.662   5.034  13.364  0.4582 -0.4289  0.3278
10521TIP3    H153054   3.610   5.012  13.441  0.8481 -0.2190  0.6569
10521TIP3    H253055   3.598   5.047  13.294  0.1263 -0.9662  0.5303
10522TIP3   OH253056   4.030   3.574  12.353 -0.4262  0.0636 -0.1730
10522TIP3    H153057   4.017   3.611  12.440 -1.3122 -1.0388  0.1881
10522TIP3    H253058   4.117   3.535  12.356 -1.6680 -2.9650  1.4316
10523TIP3   OH253059   4.258   1.729  15.930 -0.3459 -0.1929 -0.0358
10523TIP3    H153060   4.234   1.805  15.877  1.7981  0.5535 -0.0511
10523TIP3    H253061   4.351   1.716  15.912 -0.9184 -3.7788 -1.1287
10524TIP3   OH253062   5.358   4.731   2.604 -0.3414  0.3028 -0.8029
10524TIP3    H153063   5.440   4.758   2.563 -1.1435  2.2393 -1.2414
10524TIP3    H253064   5.311   4.685   2.534  1.2126 -2.8803  0.0706
10525TIP3   OH253065   0.081   2.493   2.635 -0.1715  0.4471 -0.1128
10525TIP3    H153066  -0.004   2.536   2.644  0.9401  2.4825  1.7733
10525TIP3    H253067   0.113   2.485   2.725  2.2183  1.0707 -0.8319
10526TIP3   OH253068   2.928   3.059   3.680  0.0731 -0.2788  0.6093
10526TIP3    H153069   2.867   3.109   3.626  1.6820  0.8660 -0.2079
10526TIP3    H253070   2.971   2.999   3.619  1.6060  0.7365  0.6281
10527TIP3   OH253071   3.132   2.379   3.268  0.3459 -0.1682  0.2360
10527TIP3    H153072   3.184   2.443   3.219 -2.8148  2.4802  0.0139
10527TIP3    H253073   3.119   2.307   3.207  0.4901  0.8959 -1.0948
10528TIP3   OH253074   4.154   6.032  12.732  0.5254  0.3422 -0.0785
10528TIP3    H153075   4.172   6.049  12.825  1.3482 -1.0769  0.0465
10528TIP3    H253076   4.059   6.022  12.727  0.4659  0.5389  0.5910
10529TIP3   OH253077   1.147   4.044   1.055  0.2458  0.3486  0.0047
10529TIP3    H153078   1.100   3.978   1.005  0.2028  0.2940  0.1168
10529TIP3    H253079   1.189   4.099   0.989 -0.2206  0.5801 -0.1024
10530TIP3   OH253080   4.645   5.970  15.159 -0.0222  0.0936 -0.2080
10530TIP3    H153081   4.597   6.006  15.233 -0.3650 -0.2678 -0.2591
10530TIP3    H253082   4.733   6.008  15.168  0.1887 -0.5889  0.8520
10531TIP3   OH253083   6.505   3.423  12.468 -0.3942  0.3136 -0.5841
10531TIP3    H153084   6.451   3.406  12.391  1.2322  0.0689 -1.7327
10531TIP3    H253085   6.593   3.394  12.443 -0.0428 -1.0820  1.8537
10532TIP3   OH253086   2.916   0.550   2.465 -0.3280 -0.5765 -0.0948
10532TIP3    H153087   2.939   0.580   2.553  0.5761 -0.5883 -0.3115
10532TIP3    H253088   2.935   0.626   2.409  0.3923 -0.9950 -0.4354
10533TIP3   OH253089   1.870   4.975   0.221 -0.1289 -0.5070 -0.0515
10533TIP3    H153090   1.782   4.984   0.257  0.3538 -0.5141  1.1819
10533TIP3    H253091   1.856   4.943   0.132 -1.4490  1.7596 -0.7433
10534TIP3   OH253092   2.176   6.768  15.943  0.6907 -0.1210 -0.2138
10534TIP3    H153093   2.247   6.802  15.889  0.9614 -0.3249  0.0096
10534TIP3    H253094   2.156   6.838  16.005  1.6237 -0.5543  0.6087
10535TIP3   OH253095   1.081   4.622  14.183 -0.0207 -0.4933  0.1613
10535TIP3    H153096   1.117   4.630  14.094 -0.8788 -0.5541 -0.2059
10535TIP3    H253097   1.097   4.707  14.223 -0.3795 -0.1670 -0.3596
10536TIP3   OH253098   5.825   4.537   1.750 -0.2467 -0.0625 -0.5335
10536TIP3    H153099   5.769   4.494   1.685 -0.7221 -0.7382  0.2962
10536TIP3    H253100   5.913   4.504   1.733 -0.6460 -1.6163  0.2550
10537TIP3   OH253101   1.795   1.087  13.923  0.1412 -0.3251  0.5493
10537TIP3    H153102   1.776   1.066  13.831  1.2042  0.5736  0.0962
10537TIP3    H253103   1.710   1.114  13.959 -0.0062  0.9212 -0.6399
10538TIP3   OH253104   4.516   2.025   1.848 -0.0666  0.0030 -0.4775
10538TIP3    H153105   4.480   2.073   1.923  1.5096  0.6694 -0.0996
10538TIP3    H253106   4.572   1.958   1.888  3.8662  2.7136 -0.8863
10539TIP3   OH253107   2.173   5.246   3.985  0.5543 -0.5606 -0.4869
10539TIP3    H153108   2.112   5.180   3.953 -0.1143 -0.1699 -0.0576
10539TIP3    H253109   2.163   5.243   4.081 -0.6389  1.1782 -0.4919
10540TIP3   OH253110   1.547   2.540   1.035  0.4595 -0.1356 -0.3040
10540TIP3    H153111   1.538   2.447   1.056 -2.0628  0.1981  0.4711
10540TIP3    H253112   1.488   2.584   1.097  1.1183  1.9326 -1.0601
10541TIP3   OH253113   6.758   3.361  12.350  0.1657  0.3129  0.1804
10541TIP3    H153114   6.805   3.408  12.282 -2.1994  1.2584 -0.9050
10541TIP3    H253115   6.750   3.271  12.317 -2.1888  1.0803 -1.5705
10542TIP3   OH253116   5.902   4.977  12.579  0.6397  0.8669  0.3337
10542TIP3    H153117   5.962   4.930  12.522  0.0211 -0.3929  0.6822
10542TIP3    H253118   5.898   4.925  12.659  0.1697  1.6856  0.8685
10543TIP3   OH253119   5.327   3.925  13.757 -0.4841 -0.9160  0.0780
10543TIP3    H153120   5.256   3.920  13.694 -1.2261 -1.5939  0.9499
10543TIP3    H253121   5.307   4.002  13.810 -0.1181 -0.6285 -0.1910
10544TIP3   OH253122   3.489   0.470  11.606  0.3245  0.4301  0.4179
10544TIP3    H153123   3.500   0.375  11.609 -1.6681  0.2023  1.9173
10544TIP3    H253124   3.475   0.489  11.513  0.0641 -0.8171  0.1782
10545TIP3   OH253125   1.078   2.004   3.455  0.3128  0.4893 -0.3992
10545TIP3    H153126   1.149   1.952   3.417 -0.8229 -0.3425 -1.4846
10545TIP3    H253127   1.114   2.092   3.464  0.9655  0.4901 -2.5324
10546TIP3   OH253128   3.596   3.892  13.938 -0.0709  0.2997 -0.0402
10546TIP3    H153129   3.556   3.808  13.913 -0.1876  0.0746  0.8699
10546TIP3    H253130   3.630   3.927  13.856 -0.2034 -0.5412 -0.4704
10547TIP3   OH253131   2.393   6.808  12.836 -0.1387  0.3289 -0.1476
10547TIP3    H153132   2.475   6.827  12.791  0.6935 -0.7102  0.8614
10547TIP3    H253133   2.342   6.757  12.773 -0.6684  2.2181 -1.3249
10548TIP3   OH253134   5.355   2.614   5.712 -0.4664 -0.7282  0.0619
10548TIP3    H153135   5.421   2.545   5.722 -0.6138 -0.8620  0.1348
10548TIP3    H253136   5.331   2.612   5.620  2.0038  1.5369 -0.7233
10549TIP3   OH253137   3.195   4.303  15.437  0.0319  0.1666 -0.4097
10549TIP3    H153138   3.234   4.269  15.518 -1.2849 -0.6915 -0.0924
10549TIP3    H253139   3.152   4.384  15.463  0.4228  0.4001 -0.4735
10550TIP3   OH253140   6.734   6.521  15.727  0.0920  0.2801 -0.4609
10550TIP3    H153141   6.747   6.461  15.801 -0.7448  2.3701  1.5264
10550TIP3    H253142   6.819   6.526  15.685  1.0385  0.1464  1.3166
10551TIP3   OH253143   2.011   3.196  12.068 -0.0459  0.0474  0.1127
10551TIP3    H153144   1.969   3.183  11.983  1.0919  0.1862 -0.4941
10551TIP3    H253145   2.069   3.120  12.077  0.5429  0.5182  0.3287
10552TIP3   OH253146   4.943   0.303  11.705  0.2164  0.1712  1.0546
10552TIP3    H153147   4.951   0.362  11.630  1.1515  1.5009  2.1553
10552TIP3    H253148   4.848   0.292  11.716  0.0428 -1.4877 -1.3591
10553TIP3   OH253149   3.349   1.530   3.741  0.3364  0.5290  0.5059
10553TIP3    H153150   3.330   1.467   3.811  0.6452  0.2000  0.2996
10553TIP3    H253151   3.404   1.481   3.680  0.8196  1.0815  0.4830
10554TIP3   OH253152   4.383   1.126  16.611  0.0695 -0.1419  0.0920
10554TIP3    H153153   4.478   1.125  16.619  0.4928  3.1400 -2.3109
10554TIP3    H253154   4.352   1.134  16.702  2.2413  1.0367  0.8240
10555TIP3   OH253155   2.706   4.891  16.980  0.1416 -0.5782  0.5061
10555TIP3    H153156   2.727   4.877  17.072 -1.0280 -1.9800  0.5931
10555TIP3    H253157   2.620   4.932  16.981  0.4508  0.1024  0.0357
10556TIP3   OH253158   3.898   1.972   5.245 -0.7448  0.5885 -0.0810
10556TIP3    H153159   3.915   2.057   5.285 -1.6343  0.4195  0.6917
10556TIP3    H253160   3.831   1.932   5.300  0.6788 -1.2258  0.4186
10557TIP3   OH253161   2.510   2.108   0.996  0.6771 -0.4759  0.3099
10557TIP3    H153162   2.544   2.191   1.029  0.5337 -0.7900  1.2937
10557TIP3    H253163   2.573   2.081   0.929  0.4888  0.6253 -0.3155
10558TIP3   OH253164   6.014   1.732  13.197 -0.1710 -0.0352 -0.0442
10558TIP3    H153165   6.042   1.824  13.194 -1.0747  0.2529  0.0882
10558TIP3    H253166   6.016   1.704  13.105  0.0110  0.1434 -0.0964
10559TIP3   OH253167   4.554   3.707  16.636  0.0921 -0.1340 -0.0532
10559TIP3    H153168   4.612   3.711  16.713  0.6044 -1.6369 -0.3187
10559TIP3    H253169   4.474   3.666  16.669  0.1239 -0.3176 -0.2000
10560TIP3   OH253170   0.615   0.677  12.229  0.2651  0.0685 -0.7018
10560TIP3    H153171   0.573   0.607  12.280  1.3685  0.7321  1.2407
10560TIP3    H253172   0.567   0.756  12.254  1.4275  0.5501  0.1380
10561TIP3   OH253173   0.224   4.413   3.555  0.1909 -0.3821  0.3318
10561TIP3    H153174   0.142   4.370   3.582 -0.0955 -0.8645 -1.1920
10561TIP3    H253175   0.240   4.380   3.467  1.2872  0.8032  0.0628
10562TIP3   OH253176   0.750   2.882   3.683  0.6267 -0.1021 -0.0251
10562TIP3    H153177   0.842   2.905   3.698  0.6701  1.4052 -2.1610
10562TIP3    H253178   0.701   2.960   3.708  0.1624 -0.0438 -1.0558
10563TIP3   OH253179   1.653   1.562  13.259 -0.0440  0.0277 -0.3111
10563TIP3    H153180   1.718   1.545  13.326 -0.0218 -1.0516 -0.5855
10563TIP3    H253181   1.574   1.517  13.290 -0.1532 -0.1192 -0.7917
10564TIP3   OH253182   4.095   6.179   6.002 -0.3308 -0.0167  0.0128
10564TIP3    H153183   4.168   6.237   5.981  0.0090 -0.7503 -0.9148
10564TIP3    H253184   4.136   6.104   6.046 -0.6417  0.0027  0.3397
10565TIP3   OH253185   1.366   0.364  15.774 -0.7511  0.1698  0.8016
10565TIP3    H153186   1.383   0.364  15.680 -1.0167  0.5995  0.7518
10565TIP3    H253187   1.367   0.457  15.799 -0.5977  0.0539  1.2374
10566TIP3   OH253188   3.747   3.193   2.994  0.1910  0.1368  0.1597
10566TIP3    H153189   3.727   3.195   2.901  0.4266  2.1322  0.1027
10566TIP3    H253190   3.835   3.157   2.999 -0.5962 -1.9729 -0.1707
10567TIP3   OH253191   1.859   5.113  12.352  0.2207  0.2464  0.2465
10567TIP3    H153192   1.805   5.180  12.309 -1.4242 -0.1723  1.5432
10567TIP3    H253193   1.934   5.162  12.386 -0.0425  1.1117 -0.3732
10568TIP3   OH253194   0.999   3.786   1.218 -0.2862  0.0848 -0.0588
10568TIP3    H153195   0.924   3.795   1.276 -0.3543 -0.0154 -0.1310
10568TIP3    H253196   1.073   3.766   1.275 -0.7946 -2.5087 -0.2067
10569TIP3   OH253197   1.930   4.820  13.942 -0.0922  0.0661 -0.3787
10569TIP3    H153198   1.936   4.848  14.033  1.5747  0.2608 -0.5190
10569TIP3    H253199   1.908   4.727  13.946 -1.9578  0.4891  0.1569
10570TIP3   OH253200   0.083   0.236  16.686 -1.0784  0.1408 -0.1093
10570TIP3    H153201   0.109   0.327  16.702  0.5912 -0.1808 -0.8371
10570TIP3    H253202  -0.007   0.242  16.655 -1.3039  1.4622  0.6963
10571TIP3   OH253203   4.655   2.565   4.063  0.4579 -0.4739  0.6773
10571TIP3    H153204   4.693   2.533   3.981 -1.9678  0.5805 -0.9619
10571TIP3    H253205   4.722   2.622   4.100  2.2433 -2.2191  0.3296
10572TIP3   OH253206   6.446   3.717  16.365  0.1182  0.1545 -0.1117
10572TIP3    H153207   6.460   3.806  16.396  1.0611  0.0169 -0.1078
10572TIP3    H253208   6.475   3.718  16.274  1.2697 -0.4061  0.2194
10573TIP3   OH253209   6.085   0.222   0.170 -0.0910 -0.1877  0.2417
10573TIP3    H153210   6.112   0.136   0.136 -0.8654 -0.3290 -0.0481
10573TIP3    H253211   6.096   0.281   0.095 -2.1572 -0.5700 -0.4215
10574TIP3   OH253212   4.618   0.361  15.870  0.1470  0.2084  0.3818
10574TIP3    H153213   4.676   0.423  15.915  1.5192 -1.6314  1.3131
10574TIP3    H253214   4.641   0.276  15.908 -1.4944 -0.9105 -1.0003
10575TIP3   OH253215   6.710   4.190  15.041 -0.5292  0.6137  0.4332
10575TIP3    H153216   6.725   4.176  15.134  0.5888 -1.4227  0.0293
10575TIP3    H253217   6.619   4.164  15.027 -0.1574 -0.9544  0.6980
10576TIP3   OH253218   4.945   2.755  13.360  0.3556 -0.0486 -0.2459
10576TIP3    H153219   4.923   2.740  13.452 -0.1788 -0.5561 -0.4470
10576TIP3    H253220   4.969   2.847  13.356  0.0268  0.0737  0.3364
10577TIP3   OH253221   3.570   5.256  12.866 -0.0148 -0.1347  0.1254
10577TIP3    H153222   3.524   5.284  12.945 -0.1382 -0.9459  0.3485
10577TIP3    H253223   3.658   5.295  12.874 -0.3736  0.6921  0.1202
10578TIP3   OH253224   1.737   4.322  11.732 -0.0375  0.2355  0.2140
10578TIP3    H153225   1.770   4.364  11.811 -1.6508 -0.8904  1.5592
10578TIP3    H253226   1.671   4.383  11.698  0.1291  0.3865  0.1634
10579TIP3   OH253227   2.252   6.527   2.852  0.8806  0.4888 -0.2219
10579TIP3    H153228   2.331   6.578   2.871  0.5799  0.8519  0.0855
10579TIP3    H253229   2.200   6.584   2.796  1.9276 -0.7270 -2.5565
10580TIP3   OH253230   3.453   1.785  17.223 -0.2756  0.2764  0.1756
10580TIP3    H153231   3.492   1.746  17.302  0.8710  1.7291  0.3614
10580TIP3    H253232   3.399   1.715  17.187  1.9920 -1.6561  0.2647
10581TIP3   OH253233   0.613   5.537  14.492  0.7246  0.5663  0.4706
10581TIP3    H153234   0.605   5.530  14.587  2.6545  1.2481  0.7255
10581TIP3    H253235   0.543   5.597  14.467  0.1223  0.3007  1.4181
10582TIP3   OH253236   3.118   3.278  11.199 -0.3749  0.0653  0.4992
10582TIP3    H153237   3.117   3.374  11.195 -2.0571  0.0499 -0.5584
10582TIP3    H253238   3.050   3.256  11.263  0.5784 -0.4288  1.3629
10583TIP3   OH253239   5.572   4.713   1.003 -0.1526 -0.1846  0.3449
10583TIP3    H153240   5.593   4.626   0.970  0.9146 -0.4748  1.7201
10583TIP3    H253241   5.614   4.773   0.941  1.0370 -0.7010  0.6373
10584TIP3   OH253242   0.160   3.339   2.954 -0.2601  0.5958 -0.7845
10584TIP3    H153243   0.141   3.317   3.045  0.7120  0.1300 -0.6804
10584TIP3    H253244   0.252   3.317   2.942 -0.4010  0.5245 -1.9185
10585TIP3   OH253245   0.473   3.517   0.078  0.7392  0.0272 -0.4649
10585TIP3    H153246   0.547   3.458   0.088 -0.2883 -1.1131  0.7651
10585TIP3    H253247   0.495   3.593   0.131  1.0227 -0.3173 -0.0894
10586TIP3   OH253248   0.973   5.484   1.172 -0.7802 -0.5334  0.1896
10586TIP3    H153249   0.954   5.507   1.081  1.2609  0.1535 -0.1232
10586TIP3    H253250   0.972   5.389   1.174  0.6791 -0.6011 -0.9478
10587TIP3   OH253251   0.782   6.631   2.856  0.0361  0.5735  0.5645
10587TIP3    H153252   0.857   6.601   2.908  0.0908 -1.2717 -0.4753
10587TIP3    H253253   0.709   6.632   2.918  0.3968 -0.1527  1.0180
10588TIP3   OH253254   3.144   5.408  13.097  0.2268  0.4664 -0.1253
10588TIP3    H153255   3.172   5.457  13.175 -1.8391  0.7214  0.5198
10588TIP3    H253256   3.159   5.469  13.025  0.1156  1.0772  0.3519
10589TIP3   OH253257   1.293   3.730  15.629  0.4126 -0.3377  0.1873
10589TIP3    H153258   1.292   3.759  15.720 -0.8657 -0.1285  0.1254
10589TIP3    H253259   1.299   3.811  15.579 -1.6477 -0.1955  0.0531
10590TIP3   OH253260   5.633   2.662   1.973  0.0794  0.3049  0.0378
10590TIP3    H153261   5.635   2.569   1.949 -1.0540  0.3381 -0.2417
10590TIP3    H253262   5.549   2.694   1.939  0.7707  1.6117 -0.5132
10591TIP3   OH253263   2.529   5.227   5.262  0.0553  0.0786  0.4996
10591TIP3    H153264   2.601   5.171   5.232  2.2659  3.2513 -0.5762
10591TIP3    H253265   2.560   5.265   5.344 -0.9053  0.6861  0.5989
10592TIP3   OH253266   5.691   4.295  16.353 -0.3147  0.5052 -0.1148
10592TIP3    H153267   5.690   4.216  16.407  1.7255  1.3887  1.3752
10592TIP3    H253268   5.601   4.327  16.355 -1.0766 -1.4965 -0.3785
10593TIP3   OH253269   5.806   6.402  14.563  0.3226 -0.1945  0.4211
10593TIP3    H153270   5.778   6.469  14.625 -0.0452 -1.0053  1.1549
10593TIP3    H253271   5.736   6.399  14.498  0.3460  0.1334  0.3776
10594TIP3   OH253272   2.702   0.392  13.383 -0.3347 -0.2418  0.8592
10594TIP3    H153273   2.797   0.398  13.374 -0.2758 -0.5705  1.2770
10594TIP3    H253274   2.679   0.465  13.440 -0.8277  2.5188 -2.5008
10595TIP3   OH253275   2.411   2.679   1.369 -0.4337  0.1742  0.8916
10595TIP3    H153276   2.448   2.618   1.433  0.4303  0.2644  0.4933
10595TIP3    H253277   2.487   2.719   1.328 -0.9088 -1.0080 -1.2827
10596TIP3   OH253278   0.926   4.755  12.391 -0.3883 -0.5106 -0.2971
10596TIP3    H153279   0.920   4.850  12.385 -0.2055 -0.4578  0.2902
10596TIP3    H253280   1.019   4.735  12.381 -0.3233 -0.5610  0.3378
10597TIP3   OH253281   1.225   1.021  16.935 -0.2359 -0.1745 -0.4659
10597TIP3    H153282   1.195   1.104  16.972  0.4859  1.0074 -2.3790
10597TIP3    H253283   1.170   1.008  16.858 -0.7673 -1.8443  0.1503
10598TIP3   OH253284   4.588   3.122   0.789 -0.5716 -0.1561  0.0880
10598TIP3    H153285   4.628   3.065   0.855 -1.3897  2.2802  2.9231
10598TIP3    H253286   4.640   3.203   0.793 -2.2928  1.0321 -0.2178
10599TIP3   OH253287   6.609   2.787  13.256 -0.1361  0.0308  0.5356
10599TIP3    H153288   6.671   2.850  13.219 -1.7905  1.8456  0.7007
10599TIP3    H253289   6.630   2.704  13.212  0.9470  1.0824 -1.0399
10600TIP3   OH253290   4.369   5.661   3.499 -0.7091 -0.4613  0.2789
10600TIP3    H153291   4.406   5.671   3.586 -0.9140  2.9465  0.1020
10600TIP3    H253292   4.445   5.663   3.440 -0.7464 -0.0320  0.2448
10601TIP3   OH253293   4.564   1.791   0.860  0.3001  1.0836 -0.2478
10601TIP3    H153294   4.628   1.813   0.927  1.4558  0.6729 -1.1896
10601TIP3    H253295   4.603   1.821   0.778 -0.2862 -0.0230 -0.9598
10602TIP3   OH253296   4.229   5.834   2.838  0.6786  0.1490 -0.2484
10602TIP3    H153297   4.211   5.772   2.768 -0.3665  0.4750 -0.2914
10602TIP3    H253298   4.315   5.870   2.817  0.9384 -0.6859 -0.6571
10603TIP3   OH253299   5.936   0.074  15.711 -0.2328  0.6970  0.0210
10603TIP3    H153300   5.937   0.165  15.682  2.2117  1.3403  1.8003
10603TIP3    H253301   6.026   0.044  15.699 -0.0049 -0.1889  3.0597
10604TIP3   OH253302   1.698   2.440   3.155  0.1252  0.0880 -0.1406
10604TIP3    H153303   1.725   2.514   3.100  0.9640 -0.8806 -1.0636
10604TIP3    H253304   1.750   2.449   3.234 -1.6464  1.9396  0.9225
10605TIP3   OH253305   0.174   6.461  13.323  0.4914 -0.4322 -0.3702
10605TIP3    H153306   0.219   6.525  13.268 -2.5174  1.5427 -0.7634
10605TIP3    H253307   0.085   6.458  13.289 -0.2881 -2.5864  1.5824
10606TIP3   OH253308   5.101   1.010   5.782 -0.5134  0.0245  0.4476
10606TIP3    H153309   5.027   0.966   5.739  0.8174  0.0291 -2.0631
10606TIP3    H253310   5.155   0.939   5.816  0.2553 -0.2177 -1.1924
10607TIP3   OH253311   6.342   1.978   3.525  0.0563 -0.1473  0.1307
10607TIP3    H153312   6.286   2.004   3.451 -0.9365  1.2682  1.3294
10607TIP3    H253313   6.337   1.882   3.525 -1.6179 -0.0997 -0.4038
10608TIP3   OH253314   5.700   4.246  13.929  0.3250 -0.4412 -0.5775
10608TIP3    H153315   5.610   4.228  13.899  0.6976 -0.4193 -1.7736
10608TIP3    H253316   5.740   4.294  13.856  0.9773  0.5585  0.4030
10609TIP3   OH253317   0.973   2.595  16.308 -0.5158 -0.3155 -0.3276
10609TIP3    H153318   1.008   2.604  16.397 -0.6566 -1.4635 -0.1345
10609TIP3    H253319   1.015   2.516  16.274  0.2823  0.6299 -1.6596
10610TIP3   OH253320   6.169   3.069   1.184 -0.0558 -0.3182 -0.0640
10610TIP3    H153321   6.108   3.075   1.111 -1.2061  0.8598  0.9461
10610TIP3    H253322   6.114   3.059   1.262  1.1218 -1.2334  0.7006
10611TIP3   OH253323   5.176   4.009   1.190 -0.4160  0.2422  0.4842
10611TIP3    H153324   5.158   3.925   1.232 -1.3429 -0.5673 -1.3974
10611TIP3    H253325   5.181   4.071   1.262  0.5954 -1.4493  1.9659
10612TIP3   OH253326   2.396   2.785  10.734 -0.1301  0.7027  0.0231
10612TIP3    H153327   2.410   2.836  10.655 -0.5118  1.2765  0.3235
10612TIP3    H253328   2.484   2.757  10.761 -0.0174  0.3434 -0.7037
10613TIP3   OH253329   5.869   5.182  17.033 -0.3476 -0.0147 -0.0632
10613TIP3    H153330   5.951   5.161  16.987 -1.3708 -0.1532 -1.9299
10613TIP3    H253331   5.861   5.113  17.099 -0.8042 -2.3405 -2.3851
10614TIP3   OH253332   1.303   3.075  15.812  0.2273  0.8907  0.0187
10614TIP3    H153333   1.218   3.118  15.815 -0.0532  0.2957  0.9103
10614TIP3    H253334   1.354   3.117  15.882 -0.0778 -0.2543  0.9534
10615TIP3   OH253335   2.955   3.763  10.703 -0.3018 -0.4420  0.5362
10615TIP3    H153336   2.962   3.712  10.622  0.0193 -0.9537  0.8854
10615TIP3    H253337   2.863   3.790  10.706 -0.4641 -0.9609  0.3290
10616TIP3   OH253338   0.229   4.856   1.561 -0.2074 -0.0255 -0.4973
10616TIP3    H153339   0.288   4.833   1.489 -0.5877  0.8679 -1.1173
10616TIP3    H253340   0.141   4.837   1.528 -0.4631  1.4284 -0.6981
10617TIP3   OH253341   3.664   1.551   2.115  0.0183 -0.2430 -0.7556
10617TIP3    H153342   3.614   1.631   2.100  1.6539  0.5436 -2.3968
10617TIP3    H253343   3.755   1.576   2.099  0.8002 -1.9720  0.6875
10618TIP3   OH253344   0.772   1.236   1.708  0.1175  0.0285  0.1996
10618TIP3    H153345   0.712   1.275   1.772 -0.6661 -1.1426  0.2054
10618TIP3    H253346   0.820   1.169   1.758  0.0181 -0.3942 -0.2670
10619TIP3   OH253347   1.115   3.668  16.890  0.3395  0.5776  0.7795
10619TIP3    H153348   1.027   3.690  16.861  1.0030  2.0717 -0.1983
10619TIP3    H253349   1.122   3.706  16.977  0.0896  0.6285  0.7774
10620TIP3   OH253350   6.442   2.214  15.395  0.2277 -0.1790 -0.5887
10620TIP3    H153351   6.478   2.279  15.455 -1.3035 -0.6329  0.8745
10620TIP3    H253352   6.348   2.232  15.393  0.1732 -0.4057 -2.6050
10621TIP3   OH253353   3.527   5.425  17.053  0.0409 -0.5159  0.2755
10621TIP3    H153354   3.489   5.437  16.966 -1.2066 -2.0520  0.5653
10621TIP3    H253355   3.612   5.384  17.036 -0.2527 -0.9388 -0.2146
10622TIP3   OH253356   2.561   0.011  17.241 -0.0805 -0.1651  0.6050
10622TIP3    H153357   2.624   0.078  17.215  0.2095 -0.5240  0.3662
10622TIP3    H253358   2.613  -0.069  17.248 -0.2786 -0.2286  1.5900
10623TIP3   OH253359   2.158   0.855   5.635  0.3636 -0.0156 -0.4933
10623TIP3    H153360   2.122   0.767   5.642  2.4162 -1.3810 -4.2943
10623TIP3    H253361   2.085   0.908   5.601 -0.4803 -0.5453  0.4406
10624TIP3   OH253362   0.246   3.605  16.401  0.0440  0.0104  0.5083
10624TIP3    H153363   0.240   3.526  16.347  0.3796  0.6498 -0.4774
10624TIP3    H253364   0.158   3.643  16.397  0.2968  0.5317 -0.3382
10625TIP3   OH253365   6.124   0.807  12.316 -0.5329 -0.1084  0.3295
10625TIP3    H153366   6.070   0.772  12.246  1.1967 -0.3653 -0.9311
10625TIP3    H253367   6.133   0.735  12.379 -2.2697  0.1965  0.9777
10626TIP3   OH253368   4.043   3.333  16.166 -0.7393  0.6300 -0.3277
10626TIP3    H153369   3.968   3.275  16.176  0.7140 -1.7695 -2.2650
10626TIP3    H253370   4.015   3.397  16.100 -1.2074 -0.0408 -0.7929
10627TIP3   OH253371   0.038   4.450   2.716 -0.0782  0.1565  0.1445
10627TIP3    H153372  -0.029   4.435   2.650 -0.1939  1.4474 -0.0680
10627TIP3    H253373   0.043   4.546   2.724 -0.4142  0.0472  2.3650
10628TIP3   OH253374   5.458   4.291  15.851  0.4740 -0.2445 -0.1641
10628TIP3    H153375   5.526   4.253  15.906  0.3990 -1.4214 -0.8438
10628TIP3    H253376   5.478   4.258  15.763 -1.1165 -0.8130 -0.3286
10629TIP3   OH253377   1.545   6.593   2.645  0.5859 -0.1395  0.9153
10629TIP3    H153378   1.553   6.540   2.566 -0.1443  0.4246  0.4618
10629TIP3    H253379   1.512   6.677   2.616 -0.5472 -0.2091  1.9172
10630TIP3   OH253380   5.052   4.523   2.198 -0.0186 -0.0808 -0.2210
10630TIP3    H153381   5.106   4.570   2.135  1.1396 -0.3788  0.5085
10630TIP3    H253382   5.077   4.431   2.187 -1.7401 -0.4944 -1.1371
10631TIP3   OH253383   6.560   5.211  11.875  0.1495 -0.6614  0.1334
10631TIP3    H153384   6.504   5.195  11.799  0.1304  2.0862 -0.5472
10631TIP3    H253385   6.611   5.289  11.851  1.0595 -0.4714  2.4412
10632TIP3   OH253386   4.342   0.779   3.461  0.0592  0.1150 -0.2257
10632TIP3    H153387   4.322   0.707   3.521 -0.2309 -0.7435 -1.3163
10632TIP3    H253388   4.281   0.848   3.486  0.4822  0.0732  0.9711
10633TIP3   OH253389   2.571   2.677   0.742  0.5479  0.2321  0.8188
10633TIP3    H153390   2.639   2.634   0.691 -0.9111 -0.3347 -0.7323
10633TIP3    H253391   2.544   2.610   0.806  1.0434  0.2776  1.0860
10634TIP3   OH253392   3.799   3.765   2.394  0.4373  0.3967 -0.0226
10634TIP3    H153393   3.871   3.812   2.351  0.7558  0.5264  0.6469
10634TIP3    H253394   3.829   3.674   2.398  0.9714  0.6074  1.0843
10635TIP3   OH253395   1.330   6.073  16.034  0.3144  0.1176  0.3889
10635TIP3    H153396   1.298   5.993  15.994  0.3934  0.4178 -0.2766
10635TIP3    H253397   1.337   6.052  16.127  2.1615 -1.2908  0.0065
10636TIP3   OH253398   3.287   2.862  14.791  0.2351  0.6148  0.3511
10636TIP3    H153399   3.271   2.784  14.737 -1.0773  0.4459  0.9593
10636TIP3    H253400   3.226   2.928  14.757  1.8278  1.6593 -0.6343
10637TIP3   OH253401   6.099   2.868   4.262 -0.3873 -0.3343 -0.5131
10637TIP3    H153402   6.185   2.826   4.262 -0.6823 -0.9726  0.6851
10637TIP3    H253403   6.113   2.951   4.307 -0.1441  0.1641 -1.4711
10638TIP3   OH253404   6.622   5.678  12.006 -0.7200  0.0336 -0.3175
10638TIP3    H153405   6.689   5.620  12.042  0.0037  0.3709 -1.0827
10638TIP3    H253406   6.587   5.725  12.082  0.7268  0.6912 -0.0209
10639TIP3   OH253407   4.018   0.197  12.004 -0.5153  0.1475 -0.0408
10639TIP3    H153408   4.081   0.250  12.052  1.1869  2.7392 -4.4836
10639TIP3    H253409   4.034   0.108  12.033  3.2166  1.0532  1.1622
10640TIP3   OH253410   1.970   0.531   0.717 -0.2441  0.5483 -0.1832
10640TIP3    H153411   1.963   0.487   0.802  0.9831 -0.2939 -0.5001
10640TIP3    H253412   2.002   0.619   0.739  4.0968 -0.8791  0.0456
10641TIP3   OH253413   1.300   3.965   6.308 -0.1114  0.0510 -0.2901
10641TIP3    H153414   1.296   4.039   6.247  1.1706 -0.3362 -0.8910
10641TIP3    H253415   1.297   3.887   6.252  1.6105 -0.3092  0.0461
10642TIP3   OH253416   4.925   1.053   1.977 -0.2261  0.4386 -0.1388
10642TIP3    H153417   5.017   1.077   1.969 -0.5693  2.7187  1.6272
10642TIP3    H253418   4.884   1.090   1.899  0.1166  0.9204 -0.0963
10643TIP3   OH253419   6.502   2.645   2.661  0.4239  0.1994 -0.0960
10643TIP3    H153420   6.437   2.715   2.660 -0.0257 -0.1993  0.3198
10643TIP3    H253421   6.487   2.600   2.744  0.4432 -0.6234 -0.5200
10644TIP3   OH253422   5.487   1.874  11.928  0.1677  0.9092  0.1390
10644TIP3    H153423   5.442   1.858  12.011 -1.7582  2.0367 -0.6282
10644TIP3    H253424   5.577   1.847  11.945 -0.2547  0.6931  2.4659
10645TIP3   OH253425   4.111   2.809   5.496  0.0367 -0.4847  0.2889
10645TIP3    H153426   4.057   2.730   5.487  0.6730 -0.7013 -3.7928
10645TIP3    H253427   4.063   2.876   5.448  2.2281 -0.0882 -1.5221
10646TIP3   OH253428   6.479   0.115  15.789 -0.1639 -0.3155 -0.3622
10646TIP3    H153429   6.407   0.138  15.730 -1.5580  0.0739  1.4021
10646TIP3    H253430   6.437   0.104  15.874  1.7956 -0.7337  0.5964
10647TIP3   OH253431   2.297   2.768  14.968  0.4152  0.3382  0.0243
10647TIP3    H153432   2.338   2.805  14.890 -0.6883  0.3730 -0.5480
10647TIP3    H253433   2.208   2.748  14.942  0.0432  0.2895  1.2656
10648TIP3   OH253434   3.385   5.161   6.638 -0.2469 -0.6174 -0.7884
10648TIP3    H153435   3.342   5.235   6.595 -0.2518  0.2182  0.6045
10648TIP3    H253436   3.477   5.186   6.643 -0.3142 -0.5143  0.0534
10649TIP3   OH253437   0.762   2.882  11.703  0.4525 -0.3790  0.1986
10649TIP3    H153438   0.798   2.864  11.790  2.4217 -0.4642 -0.5727
10649TIP3    H253439   0.687   2.939  11.719  1.8929  1.1924  1.8620
10650TIP3   OH253440   1.437   2.959  11.770 -0.8192  0.2025 -0.2945
10650TIP3    H153441   1.358   2.985  11.816 -1.0315  1.2271 -1.2129
10650TIP3    H253442   1.431   2.864  11.764 -1.4491  0.1761  0.5670
10651TIP3   OH253443   4.365   3.076  16.405  0.9451 -0.9283 -0.2376
10651TIP3    H153444   4.282   3.031  16.387 -0.6347  0.9184  1.8934
10651TIP3    H253445   4.341   3.147  16.465  4.3259 -1.3602  1.8889
10652TIP3   OH253446   3.424   2.091   3.676  0.4883 -0.9082 -0.3348
10652TIP3    H153447   3.512   2.068   3.645  1.4077  0.8751  0.7921
10652TIP3    H253448   3.389   2.147   3.606  0.0555 -1.9557 -0.9771
10653TIP3   OH253449   4.680   2.001  12.587  0.4915  0.2742  0.1624
10653TIP3    H153450   4.647   2.009  12.498  0.0263  0.6479  0.3634
10653TIP3    H253451   4.730   2.082  12.601  1.3952 -0.2272 -0.0947
10654TIP3   OH253452   0.807   4.313   0.275 -0.3938 -0.9045 -0.2276
10654TIP3    H153453   0.801   4.331   0.369 -0.2005  0.9854 -0.5356
10654TIP3    H253454   0.717   4.312   0.245 -0.3870  1.1985 -0.4405
10655TIP3   OH253455   0.267   2.588   5.168  0.0026  0.3737  0.8685
10655TIP3    H153456   0.334   2.562   5.105 -0.9935  0.5951 -0.3290
10655TIP3    H253457   0.282   2.681   5.183  0.3225  0.2918  1.0433
10656TIP3   OH253458   5.497   6.227  15.401  0.3466  0.2553  0.4951
10656TIP3    H153459   5.405   6.249  15.384  0.4776  0.6964  0.3331
10656TIP3    H253460   5.546   6.293  15.352  0.7809 -1.0718 -0.9084
10657TIP3   OH253461   1.236   0.548  17.160 -0.5247 -0.4034 -0.4586
10657TIP3    H153462   1.202   0.636  17.150  1.2683  0.2222 -1.3830
10657TIP3    H253463   1.324   0.559  17.198 -1.0960 -1.9225  1.5107
10658TIP3   OH253464   4.988   5.085  13.678  0.0340 -1.3158  0.2388
10658TIP3    H153465   4.893   5.089  13.667 -0.0968 -3.8758 -0.3053
10658TIP3    H253466   5.020   5.168  13.642 -1.9831 -0.2431  0.7472
10659TIP3   OH253467   4.384   4.390  16.623 -0.0005  0.3407 -0.4447
10659TIP3    H153468   4.403   4.399  16.530  1.6498  0.7114 -0.0989
10659TIP3    H253469   4.439   4.317  16.652 -2.8350 -1.9483 -0.3509
10660TIP3   OH253470   6.283   5.810   2.183  1.0870  0.0607  0.3503
10660TIP3    H153471   6.228   5.887   2.197  1.8703  0.7538 -0.2598
10660TIP3    H253472   6.345   5.811   2.255  0.4975 -0.5698  0.8874
10661TIP3   OH253473   4.392   1.693  13.877 -0.3923 -0.1495 -0.4145
10661TIP3    H153474   4.356   1.751  13.809  1.3463  1.6363  0.0682
10661TIP3    H253475   4.428   1.619  13.829 -1.6779 -0.3082 -1.1702
10662TIP3   OH253476   1.460   4.845  12.868 -0.3332 -0.0855  0.2745
10662TIP3    H153477   1.536   4.902  12.882  0.4477 -0.3510 -2.3633
10662TIP3    H253478   1.490   4.781  12.804 -1.7316 -2.4866  1.8779
10663TIP3   OH253479   3.765   5.045  15.025  0.1979 -0.1838 -0.2693
10663TIP3    H153480   3.747   4.961  15.067  2.4130  0.8659  3.1626
10663TIP3    H253481   3.854   5.037  14.992 -0.2376  0.2526 -1.6188
10664TIP3   OH253482   1.304   5.883  14.347 -0.0809  0.1561 -0.4779
10664TIP3    H153483   1.230   5.927  14.387  0.0434 -0.5918  0.5971
10664TIP3    H253484   1.267   5.841  14.269 -1.3100 -2.0424  1.1904
10665TIP3   OH253485   4.681   4.383   4.505  0.0097  0.0687  0.1586
10665TIP3    H153486   4.654   4.473   4.486 -0.9601 -0.3809 -0.6944
10665TIP3    H253487   4.620   4.328   4.455  0.2996 -1.0779  1.0142
10666TIP3   OH253488   5.775   4.375  12.071 -0.3660  0.8105  0.5854
10666TIP3    H153489   5.810   4.319  12.140  2.7790  1.4123 -0.3375
10666TIP3    H253490   5.829   4.356  11.994 -2.1234  1.9281 -1.0405
10667TIP3   OH253491   5.553   0.407  13.850 -0.0166 -0.0441  0.1356
10667TIP3    H153492   5.493   0.472  13.813 -1.5838 -1.1099  0.6750
10667TIP3    H253493   5.617   0.458  13.900 -1.3603  1.0752  0.7642
10668TIP3   OH253494   1.356   6.415   0.467  0.0744 -0.7117  0.3214
10668TIP3    H153495   1.327   6.324   0.475 -0.3109 -0.6418 -0.1751
10668TIP3    H253496   1.438   6.409   0.418 -0.8587 -0.6854 -1.3238
10669TIP3   OH253497   2.459   5.809   6.891 -0.0735 -0.4081  0.0112
10669TIP3    H153498   2.499   5.766   6.816  1.5177 -1.7889  1.5528
10669TIP3    H253499   2.365   5.809   6.873  0.3016 -0.2021 -2.1812
10670TIP3   OH253500   3.160   1.537  15.890 -0.1025  0.3630 -0.2870
10670TIP3    H153501   3.124   1.625  15.896  0.8773  0.6964  1.7111
10670TIP3    H253502   3.190   1.528  15.800  0.0442  2.1977 -0.4397
10671TIP3   OH253503   3.977   5.042   3.439 -0.4111 -0.1711  0.4910
10671TIP3    H153504   3.924   4.990   3.379  0.7908 -0.7894 -0.0872
10671TIP3    H253505   4.031   5.097   3.382  0.3075 -0.3216  1.0029
10672TIP3   OH253506   5.956   5.360   0.681 -0.4300 -0.6302 -0.4848
10672TIP3    H153507   5.975   5.453   0.667 -0.0312 -0.5933  0.2524
10672TIP3    H253508   5.997   5.340   0.765 -1.1777 -1.2842 -0.2651
10673TIP3   OH253509   2.308   4.121  14.639  0.0737 -0.5009 -0.2418
10673TIP3    H153510   2.317   4.195  14.579 -1.1594  0.2723  0.4846
10673TIP3    H253511   2.270   4.051  14.586 -1.5673  0.3603 -0.2771
10674TIP3   OH253512   2.741   4.715  12.839 -0.0460  0.3564  0.2009
10674TIP3    H153513   2.771   4.793  12.793  0.2357  1.3306  1.9329
10674TIP3    H253514   2.730   4.649  12.771 -0.6335  1.9979 -1.3800
10675TIP3   OH253515   3.198   2.272   2.268  0.2287  0.1227 -0.5669
10675TIP3    H153516   3.188   2.360   2.233 -0.0473 -0.1056 -1.0663
10675TIP3    H253517   3.110   2.234   2.264  0.1233  0.1989  0.6750
10676TIP3   OH253518   5.839   5.954  12.678  0.3692  0.4231  0.0478
10676TIP3    H153519   5.785   5.924  12.604  0.6820 -0.5659  0.2128
10676TIP3    H253520   5.924   5.914  12.664 -0.1105 -1.4460  1.9934
10677TIP3   OH253521   2.825   6.662   0.269  0.4183  0.2323  0.0572
10677TIP3    H153522   2.737   6.625   0.273  0.9100 -1.9444 -4.0988
10677TIP3    H253523   2.810   6.755   0.250 -1.1041 -0.3524 -1.9966
10678TIP3   OH253524   5.292   2.662  11.288 -0.2726 -0.3748  0.6156
10678TIP3    H153525   5.265   2.731  11.228 -0.4854  1.2164  2.4180
10678TIP3    H253526   5.388   2.664  11.285 -0.2565 -1.8773 -1.3015
10679TIP3   OH253527   3.825   5.784   5.750  0.3505  0.0460  0.0743
10679TIP3    H153528   3.862   5.734   5.823 -0.1164 -0.1467  0.1829
10679TIP3    H253529   3.885   5.768   5.678  1.6345  1.4029  0.7839
10680TIP3   OH253530   6.604   5.387  15.428 -0.4034  0.2048 -0.6793
10680TIP3    H153531   6.667   5.451  15.461 -0.3977  0.3695 -1.0054
10680TIP3    H253532   6.519   5.431  15.437 -0.2755  0.8073 -2.1816
10681TIP3   OH253533   6.637   6.304  11.414  0.4286 -0.1102  0.5085
10681TIP3    H153534   6.621   6.347  11.330 -0.1257 -1.7076 -0.2538
10681TIP3    H253535   6.591   6.220  11.406  1.3292 -0.7707  1.9806
10682TIP3   OH253536   4.118   3.648  11.386 -0.0151 -0.3316  0.4011
10682TIP3    H153537   4.203   3.636  11.430 -0.9093  0.4036  2.5035
10682TIP3    H253538   4.100   3.564  11.345  0.3357 -1.5411  2.5796
10683TIP3   OH253539   1.904   2.464  11.925 -0.6421 -0.8665 -0.1787
10683TIP3    H153540   1.976   2.408  11.955 -1.6522 -1.4564  1.2666
10683TIP3    H253541   1.945   2.549  11.910  0.4475 -1.3155  0.1095
10684TIP3   OH253542   3.461   3.321   2.370 -0.9270 -0.3669  0.1960
10684TIP3    H153543   3.525   3.260   2.406 -1.2693 -0.7943  0.0880
10684TIP3    H253544   3.376   3.287   2.399 -1.0392  1.2150  1.8945
10685TIP3   OH253545   5.213   1.409  16.250 -0.4569  0.0331  0.2147
10685TIP3    H153546   5.229   1.421  16.343 -0.1412  1.7140 -0.0207
10685TIP3    H253547   5.264   1.332  16.226  1.9868  1.3366  0.8611
10686TIP3   OH253548   0.238   0.351  16.949  0.0134  0.1697 -0.4639
10686TIP3    H153549   0.227   0.289  16.877 -2.6875  0.0408 -0.0574
10686TIP3    H253550   0.308   0.314  17.002  0.4559 -0.9679 -1.7876
10687TIP3   OH253551   5.026   5.496   2.802 -1.0045 -0.2561 -0.4724
10687TIP3    H153552   5.075   5.576   2.785 -0.2743 -0.5116  0.3528
10687TIP3    H253553   4.981   5.477   2.720 -0.2279  0.3425 -1.0502
10688TIP3   OH253554   1.907   3.113   5.959 -0.0564  0.2352  0.0405
10688TIP3    H153555   1.978   3.060   5.922 -0.9321 -0.7928 -0.2220
10688TIP3    H253556   1.872   3.059   6.030 -0.6211  0.6970  0.1186
10689TIP3   OH253557   4.613   5.808   0.907 -0.0103  0.3665 -0.6651
10689TIP3    H153558   4.620   5.714   0.888  1.5700  0.5572 -1.1424
10689TIP3    H253559   4.693   5.828   0.956 -0.4726  1.4151 -0.3192
10690TIP3   OH253560   1.132   0.849   4.987  0.1730 -0.6195 -0.4856
10690TIP3    H153561   1.053   0.802   4.961 -1.2243  1.6129 -0.5506
10690TIP3    H253562   1.114   0.878   5.077  0.6079  0.5116 -0.7539
10691TIP3   OH253563   2.929   0.695  13.853 -0.2121  0.3320  0.4801
10691TIP3    H153564   2.886   0.775  13.823 -2.0947 -1.2265 -1.2936
10691TIP3    H253565   2.918   0.633  13.781  0.1865 -1.8675  2.2014
10692TIP3   OH253566   5.235   4.506   3.266 -0.3574  0.1613  0.6717
10692TIP3    H153567   5.211   4.414   3.257  0.3748  0.0282  0.0125
10692TIP3    H253568   5.231   4.523   3.360  2.2060 -1.2950  1.1203
10693TIP3   OH253569   4.299   3.702  13.784 -0.6832  1.2130  0.3230
10693TIP3    H153570   4.363   3.650  13.735 -2.6351  0.8322 -2.0205
10693TIP3    H253571   4.342   3.787  13.798  1.9602 -0.3561  2.8400
10694TIP3   OH253572   1.990   3.594   5.355  0.1380  0.1693  0.1089
10694TIP3    H153573   1.964   3.561   5.441  2.5681  0.3019  0.9845
10694TIP3    H253574   1.946   3.536   5.293 -0.8893 -0.5557  1.4603
10695TIP3   OH253575   4.462   3.605   0.323 -0.2924 -0.2513 -0.0060
10695TIP3    H153576   4.548   3.640   0.300 -0.9539  1.7321  0.3081
10695TIP3    H253577   4.415   3.599   0.240 -0.1383 -0.5473 -0.0748
10696TIP3   OH253578   1.667   0.874  15.991 -0.4998 -0.1847 -0.4390
10696TIP3    H153579   1.645   0.820  16.067  1.0029 -0.6787 -0.3283
10696TIP3    H253580   1.584   0.915  15.966 -1.1214 -0.3834  1.1720
10697TIP3   OH253581   2.210   1.816   3.785  0.0975  0.4133  0.2760
10697TIP3    H153582   2.138   1.805   3.848  1.5272  2.4249  2.4504
10697TIP3    H253583   2.190   1.899   3.741  0.3896  0.2718 -0.1308
10698TIP3   OH253584   6.346   3.920   0.378 -0.4207  0.0401  0.0567
10698TIP3    H153585   6.325   3.929   0.285 -3.2763 -2.2991  0.3386
10698TIP3    H253586   6.375   3.830   0.388 -0.1180  0.2687  1.4568
10699TIP3   OH253587   5.333   6.361   1.497 -0.3903  0.4152 -0.1006
10699TIP3    H153588   5.337   6.379   1.591  0.5047  0.6656 -0.1827
10699TIP3    H253589   5.254   6.408   1.468  0.5280  2.1880  0.1486
10700TIP3   OH253590   2.023   0.693  11.055  0.2997 -0.3013 -0.0715
10700TIP3    H153591   2.104   0.663  11.014  1.9856  2.8523  0.6463
10700TIP3    H253592   1.974   0.734  10.985  0.3579 -0.2561 -0.0861
10701TIP3   OH253593   2.425   1.404   5.457 -0.2123 -0.2110  0.3793
10701TIP3    H153594   2.374   1.328   5.431 -0.4008  0.1639 -0.3772
10701TIP3    H253595   2.360   1.474   5.469  0.0585  0.1272 -0.0635
10702TIP3   OH253596   2.000   5.106  13.370 -0.0809 -0.3554  0.2850
10702TIP3    H153597   1.940   5.179  13.385  1.2241  0.9383 -0.6379
10702TIP3    H253598   2.067   5.140  13.312  2.8507 -1.0432  2.9899
10703TIP3   OH253599   4.188   2.510  16.943 -0.5066 -0.2675  0.5039
10703TIP3    H153600   4.210   2.446  17.011  1.2792 -0.4919 -0.2460
10703TIP3    H253601   4.210   2.468  16.861 -3.7168 -0.4320 -0.3921
10704TIP3   OH253602   5.499   4.070   4.650  0.1179  0.2600  0.2779
10704TIP3    H153603   5.512   4.086   4.743  1.2760  2.2778 -0.1592
10704TIP3    H253604   5.407   4.090   4.634 -0.7353 -2.3794  1.3223
10705TIP3   OH253605   4.617   0.243  11.292 -0.1916 -0.0323  0.1227
10705TIP3    H153606   4.637   0.209  11.380  0.9817 -1.7198 -0.7508
10705TIP3    H253607   4.698   0.286  11.265 -0.5948  0.5954 -0.0875
10706TIP3   OH253608   0.879   1.050  12.622  0.1656  0.2536 -1.0179
10706TIP3    H153609   0.810   1.097  12.575 -0.1388  0.3016 -0.5264
10706TIP3    H253610   0.847   0.960  12.629  0.0403  0.3317 -0.5706
10707TIP3   OH253611   4.247   5.764   4.756  0.4345 -0.4074 -0.0091
10707TIP3    H153612   4.313   5.768   4.825 -0.5207 -2.5693  1.1426
10707TIP3    H253613   4.191   5.840   4.772  1.9228  0.7924 -0.2927
10708TIP3   OH253614   4.648   1.886   4.685 -0.6054 -0.1998  0.1162
10708TIP3    H153615   4.626   1.968   4.640  0.7222  1.2059  1.8721
10708TIP3    H253616   4.565   1.858   4.724 -0.7818  1.2378  0.8688
10709TIP3   OH253617   2.793   6.562   2.179  1.1240  0.9155 -0.0952
10709TIP3    H153618   2.887   6.580   2.182  0.8513  2.4058  0.1355
10709TIP3    H253619   2.780   6.520   2.094  1.8846  1.4932 -0.5092
10710TIP3   OH253620   4.561   2.706   5.998 -0.3682  0.2661 -0.3820
10710TIP3    H153621   4.530   2.697   5.908  1.7646 -0.4770 -1.1243
10710TIP3    H253622   4.610   2.625   6.014  0.0605  0.7950  1.1162
10711TIP3   OH253623   5.340   3.126  12.851  0.4327  0.0748  0.2767
10711TIP3    H153624   5.324   3.133  12.757  0.0478 -0.4891  0.2944
10711TIP3    H253625   5.334   3.216  12.884  0.3928  0.2495 -0.2127
10712TIP3   OH253626   4.213   0.630   4.787  0.0851 -0.1310  0.0713
10712TIP3    H153627   4.229   0.724   4.785  0.8645 -0.2485  0.3792
10712TIP3    H253628   4.187   0.613   4.878  0.2420 -0.2559  0.0929
10713TIP3   OH253629   1.393   4.984   5.190 -0.1914  0.3991  0.1746
10713TIP3    H153630   1.389   5.073   5.224 -2.5854  0.0813  0.9719
10713TIP3    H253631   1.403   4.928   5.267  1.1752 -0.0646 -0.3056
10714TIP3   OH253632   5.913   0.875   5.686  0.0747 -0.0305  0.0155
10714TIP3    H153633   5.884   0.963   5.712  0.6448 -0.4090  2.1286
10714TIP3    H253634   6.003   0.889   5.656 -0.4775  0.3609 -1.5710
10715TIP3   OH253635   2.835   4.125   5.678 -0.1908 -0.2428  0.2364
10715TIP3    H153636   2.776   4.059   5.714  0.6665 -1.6076 -0.7677
10715TIP3    H253637   2.869   4.171   5.754 -0.5319 -1.2004  0.9865
10716TIP3   OH253638   2.517   2.574   2.774 -0.3451  0.0465  0.0407
10716TIP3    H153639   2.561   2.553   2.857 -0.7322 -0.0737  0.2182
10716TIP3    H253640   2.537   2.499   2.718 -3.2496 -1.8502  1.2587
10717TIP3   OH253641   5.967   4.986  10.583 -0.4742  0.3349 -0.6941
10717TIP3    H153642   5.885   5.014  10.625 -0.0018  1.2720 -0.3444
10717TIP3    H253643   5.984   4.899  10.618 -0.5651  0.7398  0.4031
10718TIP3   OH253644   0.584   4.163   3.256 -0.3154  0.1317 -0.4963
10718TIP3    H153645   0.654   4.226   3.238  0.5172 -0.6027  0.1386
10718TIP3    H253646   0.568   4.120   3.172 -0.2452  0.5333 -0.7189
10719TIP3   OH253647   2.497   3.729  15.429  0.4114 -0.3294  0.0376
10719TIP3    H153648   2.516   3.637  15.412 -1.8426 -1.5024  3.0047
10719TIP3    H253649   2.583   3.771  15.435  1.4839 -2.1524 -1.4545
10720TIP3   OH253650   6.809   5.113   4.819  0.0754  0.0206 -0.4344
10720TIP3    H153651   6.719   5.101   4.788 -0.5768 -0.2714  1.4437
10720TIP3    H253652   6.820   5.046   4.887  1.8546 -0.1834 -0.8655
10721TIP3   OH253653   3.743   4.008  13.579  0.0201  0.2143 -0.0849
10721TIP3    H153654   3.726   3.916  13.560 -0.0578  0.0910  0.5632
10721TIP3    H253655   3.657   4.050  13.575 -0.0603  0.1049  0.4284
10722TIP3   OH253656   1.881   0.314  17.044 -0.0334  0.4476  0.0539
10722TIP3    H153657   1.974   0.294  17.037 -0.3749 -1.9666  1.1473
10722TIP3    H253658   1.856   0.342  16.956  1.6951  1.1033 -0.2704
10723TIP3   OH253659   2.980   2.294   4.533 -0.6054 -0.0613 -0.0592
10723TIP3    H153660   2.909   2.329   4.479 -1.2859 -0.3905  0.6021
10723TIP3    H253661   2.947   2.298   4.622 -0.1488 -1.0563  0.1748
10724TIP3   OH253662   3.971   1.026   4.308 -0.2628  0.6219 -0.0779
10724TIP3    H153663   3.945   0.935   4.322 -0.4866  0.4768 -1.3240
10724TIP3    H253664   4.062   1.020   4.278  0.1091  0.8985  0.9673
10725TIP3   OH253665   2.137   3.528   2.177 -0.5826  0.0027  0.0609
10725TIP3    H153666   2.216   3.580   2.162 -1.3948  1.8385  1.6522
10725TIP3    H253667   2.101   3.514   2.090  0.6288  0.5728 -0.5584
10726TIP3   OH253668   5.912   1.119   3.833 -1.0512 -0.4642  0.0983
10726TIP3    H153669   5.842   1.183   3.847 -0.5659 -0.3117  2.1266
10726TIP3    H253670   5.973   1.134   3.906  0.0306 -1.9792 -0.4573
10727TIP3   OH253671   4.495   2.485  16.926  0.3264 -1.1518  0.4744
10727TIP3    H153672   4.433   2.495  16.855  0.0270 -0.0207  0.8649
10727TIP3    H253673   4.548   2.409  16.902 -0.5583 -1.5263 -0.3412
10728TIP3   OH253674   1.187   3.073   6.378  0.7491  0.2381  0.7193
10728TIP3    H153675   1.126   3.045   6.310  2.5221 -1.0455 -0.4527
10728TIP3    H253676   1.177   3.008   6.448  0.3115  0.4285  0.8379
10729TIP3   OH253677   2.235   0.981   4.373 -0.2870 -0.2968 -0.2613
10729TIP3    H153678   2.172   1.053   4.384 -1.7533 -1.1488 -2.3799
10729TIP3    H253679   2.314   1.023   4.339  0.0715  0.6831  1.6406
10730TIP3   OH253680   0.136   4.238  16.921 -0.0014  0.2674  0.5118
10730TIP3    H153681   0.174   4.193  16.845 -0.0682 -2.3559  1.9024
10730TIP3    H253682   0.212   4.269  16.971  0.2424 -1.2868  1.1774
10731TIP3   OH253683   6.065   5.960   0.819  0.1516 -0.2067  0.6006
10731TIP3    H153684   6.007   5.909   0.762  0.1983  1.1004 -0.6792
10731TIP3    H253685   6.023   5.958   0.905 -0.7106 -0.9757  0.1763
10732TIP3   OH253686   6.316   2.501  14.206  0.1872  0.4813  0.4955
10732TIP3    H153687   6.374   2.515  14.281  0.3793 -1.2157  0.7224
10732TIP3    H253688   6.339   2.413  14.175 -2.6460 -0.5628  0.9960
10733TIP3   OH253689   1.316   6.582  15.217 -0.2270  0.2503  0.1374
10733TIP3    H153690   1.351   6.650  15.275 -0.2178  0.3513  0.0147
10733TIP3    H253691   1.225   6.571  15.246 -0.0426 -0.1562  0.5868
10734TIP3   OH253692   5.940   6.054   4.241  0.4975  0.0070  0.0376
10734TIP3    H153693   5.906   6.044   4.331  0.6614  0.4441  0.1516
10734TIP3    H253694   5.887   5.994   4.189 -1.2600  1.4898  0.0130
10735TIP3   OH253695   3.346   4.099   0.308 -0.0405 -0.1325  0.1327
10735TIP3    H153696   3.255   4.121   0.287  0.3320  0.2553 -1.2041
10735TIP3    H253697   3.354   4.114   0.402 -1.1608  0.5571  0.1323
10736TIP3   OH253698   0.607   0.991   0.068 -0.8398 -0.4185 -0.4264
10736TIP3    H153699   0.614   0.908   0.114 -0.7856  0.1282  0.5774
10736TIP3    H253700   0.567   1.051   0.132  1.7428  1.0976 -0.1145
10737TIP3   OH253701   3.077   3.436  16.111  0.1724  0.4407 -0.2375
10737TIP3    H153702   3.122   3.373  16.166  2.2189  1.0018 -1.1905
10737TIP3    H253703   3.047   3.504  16.172  3.6471  1.8004  0.2025
10738TIP3   OH253704   4.088   2.209  11.879  0.5371 -0.5774 -0.0813
10738TIP3    H153705   4.005   2.201  11.833 -0.0425  1.9672  0.3815
10738TIP3    H253706   4.067   2.258  11.959  1.9669 -2.6395  1.6706
10739TIP3   OH253707   3.409   0.335  12.567 -0.6134 -0.4428 -0.3638
10739TIP3    H153708   3.409   0.421  12.524 -1.0010 -0.0777  0.3408
10739TIP3    H253709   3.498   0.324  12.599 -0.6310 -0.1772 -0.2221
10740TIP3   OH253710   2.549   3.012   4.070 -0.4154  0.4680 -0.0744
10740TIP3    H153711   2.512   3.013   3.982 -0.2517  1.1245 -0.1407
10740TIP3    H253712   2.486   3.060   4.124 -0.6530 -0.1739  0.2245
10741TIP3   OH253713   0.009   6.425   1.632 -0.6556  0.5421  0.8736
10741TIP3    H153714   0.042   6.409   1.721  0.4969  1.0598  0.5642
10741TIP3    H253715  -0.054   6.356   1.617 -1.0194  0.5628  2.1785
10742TIP3   OH253716   3.061   2.200  13.212 -0.1488 -0.2280 -0.7389
10742TIP3    H153717   3.010   2.275  13.180 -0.9681 -0.7000 -0.5657
10742TIP3    H253718   3.002   2.125  13.204 -0.1230 -0.5037  1.1616
10743TIP3   OH253719   6.185   4.632  13.206  0.0117 -0.5358 -0.3937
10743TIP3    H153720   6.251   4.692  13.172 -1.5657  1.8630  0.5429
10743TIP3    H253721   6.142   4.597  13.128 -0.2400  0.9879 -0.9639
10744TIP3   OH253722   4.399   1.908   4.808  0.3897  0.3571  0.4423
10744TIP3    H153723   4.348   1.925   4.729 -0.7202 -0.3628  0.9759
10744TIP3    H253724   4.447   1.989   4.824 -0.9445  1.2334  0.1688
10745TIP3   OH253725   5.544   6.028  16.905  0.2359  0.0679 -0.2661
10745TIP3    H153726   5.570   6.094  16.842  1.3036  0.8755  0.9733
10745TIP3    H253727   5.448   6.026  16.900  0.2856  0.2796 -1.7010
10746TIP3   OH253728   3.515   5.797  16.508  0.0991  0.0480  0.9247
10746TIP3    H153729   3.531   5.859  16.436 -0.5213 -0.8640 -0.0216
10746TIP3    H253730   3.444   5.741  16.477  1.6637 -2.1619  1.0851
10747TIP3   OH253731   0.006   3.990   6.392  0.2906  0.4979 -0.3137
10747TIP3    H153732  -0.039   3.935   6.327  0.5967  0.1828 -0.2640
10747TIP3    H253733  -0.015   4.080   6.365 -3.5942  0.4720  1.9231
10748TIP3   OH253734   4.678   6.105   3.871  0.0524  0.3475  0.2335
10748TIP3    H153735   4.648   6.055   3.946  0.3158 -0.4426 -0.1756
10748TIP3    H253736   4.771   6.123   3.889  0.0767  0.2897  0.1645
10749TIP3   OH253737   0.408   0.463   1.946  0.5962  0.5148  0.1386
10749TIP3    H153738   0.321   0.495   1.966  1.1190  1.2747  1.3573
10749TIP3    H253739   0.433   0.508   1.866 -0.2097  0.0968 -0.3620
10750TIP3   OH253740   4.272   3.208  10.841  0.3225  0.9847 -0.0733
10750TIP3    H153741   4.359   3.198  10.802  0.5872 -0.0027  0.7399
10750TIP3    H253742   4.246   3.118  10.863 -1.8735  0.9483 -2.3304
10751TIP3   OH253743   3.584   0.747  14.955 -0.8581  0.2137 -0.0759
10751TIP3    H153744   3.503   0.725  15.002 -0.6283  1.3541  0.9190
10751TIP3    H253745   3.650   0.690  14.993 -0.7066  1.0245  0.9339
10752TIP3   OH253746   3.567   2.461   4.992 -0.5691  0.0620  0.3168
10752TIP3    H153747   3.534   2.378   4.958 -0.2172  0.4223 -0.9514
10752TIP3    H253748   3.595   2.510   4.915 -1.5416  1.7221  0.9552
10753TIP3   OH253749   4.230   5.035  13.031 -0.3557 -0.3522 -0.1736
10753TIP3    H153750   4.287   5.048  12.955  1.7443  1.9311  1.6242
10753TIP3    H253751   4.261   4.954  13.070 -1.9482 -1.9670 -2.0322
10754TIP3   OH253752   1.118   2.926  14.226 -0.6051 -0.0910  0.3877
10754TIP3    H153753   1.151   2.839  14.248 -1.0363 -0.0787  1.1223
10754TIP3    H253754   1.099   2.922  14.132 -1.2005 -0.9886  0.5375
10755TIP3   OH253755   5.020   6.211   4.586  0.9056  0.2001 -0.2750
10755TIP3    H153756   4.948   6.149   4.593  1.2895 -0.0585  3.3269
10755TIP3    H253757   4.984   6.285   4.536 -0.8320 -1.1503 -1.1254
10756TIP3   OH253758   3.892   6.334   1.803 -0.6346  0.3527  0.2448
10756TIP3    H153759   3.938   6.323   1.886 -2.3140  0.1062  1.1675
10756TIP3    H253760   3.958   6.372   1.745  0.7776 -0.1135  1.4654
10757TIP3   OH253761   0.612   2.525  12.546  0.0712 -0.0875  0.2853
10757TIP3    H153762   0.597   2.603  12.599 -1.1776 -0.1976  0.1316
10757TIP3    H253763   0.535   2.471  12.562 -1.1443  0.5375 -2.8392
10758TIP3   OH253764   5.555   1.054   3.296 -0.1340  0.5828 -0.5965
10758TIP3    H153765   5.593   0.973   3.328 -0.4081  0.5924 -0.2500
10758TIP3    H253766   5.489   1.027   3.232 -0.2299  0.5307 -0.4758
10759TIP3   OH253767   4.514   4.478  16.390 -0.4008 -0.2990 -0.0465
10759TIP3    H153768   4.593   4.520  16.425 -0.8750  0.3632  0.2405
10759TIP3    H253769   4.484   4.537  16.321 -0.0072 -1.1249 -0.9551
10760TIP3   OH253770   0.237   5.538   1.182 -0.1210  0.2653 -0.1898
10760TIP3    H153771   0.188   5.493   1.114  0.7483  1.6861 -1.8445
10760TIP3    H253772   0.264   5.469   1.243 -1.2966 -0.9774 -1.0293
10761TIP3   OH253773   6.598   2.008  16.223 -0.3774 -0.0510 -0.1676
10761TIP3    H153774   6.609   2.103  16.223  0.1627 -0.0942  0.8810
10761TIP3    H253775   6.657   1.977  16.292 -1.3073 -1.0508  0.2114
10762TIP3   OH253776   6.694   0.586  11.449  0.5378  0.4200  0.9279
10762TIP3    H153777   6.719   0.530  11.376  2.0773  2.4262 -0.1878
10762TIP3    H253778   6.602   0.606  11.435  0.8386  0.8631 -0.5647
10763TIP3   OH253779   0.473   3.122   4.577  0.9583  0.1310 -0.0344
10763TIP3    H153780   0.454   3.034   4.544 -0.0217 -0.1750  1.2498
10763TIP3    H253781   0.505   3.107   4.666 -2.1347  1.1409  1.3891
10764TIP3   OH253782   5.672   4.904   0.062 -0.4679 -0.0044 -0.4917
10764TIP3    H153783   5.612   4.830   0.076 -0.9069  0.4614  0.1143
10764TIP3    H253784   5.615   4.975   0.032 -0.2298  0.4626  0.1631
10765TIP3   OH253785   4.878   1.894   2.962 -0.0235 -0.1165  0.4652
10765TIP3    H153786   4.916   1.979   2.940 -0.2101  0.2663  1.5577
10765TIP3    H253787   4.783   1.910   2.963 -0.1868 -0.7750 -1.0400
10766TIP3   OH253788   5.100   3.905  13.631 -0.0597 -0.1965  0.5083
10766TIP3    H153789   5.040   3.857  13.689 -1.0197 -0.3402 -0.5714
10766TIP3    H253790   5.112   3.847  13.556  2.7389 -0.8845  1.3700
10767TIP3   OH253791   1.864   0.577  16.607  0.0299  0.3561 -0.0333
10767TIP3    H153792   1.830   0.587  16.696 -0.2754 -0.5334 -0.0347
10767TIP3    H253793   1.921   0.652  16.594 -2.2302  2.1769 -0.1703
10768TIP3   OH253794   0.589   6.037  16.851  0.3322 -0.3199 -0.4174
10768TIP3    H153795   0.592   6.040  16.947 -0.0395 -1.5311 -0.3523
10768TIP3    H253796   0.512   5.985  16.831  0.4123 -0.0857 -1.3840
10769TIP3   OH253797   1.195   2.914   5.613  0.1666  0.3198  0.0301
10769TIP3    H153798   1.181   2.820   5.605 -1.7573  0.5119  0.6279
10769TIP3    H253799   1.142   2.953   5.544 -0.1943  1.0223  0.6870
10770TIP3   OH253800   0.823   3.302   6.627  0.2255  0.1409  0.1902
10770TIP3    H153801   0.818   3.357   6.706  0.7269 -0.6489  0.7827
10770TIP3    H253802   0.771   3.350   6.562 -2.1955 -0.3327  1.6670
10771TIP3   OH253803   1.197   1.485   5.465 -0.1115 -0.5355 -0.0785
10771TIP3    H153804   1.154   1.545   5.526 -0.2113 -0.5958 -0.0900
10771TIP3    H253805   1.171   1.398   5.494  0.2008 -0.5850  0.0646
10772TIP3   OH253806   2.694   6.223  15.643 -0.4819  0.8749 -0.3340
10772TIP3    H153807   2.698   6.157  15.712 -0.2993  0.7605 -0.4518
10772TIP3    H253808   2.785   6.240  15.620 -0.5034  1.5803  0.0741
10773TIP3   OH253809   3.355   6.514   5.444 -0.1277  0.3838 -0.2431
10773TIP3    H153810   3.319   6.525   5.356 -1.9393 -0.6599  0.3343
10773TIP3    H253811   3.443   6.480   5.429 -0.5688 -0.2162 -1.6575
10774TIP3   OH253812   2.379   2.819  14.104  0.2786  0.1529 -0.0852
10774TIP3    H153813   2.461   2.863  14.126 -0.0743  0.4998  0.5909
10774TIP3    H253814   2.336   2.877  14.042  2.1989 -1.7702 -3.5676
10775TIP3   OH253815   3.365   6.211   0.733  0.3219  0.4690  1.0810
10775TIP3    H153816   3.372   6.249   0.645  1.2215 -0.3241  0.7993
10775TIP3    H253817   3.455   6.193   0.759 -0.0282 -0.7144  1.5340
10776TIP3   OH253818   6.149   4.609  14.183  0.1844 -0.5352 -0.5011
10776TIP3    H153819   6.201   4.607  14.264 -1.3672  0.1864  0.5603
10776TIP3    H253820   6.202   4.661  14.122  1.4667 -1.2520 -0.0450
10777TIP3   OH253821   1.035   4.286  15.849  0.1697 -0.2938 -0.0303
10777TIP3    H153822   0.961   4.313  15.795 -0.8360 -0.0896  1.3857
10777TIP3    H253823   1.048   4.193  15.828 -0.8438 -0.4727  0.0974
10778TIP3   OH253824   1.236   3.700   1.402  0.5307  0.6218 -0.1821
10778TIP3    H153825   1.303   3.632   1.394 -0.3795 -0.2845 -0.3626
10778TIP3    H253826   1.265   3.755   1.475  1.9992  0.8923 -0.9343
10779TIP3   OH253827   1.048   0.006   5.841 -0.3877  0.1530 -0.2620
10779TIP3    H153828   1.130   0.052   5.826  0.1681 -1.0035 -0.8910
10779TIP3    H253829   1.036   0.008   5.936  0.7923 -0.3783 -0.0884
10780TIP3   OH253830   6.102   3.706   5.394  0.0134 -0.5085  0.0831
10780TIP3    H153831   6.061   3.622   5.416 -1.4572 -0.9399 -3.6171
10780TIP3    H253832   6.150   3.689   5.313  0.9316  1.9049  0.0290
10781TIP3   OH253833   5.280   2.241  15.677  0.1259  0.0288  0.3157
10781TIP3    H153834   5.319   2.203  15.756 -0.3819  0.3728  0.7372
10781TIP3    H253835   5.291   2.335  15.688  1.5425  0.0251 -0.8066
10782TIP3   OH253836   2.652   1.817  13.581 -0.4637 -0.2675 -0.0590
10782TIP3    H153837   2.717   1.753  13.607 -0.9707 -0.6543  0.2925
10782TIP3    H253838   2.629   1.862  13.662 -0.8563 -0.3486 -0.1218
10783TIP3   OH253839   4.099   2.012   3.562 -0.1735 -0.1270  0.4417
10783TIP3    H153840   4.042   1.975   3.629  0.5171 -0.1719  1.0225
10783TIP3    H253841   4.104   2.105   3.583 -0.3473 -0.0523  0.1561
10784TIP3   OH253842   3.084   4.429   0.173 -0.1307 -0.2434 -0.8591
10784TIP3    H153843   3.149   4.439   0.242 -2.0661 -1.5471  1.3022
10784TIP3    H253844   3.038   4.513   0.171 -1.2811 -0.7652  0.8723
10785TIP3   OH253845   1.864   5.668   0.379 -0.3439  0.2112  0.2055
10785TIP3    H153846   1.828   5.602   0.321  0.0095  1.3871 -1.4222
10785TIP3    H253847   1.854   5.750   0.331 -0.4117  1.3022  1.9925
10786TIP3   OH253848   3.382   1.250   2.527  0.8071 -0.2442 -0.1827
10786TIP3    H153849   3.381   1.296   2.443 -0.2345  0.6821  0.3111
10786TIP3    H253850   3.405   1.318   2.590  1.5317 -0.9254  0.2975
10787TIP3   OH253851   3.978   3.665  12.585 -0.4526  0.3523  0.1269
10787TIP3    H153852   4.026   3.612  12.648  0.1466  0.7570  0.0184
10787TIP3    H253853   3.971   3.751  12.626  1.4818  1.1360 -1.0542
10788TIP3   OH253854   4.883   5.556   1.379 -0.0569  0.6133 -0.7278
10788TIP3    H153855   4.840   5.470   1.384  2.3363 -0.5903  1.3056
10788TIP3    H253856   4.973   5.537   1.353  1.2817  2.1292  2.2939
10789TIP3   OH253857   3.600   3.409  12.351  0.1154 -0.0640 -0.0512
10789TIP3    H153858   3.517   3.396  12.396  0.1267 -2.9394 -0.6378
10789TIP3    H253859   3.665   3.367  12.408  0.9942  1.0736 -0.1795
10790TIP3   OH253860   1.218   4.696   6.495 -0.2758  0.0870 -0.2419
10790TIP3    H153861   1.171   4.765   6.542 -2.6965 -0.3953 -1.8102
10790TIP3    H253862   1.235   4.629   6.562  1.9783  1.9873  1.2779
10791TIP3   OH253863   1.512   3.828   2.767 -0.4450 -0.5126  0.3009
10791TIP3    H153864   1.594   3.873   2.787  0.1751 -1.3132 -0.3875
10791TIP3    H253865   1.447   3.899   2.761  0.0937  0.0887  1.2622
10792TIP3   OH253866   0.313   1.236  12.538 -0.2562  0.1759  0.5516
10792TIP3    H153867   0.265   1.182  12.600 -2.3298  2.6557  1.2958
10792TIP3    H253868   0.324   1.320  12.583  0.9942  1.0642 -1.2822
10793TIP3   OH253869   2.151   3.053  14.521  0.1429 -0.5940 -0.0074
10793TIP3    H153870   2.148   2.963  14.555  1.3650 -0.0656  1.6721
10793TIP3    H253871   2.198   3.102  14.589 -1.9558  1.6975 -0.0784
10794TIP3   OH253872   5.191   6.075  14.872  0.4942 -0.5299 -0.2161
10794TIP3    H153873   5.109   6.072  14.823  1.4903  1.0555 -2.1667
10794TIP3    H253874   5.245   6.007  14.831  1.0979  0.3408 -0.9049
10795TIP3   OH253875   0.016   4.708  14.923 -0.0612 -0.1059 -0.4069
10795TIP3    H153876  -0.046   4.681  14.855 -0.7242  1.5689 -0.5004
10795TIP3    H253877  -0.006   4.799  14.941  1.6882  0.2013  0.3417
10796TIP3   OH253878   4.506   2.647  15.086  0.4142  0.1108  0.9364
10796TIP3    H153879   4.480   2.555  15.081  0.5478  0.0659  1.0397
10796TIP3    H253880   4.424   2.695  15.099  0.3043  0.0401  0.5066
10797TIP3   OH253881   0.132   0.715   1.604 -0.5847 -0.1810 -0.6381
10797TIP3    H153882   0.117   0.646   1.669 -1.8908  1.9093  1.4147
10797TIP3    H253883   0.216   0.754   1.628  0.6116 -1.5089 -2.3496
10798TIP3   OH253884   6.490   4.625  14.058 -0.2456 -0.6615 -0.7165
10798TIP3    H153885   6.405   4.619  14.014  0.0419 -0.6248 -1.2760
10798TIP3    H253886   6.468   4.623  14.151 -1.0607  1.9797 -0.7853
10799TIP3   OH253887   6.533   6.402  12.995 -0.1180 -0.0919 -0.1428
10799TIP3    H153888   6.441   6.398  13.023 -0.5393  2.6565 -0.7872
10799TIP3    H253889   6.530   6.451  12.912  1.8179 -1.1461 -0.8852
10800TIP3   OH253890   0.133   3.604  14.455  0.5620 -0.1402  0.8295
10800TIP3    H153891   0.101   3.668  14.519 -0.7596 -0.9697  1.0319
10800TIP3    H253892   0.054   3.562  14.421  1.3870 -2.0524  1.1228
10801TIP3   OH253893   2.543   6.326  14.131  0.2621 -0.1572  0.1030
10801TIP3    H153894   2.585   6.323  14.217 -1.8277 -1.6811  1.1588
10801TIP3    H253895   2.457   6.363  14.147  0.0329  0.0653 -1.4527
10802TIP3   OH253896   5.319   4.925  12.217 -0.7280 -0.2752 -0.3553
10802TIP3    H153897   5.331   5.010  12.260 -2.8833  0.2020 -0.5777
10802TIP3    H253898   5.387   4.869  12.255  1.1432  1.6609 -0.6237
10803TIP3   OH253899   4.953   4.651  13.657  0.4084 -0.0578 -0.2146
10803TIP3    H153900   5.037   4.663  13.613  0.8710  0.2571  0.7354
10803TIP3    H253901   4.953   4.559  13.685 -0.7372 -0.8562 -2.5509
10804TIP3   OH253902   0.083   2.142   0.840 -0.1177 -0.3743  0.5371
10804TIP3    H153903   0.038   2.198   0.903 -0.8183 -2.4969  2.0400
10804TIP3    H253904   0.169   2.125   0.879  0.4071  0.2628 -0.2999
10805TIP3   OH253905   2.254   6.638  12.675 -0.4210  0.0969 -0.0002
10805TIP3    H153906   2.214   6.657  12.590 -0.4473  2.4495  0.4640
10805TIP3    H253907   2.199   6.569  12.712 -1.4033  0.1840 -1.2230
10806TIP3   OH253908   0.464   6.633  12.514  0.3660 -0.6299 -0.1257
10806TIP3    H153909   0.538   6.684  12.479 -0.1706 -1.0663 -2.0140
10806TIP3    H253910   0.388   6.689  12.501  0.2029 -0.6207  0.8098
10807TIP3   OH253911   2.209   4.183   0.437  0.0701  0.2113 -0.2932
10807TIP3    H153912   2.233   4.273   0.414  0.0568 -0.0077 -1.2195
10807TIP3    H253913   2.115   4.178   0.420 -0.0099  0.1448  0.1698
10808TIP3   OH253914   2.734   3.455  13.330  0.0069  0.4260  0.1266
10808TIP3    H153915   2.721   3.455  13.425 -2.7922  0.1188 -0.1787
10808TIP3    H253916   2.706   3.542  13.302 -1.1108 -0.1302 -0.5800
10809TIP3   OH253917   1.482   2.776   2.162  0.2062  0.1484  0.4331
10809TIP3    H153918   1.505   2.852   2.215 -1.2754  0.6820  0.3546
10809TIP3    H253919   1.473   2.704   2.224 -1.9197  0.8539  1.0366
10810TIP3   OH253920   4.782   0.499   4.625 -0.4060  0.0326  0.2369
10810TIP3    H153921   4.827   0.449   4.557  1.0296  0.4651  0.8194
10810TIP3    H253922   4.760   0.434   4.692  2.8414  0.2330  1.7269
10811TIP3   OH253923   3.807   1.829  16.224 -0.2683 -0.0843 -0.2273
10811TIP3    H153924   3.714   1.807  16.221 -0.2170 -0.2091 -1.2086
10811TIP3    H253925   3.809   1.916  16.264 -0.8139 -0.0632 -0.2385
10812TIP3   OH253926   4.572   6.215  16.949 -0.6586  0.0815  0.1783
10812TIP3    H153927   4.500   6.191  17.006  0.0559 -0.3138  0.9323
10812TIP3    H253928   4.605   6.298  16.986  1.0105 -1.1111  1.5500
10813TIP3   OH253929   6.458   3.652  12.062 -0.0294  0.2653  0.2280
10813TIP3    H153930   6.423   3.615  11.981  2.3524 -1.4358 -0.1330
10813TIP3    H253931   6.519   3.586  12.094 -1.9439  0.1471  4.2920
10814TIP3   OH253932   2.434   6.136  14.503  0.3082 -0.7858  0.0710
10814TIP3    H153933   2.353   6.139  14.453  0.2707  2.2449  0.1169
10814TIP3    H253934   2.409   6.158  14.593  1.1705  1.0163 -0.0648
10815TIP3   OH253935   3.925   4.520  11.585  0.2254 -0.1598 -0.4960
10815TIP3    H153936   3.932   4.463  11.662 -0.7351  0.8026  0.3343
10815TIP3    H253937   3.982   4.594  11.606  0.7131 -0.3379 -1.1511
10816TIP3   OH253938   4.039   0.843  17.168 -0.8254  0.8432 -0.6044
10816TIP3    H153939   4.078   0.842  17.256 -1.2506  0.7282 -0.4157
10816TIP3    H253940   4.015   0.752  17.152 -1.0721  0.9239 -0.6927
10817TIP3   OH253941   2.634   0.127  13.076 -0.2878 -0.0539  0.8692
10817TIP3    H153942   2.655   0.104  13.167 -0.5102  2.3617  1.6089
10817TIP3    H253943   2.614   0.044  13.034 -2.1711 -1.1136  3.5733
10818TIP3   OH253944   6.271   2.294   1.807  0.2977 -0.3941  0.1486
10818TIP3    H153945   6.304   2.371   1.852 -0.1901 -0.1755  0.1311
10818TIP3    H253946   6.216   2.328   1.737 -0.7405 -0.7609  0.7576
10819TIP3   OH253947   3.438   2.720   2.006  0.0929 -0.6044 -0.3180
10819TIP3    H153948   3.419   2.768   2.086 -0.2093  0.0449 -0.7651
10819TIP3    H253949   3.523   2.680   2.021  0.5797  0.4716 -0.1081
10820TIP3   OH253950   3.103   2.498  12.382  0.3632  0.4464 -0.5023
10820TIP3    H153951   3.159   2.551  12.440  2.1899 -0.0406 -1.7215
10820TIP3    H253952   3.140   2.513  12.295 -0.5736 -0.9987 -1.1667
10821TIP3   OH253953   6.247   1.542   0.715  0.3916  0.0782  0.0471
10821TIP3    H153954   6.291   1.545   0.800  1.1324 -3.0950 -0.0946
10821TIP3    H253955   6.303   1.592   0.656  1.0976  0.3439  0.9282
10822TIP3   OH253956   5.219   2.083  11.567 -0.0003  0.2041 -0.0545
10822TIP3    H153957   5.150   2.092  11.632  0.3852  4.0018  0.0611
10822TIP3    H253958   5.188   2.133  11.491  1.6053 -0.0598 -0.9459
10823TIP3   OH253959   1.531   0.573   5.618 -0.1669  0.4273  0.4403
10823TIP3    H153960   1.509   0.642   5.681 -2.6683 -3.1031  3.8843
10823TIP3    H253961   1.617   0.543   5.645 -0.7179 -0.2731  1.4718
10824TIP3   OH253962   0.597   0.342   5.305  0.6755  0.1458 -0.6029
10824TIP3    H153963   0.526   0.347   5.242  0.1049  2.3095  0.1376
10824TIP3    H253964   0.637   0.256   5.289 -0.4463 -0.0424 -2.7764
10825TIP3   OH253965   1.085   0.910   0.500  0.0580  0.1303  0.2360
10825TIP3    H153966   1.003   0.875   0.465 -1.0687  0.1256  2.6748
10825TIP3    H253967   1.146   0.836   0.495 -0.7689 -0.5904  0.4908
10826TIP3   OH253968   4.941   2.379  15.984 -0.3885 -0.1761  0.4220
10826TIP3    H153969   5.018   2.323  15.972 -0.4757 -0.2788  0.3360
10826TIP3    H253970   4.878   2.324  16.031  0.0420  0.3068  1.5974
10827TIP3   OH253971   2.112   2.720   5.399 -0.1683  0.4236  0.3727
10827TIP3    H153972   2.072   2.661   5.335  0.6278  0.2873 -0.0135
10827TIP3    H253973   2.082   2.688   5.484 -2.1603  1.2923  0.0487
10828TIP3   OH253974   1.915   0.914   5.514 -0.4018  0.0764 -0.2222
10828TIP3    H153975   1.895   0.983   5.577 -0.0264 -1.3396  1.5232
10828TIP3    H253976   1.836   0.907   5.460 -1.2438  0.4601  0.9290
10829TIP3   OH253977   3.386   2.191  14.883 -0.3681 -0.9236 -0.0891
10829TIP3    H153978   3.424   2.240  14.810  0.3593  1.3346  1.7212
10829TIP3    H253979   3.291   2.201  14.871 -0.2797  2.4978  1.1108
10830TIP3   OH253980   5.069   3.396  12.088  0.0017 -0.2114  0.1796
10830TIP3    H153981   5.087   3.489  12.103 -2.5697 -0.0512  3.4144
10830TIP3    H253982   5.003   3.396  12.018  1.6973  0.1224 -1.5133
10831TIP3   OH253983   6.270   4.068  13.555  0.0462 -0.5818  0.3027
10831TIP3    H153984   6.223   3.985  13.542  0.3626 -0.8136  0.6320
10831TIP3    H253985   6.201   4.133  13.567 -0.2810 -0.4579 -1.8039
10832TIP3   OH253986   5.843   2.707  17.242 -0.0682  0.1307 -0.2126
10832TIP3    H153987   5.796   2.664  17.313  0.5315  0.4198  0.3717
10832TIP3    H253988   5.837   2.646  17.168  1.1707 -1.2080  0.7259
10833TIP3   OH253989   5.159   3.137  17.023 -0.3183 -0.3340  0.6042
10833TIP3    H153990   5.100   3.111  16.952  0.1470  1.2269 -0.4179
10833TIP3    H253991   5.106   3.192  17.080 -0.7234 -1.6793  1.5966
10834TIP3   OH253992   6.014   3.228  13.538 -0.0377 -0.5620  0.3673
10834TIP3    H153993   6.081   3.253  13.474 -0.7156  1.0468  0.2288
10834TIP3    H253994   6.049   3.149  13.580  0.7083 -1.2982 -1.5391
10835TIP3   OH253995   6.102   2.822  12.260 -0.1025  0.1982  0.7852
10835TIP3    H153996   6.067   2.785  12.179 -2.3119  1.1346  1.2391
10835TIP3    H253997   6.086   2.754  12.326 -2.4330  1.1117  1.2504
10836TIP3   OH253998   1.960   0.689   1.071  0.5131  0.3478  0.2668
10836TIP3    H153999   1.990   0.766   1.119  2.4443 -0.8154  1.0357
10836TIP3    H254000   1.977   0.616   1.130 -1.5815 -0.6622 -0.3257
10837TIP3   OH254001   1.135   3.875   4.468  0.3345  0.7198 -0.0864
10837TIP3    H154002   1.201   3.902   4.404  1.0815  2.0366  1.1848
10837TIP3    H254003   1.089   3.956   4.490 -0.3375  0.1691  0.5556
10838TIP3   OH254004   3.886   3.562   4.759 -0.0931  0.4133  0.5619
10838TIP3    H154005   3.944   3.489   4.741  0.2474  0.6698  0.5984
10838TIP3    H254006   3.830   3.568   4.682  0.2565  0.4695  0.3117
10839TIP3   OH254007   2.888   1.602  17.028 -0.7255 -0.3270  0.2228
10839TIP3    H154008   2.889   1.508  17.010  1.6905 -0.1879 -0.6712
10839TIP3    H254009   2.946   1.613  17.103 -0.0789  0.5437 -0.3775
10840TIP3   OH254010   1.112   6.299   1.200  0.0026  0.2819  0.4389
10840TIP3    H154011   1.092   6.226   1.142  1.1158 -0.6550  1.1768
10840TIP3    H254012   1.202   6.324   1.178  0.5850 -0.3450  1.9772
10841TIP3   OH254013   4.611   5.012   3.605  0.1238 -0.5616  0.3466
10841TIP3    H154014   4.705   5.020   3.589  0.3456 -0.5510  1.5683
10841TIP3    H254015   4.605   4.963   3.687 -0.9286 -0.0249  0.6029
10842TIP3   OH254016   2.836   3.396   3.818 -0.4991 -0.3814 -0.2153
10842TIP3    H154017   2.757   3.443   3.794  0.5534  2.1946  1.0120
10842TIP3    H254018   2.834   3.393   3.913 -0.1993 -2.3512 -0.2313
10843TIP3   OH254019   2.041   0.528  13.029 -0.1584 -0.2620 -0.3283
10843TIP3    H154020   2.133   0.550  13.019 -0.1426  0.8517  1.7079
10843TIP3    H254021   2.003   0.540  12.942  1.5349 -0.4655 -1.1274
10844TIP3   OH254022   0.049   2.927   2.194 -0.0749  0.3836 -0.7321
10844TIP3    H154023   0.072   2.872   2.269 -1.6688  1.7095  0.8103
10844TIP3    H254024  -0.032   2.971   2.220 -1.5451 -0.2285 -3.8604
10845TIP3   OH254025   0.959   3.385   3.827 -0.3229 -0.1288 -0.0312
10845TIP3    H154026   1.025   3.453   3.846 -0.9157 -0.2583  3.0400
10845TIP3    H254027   1.005   3.303   3.844 -0.3317 -0.3989 -1.2633
10846TIP3   OH254028   4.376   0.507  16.221  0.2573  0.4178 -0.2883
10846TIP3    H154029   4.398   0.596  16.193 -0.1883  0.2269 -1.3108
10846TIP3    H254030   4.283   0.510  16.241  0.2394  0.1777 -0.3328
10847TIP3   OH254031   0.439   1.431  16.013  0.2858 -0.0204 -0.1636
10847TIP3    H154032   0.368   1.478  16.057  0.6830 -0.9619  1.5936
10847TIP3    H254033   0.498   1.500  15.981  0.5000  0.7429  1.7204
10848TIP3   OH254034   1.816   1.664  14.234 -0.1907 -0.4765 -0.3767
10848TIP3    H154035   1.763   1.663  14.314 -0.3720  1.4211 -0.4158
10848TIP3    H254036   1.809   1.576  14.199 -0.6196 -1.1727  1.3723
10849TIP3   OH254037   2.134   3.314  15.594  0.5451  0.0289  0.2705
10849TIP3    H154038   2.149   3.266  15.513 -0.0107  0.2931  0.0046
10849TIP3    H254039   2.216   3.362  15.608  0.4727  0.3610 -0.3995
10850TIP3   OH254040   6.273   0.076   1.745  0.1079  0.0646 -0.2154
10850TIP3    H154041   6.314   0.163   1.749  0.7954 -0.2632  0.1122
10850TIP3    H254042   6.347   0.015   1.750 -0.4774 -0.5662  1.5558
10851TIP3   OH254043   1.241   5.628  13.377  0.0845 -0.5139 -0.0540
10851TIP3    H154044   1.291   5.652  13.455  1.8867 -2.8834 -0.3342
10851TIP3    H254045   1.230   5.533  13.384 -2.7015 -0.3530 -1.0617
10852TIP3   OH254046   1.659   2.588  15.137  0.0907  0.1598 -0.0079
10852TIP3    H154047   1.655   2.557  15.228 -3.3909 -0.9613 -0.3967
10852TIP3    H254048   1.738   2.547  15.102  0.1675 -1.4650  1.8436
10853TIP3   OH254049   1.150   3.164   5.755  0.1192  0.0619  0.0564
10853TIP3    H154050   1.144   3.129   5.666  1.7801 -2.6670  0.8737
10853TIP3    H254051   1.082   3.118   5.804 -0.0602  0.7265  0.4468
10854TIP3   OH254052   1.133   2.557  17.149  0.0142  0.3060  0.3259
10854TIP3    H154053   1.125   2.595  17.061  0.5086 -0.5499 -0.1018
10854TIP3    H254054   1.085   2.618  17.206 -0.5453  0.7294 -0.5718
10855TIP3   OH254055   5.122   1.151  13.057 -0.7285  0.3702  0.5057
10855TIP3    H154056   5.171   1.162  13.139 -0.3835  0.3856  0.2993
10855TIP3    H254057   5.123   1.238  13.017 -0.1476  0.1731  0.0713
10856TIP3   OH254058   4.789   4.161  14.462 -0.5079 -0.3622  0.5790
10856TIP3    H154059   4.876   4.182  14.430 -0.8583 -1.9907 -1.6365
10856TIP3    H254060   4.779   4.214  14.541  2.8018 -0.7980  1.4204
10857TIP3   OH254061   0.466   4.611   5.139 -0.4545  0.2652 -0.5694
10857TIP3    H154062   0.431   4.618   5.050 -0.8750  0.9219 -0.3560
10857TIP3    H254063   0.557   4.639   5.131 -0.5254  0.4403 -0.7686
10858TIP3   OH254064   1.790   4.835   1.193  0.4108 -0.1796  0.2575
10858TIP3    H154065   1.883   4.837   1.218  1.0003 -0.8088 -1.7450
10858TIP3    H254066   1.766   4.927   1.182  1.6555 -0.0516 -2.0078
10859TIP3   OH254067   0.768   5.504   4.591 -0.2182 -0.4251 -0.1486
10859TIP3    H154068   0.754   5.583   4.539 -0.3363 -1.6071 -2.0009
10859TIP3    H254069   0.822   5.448   4.535 -1.2490 -2.1957  0.5481
10860TIP3   OH254070   1.048   2.661   0.340 -0.2594  0.5874 -0.3890
10860TIP3    H154071   1.092   2.677   0.423 -0.8085 -0.0921  0.0467
10860TIP3    H254072   0.984   2.732   0.332 -1.0750 -0.0398  0.3932
10861TIP3   OH254073   4.221   6.624  13.759  0.1281  0.0215 -0.7659
10861TIP3    H154074   4.194   6.655  13.673 -1.6061  1.4776  0.2373
10861TIP3    H254075   4.139   6.616  13.808  0.6732 -3.8424 -0.1234
10862TIP3   OH254076   5.560   3.627   4.231  0.3996  0.3394 -0.0505
10862TIP3    H154077   5.578   3.539   4.263 -0.1969  0.8386  1.7438
10862TIP3    H254078   5.624   3.641   4.161  2.0094 -0.6584  1.1694
10863TIP3   OH254079   6.014   3.434  16.682  0.7159  0.3254  0.7271
10863TIP3    H154080   5.933   3.482  16.666  0.8307  0.2659 -0.0494
10863TIP3    H254081   6.083   3.500  16.671  0.9944 -0.3138 -1.9762
10864TIP3   OH254082   6.571   2.557   4.414 -0.1972 -0.0861 -0.2004
10864TIP3    H154083   6.510   2.592   4.479  0.0657  0.6288 -0.3221
10864TIP3    H254084   6.655   2.597   4.436  0.3778 -1.5330  0.3344
10865TIP3   OH254085   3.439   1.955  10.927  0.1134  0.8120  0.0807
10865TIP3    H154086   3.439   2.001  11.012  1.3264  0.8679  0.0630
10865TIP3    H254087   3.528   1.923  10.917 -0.6661 -1.5634  0.0696
10866TIP3   OH254088   4.559   1.828  10.231 -0.0497  0.5484  0.0141
10866TIP3    H154089   4.583   1.840  10.323 -0.6496  0.9843  0.1234
10866TIP3    H254090   4.530   1.737  10.226  0.6016  0.3360  0.1126
10867TIP3   OH254091   0.026   2.966  13.995 -0.2092  0.4659  0.0139
10867TIP3    H154092  -0.032   2.908  13.945  1.0266 -0.3725 -0.4904
10867TIP3    H254093  -0.022   2.983  14.076 -0.6442 -1.2643  0.1712
10868TIP3   OH254094   1.459   3.164  17.069  0.0166 -0.2188  0.1706
10868TIP3    H154095   1.371   3.154  17.034 -0.6671 -0.1662  1.8160
10868TIP3    H254096   1.480   3.080  17.109  0.4899 -0.0527  0.2875
10869TIP3   OH254097   3.494   6.773   1.864  0.4152 -0.0806  0.3219
10869TIP3    H154098   3.477   6.692   1.910 -0.4266  0.0531  0.2718
10869TIP3    H254099   3.408   6.800   1.830  0.6593  0.8683  0.4145
10870TIP3   OH254100   3.234   4.700  13.108  0.2290  0.0033  0.3455
10870TIP3    H154101   3.302   4.761  13.078 -0.0421  0.0098 -0.2801
10870TIP3    H254102   3.172   4.697  13.035 -1.8036  1.9899  1.8388
10871TIP3   OH254103   5.133   5.554  13.508 -0.4287  0.5736 -0.5932
10871TIP3    H154104   5.074   5.605  13.564 -0.3552  0.2331 -0.1989
10871TIP3    H254105   5.175   5.619  13.452 -1.9326  0.7346 -1.6013
10872TIP3   OH254106   2.247   6.009  16.765  0.3046  0.4062 -0.1026
10872TIP3    H154107   2.339   5.989  16.748 -0.0442 -0.1719 -1.4447
10872TIP3    H254108   2.235   6.099  16.735 -0.0021 -0.1792 -1.8483
10873TIP3   OH254109   1.868   6.065   5.670 -0.1197 -0.5384  0.1596
10873TIP3    H154110   1.779   6.069   5.636 -0.3406 -0.0834  0.7692
10873TIP3    H254111   1.856   6.054   5.765  0.4707 -2.3504  0.0699
10874TIP3   OH254112   5.643   5.692   1.461  0.3720 -0.5310  0.1486
10874TIP3    H154113   5.626   5.746   1.385  0.7371 -0.0135  0.4314
10874TIP3    H254114   5.634   5.602   1.429  1.5569 -0.3504 -0.7661
10875TIP3   OH254115   5.000   6.362  13.085  0.2259 -0.1939 -0.2846
10875TIP3    H154116   4.991   6.356  13.181  1.1365 -2.2103 -0.2770
10875TIP3    H254117   4.910   6.364  13.053 -0.0972  1.1299  0.6148
10876TIP3   OH254118   6.087   1.881  12.164 -0.1510  0.1316  0.3351
10876TIP3    H154119   6.083   1.961  12.111  0.5232  0.4295  0.7161
10876TIP3    H254120   6.018   1.891  12.229 -0.0900  0.3966  0.3604
10877TIP3   OH254121   2.390   4.542  15.870  0.5437  0.3394  0.1162
10877TIP3    H154122   2.425   4.533  15.781  2.4083  1.3867  0.6902
10877TIP3    H254123   2.311   4.595  15.859  0.2337 -0.2999 -0.9868
10878TIP3   OH254124   1.594   4.030  16.310 -0.1796  0.4195 -0.6302
10878TIP3    H154125   1.554   4.093  16.369  0.2865 -0.3533  0.5437
10878TIP3    H254126   1.688   4.046  16.318  0.2109 -2.3771  2.0848
10879TIP3   OH254127   0.034   2.374  16.392  0.1836  0.0915  0.7312
10879TIP3    H154128  -0.044   2.388  16.446  0.2394  0.0588  0.8206
10879TIP3    H254129   0.028   2.282  16.365 -1.4031  0.8326 -1.7773
10880TIP3   OH254130   0.421   4.735   5.368  0.1061  0.1579  0.1876
10880TIP3    H154131   0.432   4.824   5.336  0.6253 -0.7971 -2.5058
10880TIP3    H254132   0.419   4.681   5.290 -3.0328 -1.9723  1.5177
10881TIP3   OH254133   4.924   3.296   3.839  0.0406 -0.4267 -0.2407
10881TIP3    H154134   4.885   3.310   3.753  0.1457  1.2105 -0.0380
10881TIP3    H254135   5.018   3.299   3.824  0.0590  0.7076  0.0473
10882TIP3   OH254136   6.645   5.878  16.707  0.0307  0.1109  0.5432
10882TIP3    H154137   6.649   5.786  16.678 -0.4563 -0.2580  1.6030
10882TIP3    H254138   6.710   5.923  16.653  0.6957 -0.9706  0.4176
10883TIP3   OH254139   3.445   4.463   0.955  0.3818  0.0455  0.5827
10883TIP3    H154140   3.521   4.519   0.967  0.2468  0.3877 -0.0693
10883TIP3    H254141   3.381   4.494   1.019  0.5097  0.2723  0.6000
10884TIP3   OH254142   6.303   5.306   1.198  0.4237  0.4338  0.4963
10884TIP3    H154143   6.225   5.251   1.181  0.4696 -0.1134  1.9496
10884TIP3    H254144   6.281   5.390   1.158 -1.0163  0.3615  1.0666
10885TIP3   OH254145   4.478   6.462   5.530 -0.5593 -0.1231  0.6303
10885TIP3    H154146   4.475   6.369   5.553 -1.7233 -0.1370  0.4604
10885TIP3    H254147   4.448   6.508   5.609 -0.6048  0.0677  0.5038
10886TIP3   OH254148   0.561   0.300   4.452  0.0744  0.2241 -0.3385
10886TIP3    H154149   0.514   0.372   4.493  0.2357 -0.4241  1.0617
10886TIP3    H254150   0.591   0.246   4.526 -0.8121 -1.7708 -1.3462
10887TIP3   OH254151   3.482   2.380   1.331  0.1025 -0.4465  0.2487
10887TIP3    H154152   3.552   2.329   1.290  1.0270  0.5002  0.6066
10887TIP3    H254153   3.528   2.452   1.375 -1.1823  0.8980 -0.5531
10888TIP3   OH254154   1.363   1.230  17.179 -0.0798 -0.2211 -0.3577
10888TIP3    H154155   1.349   1.296  17.247 -0.2029  1.2070 -1.7096
10888TIP3    H254156   1.328   1.150  17.216 -1.9295  0.9312  0.5255
10889TIP3   OH254157   5.718   4.526   6.554  0.3301 -0.0338 -0.2938
10889TIP3    H154158   5.759   4.602   6.594 -1.2566  0.1493  1.1115
10889TIP3    H254159   5.779   4.454   6.570 -0.5891 -0.1737  3.4684
10890TIP3   OH254160   3.147   4.743  12.566 -0.5804 -0.7300 -0.1152
10890TIP3    H154161   3.220   4.778  12.616 -0.8111  0.9992 -0.9140
10890TIP3    H254162   3.107   4.678  12.623 -0.7123  1.0177  1.8709
10891TIP3   OH254163   4.538   1.309   6.558  0.6553  0.4063 -0.0240
10891TIP3    H154164   4.626   1.339   6.534  1.6515 -0.0408  2.6807
10891TIP3    H254165   4.536   1.217   6.532  0.1867  0.9099 -1.9180
10892TIP3   OH254166   3.326   4.456  17.131  0.0633 -0.0233  0.1234
10892TIP3    H154167   3.309   4.526  17.193  0.9838  0.5969 -0.2897
10892TIP3    H254168   3.419   4.467  17.108  0.1088 -1.1200 -0.2607
10893TIP3   OH254169   6.018   6.663   2.707  0.0491 -0.0087  0.0773
10893TIP3    H154170   6.005   6.604   2.633 -2.0798  0.3960  0.0748
10893TIP3    H254171   5.944   6.723   2.704  2.9401  3.9169 -0.9655
10894TIP3   OH254172   1.197   0.686   1.310  0.7135  0.1975 -0.5668
10894TIP3    H154173   1.115   0.669   1.356  0.1885 -0.5236 -1.7166
10894TIP3    H254174   1.179   0.761   1.254  0.0574 -1.3804 -2.5785
10895TIP3   OH254175   1.114   5.195  15.893 -0.4377 -0.2600  0.1094
10895TIP3    H154176   1.076   5.272  15.936 -1.8624 -0.0530 -1.4189
10895TIP3    H254177   1.185   5.230  15.839 -1.5767  0.1478 -1.1845
10896TIP3   OH254178   0.820   4.048   0.269  0.7396 -0.0477  0.3045
10896TIP3    H154179   0.890   4.048   0.203 -0.2022 -0.4015 -0.7373
10896TIP3    H254180   0.790   4.139   0.271 -0.9744 -0.4860 -1.7454
10897TIP3   OH254181   3.023   2.679  11.857 -0.0475  0.3088 -0.1511
10897TIP3    H154182   3.032   2.726  11.774  2.0020  1.5883  0.7291
10897TIP3    H254183   2.948   2.720  11.900  0.4747  1.4311 -0.2812
10898TIP3   OH254184   6.115   6.156   4.641 -0.2375  0.1630  0.3115
10898TIP3    H154185   6.138   6.144   4.549 -2.1182  1.2570 -0.3694
10898TIP3    H254186   6.127   6.069   4.680 -1.6272 -0.9432 -1.5216
10899TIP3   OH254187   2.578   0.154  16.307  0.6715 -0.3472 -0.5304
10899TIP3    H154188   2.610   0.066  16.291  2.3344 -0.0371  0.8119
10899TIP3    H254189   2.641   0.211  16.263  0.8494  0.2216  0.4228
10900TIP3   OH254190   0.969   0.579  13.698 -0.0466 -0.5128 -0.7098
10900TIP3    H154191   0.985   0.505  13.757 -1.9264 -0.2890  0.1745
10900TIP3    H254192   0.938   0.649  13.755 -0.6518  0.1474 -1.8046
10901TIP3   OH254193   2.077   1.471   2.253 -0.3773  0.0450  0.4306
10901TIP3    H154194   2.055   1.440   2.165 -0.6239 -0.1308  0.5530
10901TIP3    H254195   2.002   1.525   2.280 -1.2716 -1.5708  1.3455
10902TIP3   OH254196   6.743   3.231  14.518 -0.1549  0.2683 -0.0595
10902TIP3    H154197   6.656   3.210  14.553  0.5520 -0.4226  1.4089
10902TIP3    H254198   6.731   3.310  14.467 -1.5679  0.4587  0.5313
10903TIP3   OH254199   4.035   1.456  13.037 -0.7177 -0.4488 -0.1976
10903TIP3    H154200   4.032   1.473  12.943  0.0315 -1.9285 -0.5209
10903TIP3    H254201   4.089   1.377  13.045 -1.7569 -1.0410  1.3816
10904TIP3   OH254202   0.936   1.975   2.403 -0.1414 -0.8724 -0.4548
10904TIP3    H154203   0.977   2.060   2.422 -1.9415  0.1103 -0.6703
10904TIP3    H254204   0.842   1.991   2.414 -0.8141 -2.0061 -3.3781
10905TIP3   OH254205   2.190   1.999  16.227  1.2021  0.6180 -0.1484
10905TIP3    H154206   2.111   2.017  16.174  0.0339  0.4180  1.4637
10905TIP3    H254207   2.260   2.046  16.181  0.2466  0.4430 -1.8756
10906TIP3   OH254208   6.487   6.744   4.322  0.6133  0.0065  0.2597
10906TIP3    H154209   6.428   6.807   4.280 -2.2508 -2.8124 -0.3489
10906TIP3    H254210   6.571   6.790   4.328 -0.7581  3.1448 -1.8530
10907TIP3   OH254211   0.290   5.237  11.514  0.1694  0.1967 -0.5727
10907TIP3    H154212   0.197   5.248  11.493 -0.2045  0.7552  1.2742
10907TIP3    H254213   0.322   5.326  11.525  1.4680  0.1503 -3.1415
10908TIP3   OH254214   2.622   0.201   0.634  0.2268 -0.1891  0.2277
10908TIP3    H154215   2.588   0.259   0.565  1.1073  1.1771  0.9185
10908TIP3    H254216   2.715   0.191   0.613  0.6989  0.9172  1.6500
10909TIP3   OH254217   6.757   1.618   0.586  0.8767 -0.0766  0.1159
10909TIP3    H154218   6.799   1.645   0.667 -1.2352 -2.6416  2.2260
10909TIP3    H254219   6.770   1.523   0.582 -1.8502 -0.5002 -0.7607
10910TIP3   OH254220   1.494   6.765   2.980 -0.2905  0.0085 -0.4499
10910TIP3    H154221   1.562   6.784   3.044 -0.2263 -1.0741 -0.1788
10910TIP3    H254222   1.430   6.711   3.027 -0.1617 -0.9421 -1.3178
10911TIP3   OH254223   5.835   3.963   5.971 -0.2873 -0.1005  0.4117
10911TIP3    H154224   5.837   3.918   6.056 -0.1605  0.9032  0.9583
10911TIP3    H254225   5.746   3.950   5.939 -0.7890  0.7127  1.3888
10912TIP3   OH254226   4.307   5.603   5.143  0.5719 -0.6244  0.5627
10912TIP3    H154227   4.252   5.681   5.134 -0.0693 -1.2666 -1.7379
10912TIP3    H254228   4.391   5.636   5.173 -0.3822  0.6379  2.0032
10913TIP3   OH254229   3.589   2.910   2.328 -0.2857 -0.0075 -0.3489
10913TIP3    H154230   3.604   2.844   2.396 -0.4349  0.9353  0.6148
10913TIP3    H254231   3.562   2.988   2.375  2.3087  1.5514 -1.2223
10914TIP3   OH254232   0.476   5.006   0.819  0.0367 -0.1588  0.0244
10914TIP3    H154233   0.551   4.988   0.762  0.6507  0.8569  0.4690
10914TIP3    H254234   0.505   4.980   0.906 -1.2452 -2.6225 -0.2053
10915TIP3   OH254235   0.248   1.001  11.365 -0.5790 -0.2187 -0.6524
10915TIP3    H154236   0.220   0.913  11.339  0.4647 -0.3146 -1.5040
10915TIP3    H254237   0.270   0.993  11.458  0.2469 -1.0519 -0.9074
10916TIP3   OH254238   5.575   0.853  15.316 -0.6697  0.0109  0.0085
10916TIP3    H154239   5.526   0.852  15.234 -0.6229  1.1195 -0.0571
10916TIP3    H254240   5.665   0.872  15.290 -0.8370  1.4729  0.3588
10917TIP3   OH254241   2.329   2.528   6.200  0.1133  0.3551 -0.2682
10917TIP3    H154242   2.389   2.597   6.170  1.6946 -0.9031 -0.1583
10917TIP3    H254243   2.334   2.533   6.296 -1.3358  1.3549 -0.2143
10918TIP3   OH254244   2.601   6.038   1.882 -0.2486 -0.7423  0.0306
10918TIP3    H154245   2.523   6.091   1.867  0.3315 -0.0542 -0.5640
10918TIP3    H254246   2.573   5.949   1.860 -0.7694 -0.4507 -0.5106
10919TIP3   OH254247   3.861   3.908   5.564  0.5944 -0.3552 -0.2389
10919TIP3    H154248   3.808   3.832   5.539 -0.1774 -0.3510  1.2676
10919TIP3    H254249   3.895   3.942   5.482 -0.9466 -0.9541 -1.1647
10920TIP3   OH254250   0.526   1.497  13.171  0.0052  0.0457  0.4763
10920TIP3    H154251   0.532   1.494  13.076 -2.6138 -0.4766  0.2348
10920TIP3    H254252   0.558   1.584  13.195 -1.2974  1.0290 -1.1414
10921TIP3   OH254253   0.458   3.023   2.812  0.1047  0.5279  0.4002
10921TIP3    H154254   0.489   2.963   2.744  0.1443  0.3689  0.5577
10921TIP3    H254255   0.385   2.977   2.854  0.4188  0.3972  0.8159
10922TIP3   OH254256   4.097   2.200   5.320  0.6460 -0.2774  0.1845
10922TIP3    H154257   4.022   2.255   5.343  0.3856 -0.5659  0.0222
10922TIP3    H254258   4.166   2.228   5.381  0.4927  0.1734  0.1542
10923TIP3   OH254259   2.459   0.489  16.501 -0.3024  0.2847  0.3270
10923TIP3    H154260   2.398   0.433  16.452 -0.6440 -0.2168  1.2942
10923TIP3    H254261   2.442   0.578  16.467  0.7931 -0.2324 -1.7793
10924TIP3   OH254262   0.705   4.060  13.217 -0.0898 -0.3933  0.4581
10924TIP3    H154263   0.721   4.030  13.306 -0.3401  0.8815  0.9571
10924TIP3    H254264   0.713   4.155  13.222  0.0043 -0.3060 -0.9096
10925TIP3   OH254265   1.388   2.769   5.949  0.2826  0.1829 -0.3234
10925TIP3    H154266   1.379   2.728   6.035  0.6632 -3.0075 -1.6966
10925TIP3    H254267   1.300   2.798   5.926 -0.2966 -1.2099  0.0849
10926TIP3   OH254268   0.486   4.299   6.264 -0.8894  0.2151  0.1749
10926TIP3    H154269   0.392   4.304   6.247 -0.9278  0.8577  0.5216
10926TIP3    H254270   0.511   4.388   6.289 -0.3583 -0.1334  0.9430
10927TIP3   OH254271   3.912   3.826  17.302  0.2985  0.5472  0.0582
10927TIP3    H154272   3.864   3.903  17.272 -0.3435  0.8529  1.7534
10927TIP3    H254273   4.003   3.844  17.281  0.0191  1.2668 -0.5684
10928TIP3   OH254274   5.392   3.458   5.660 -0.1000  0.1085  0.8311
10928TIP3    H154275   5.457   3.474   5.729  0.7903  0.8322 -0.1558
10928TIP3    H254276   5.332   3.532   5.666  0.3173  0.4816  0.4525
10929TIP3   OH254277   4.013   5.750   3.428 -0.7584  0.0583 -0.4673
10929TIP3    H154278   4.073   5.806   3.477 -0.3502  0.0043 -0.8950
10929TIP3    H254279   4.063   5.671   3.411 -1.8402 -1.1272  1.4885
10930TIP3   OH254280   5.759   4.961  15.288 -0.4285 -0.4404  0.1138
10930TIP3    H154281   5.728   4.952  15.378  0.7654 -0.0299  0.5900
10930TIP3    H254282   5.845   5.002  15.296 -0.5922  0.2500 -1.2591
10931TIP3   OH254283   6.605   4.010  16.299  0.2124  0.1254  0.0312
10931TIP3    H154284   6.572   4.007  16.209  2.8701 -0.4811 -1.0223
10931TIP3    H254285   6.602   4.103  16.322  0.1189  0.3719 -0.9274
10932TIP3   OH254286   2.693   0.381   5.958  0.0754 -0.7661 -0.2604
10932TIP3    H154287   2.629   0.312   5.976 -2.2736  1.4360  0.4685
10932TIP3    H254288   2.642   0.450   5.915  2.1131  0.9068 -0.1561
10933TIP3   OH254289   6.205   0.797  15.991 -1.0615  0.2653 -0.3903
10933TIP3    H154290   6.142   0.739  16.033 -0.1690  0.8298  1.8633
10933TIP3    H254291   6.186   0.884  16.028  1.4552  0.3323  0.9659
10934TIP3   OH254292   5.396   1.138  13.845  0.2739 -0.4347 -0.2165
10934TIP3    H154293   5.366   1.155  13.756 -0.5635 -0.8283 -0.0239
10934TIP3    H254294   5.475   1.191  13.855 -0.5729  0.9544 -0.6210
10935TIP3   OH254295   2.300   1.304   2.933 -0.0357  0.0871 -0.2738
10935TIP3    H154296   2.341   1.390   2.924 -2.0431  1.0951 -0.3634
10935TIP3    H254297   2.373   1.243   2.942  1.4496  1.7519 -0.5730
10936TIP3   OH254298   6.440   5.636  15.507  0.0304  0.1308  0.3036
10936TIP3    H154299   6.485   5.654  15.589 -1.1705  1.3139  0.7366
10936TIP3    H254300   6.361   5.690  15.510 -1.0302 -1.2798 -0.7762
10937TIP3   OH254301   6.036   4.634  12.177  0.5013  0.0835 -0.1199
10937TIP3    H154302   6.046   4.602  12.087  2.1302 -0.6683  0.2843
10937TIP3    H254303   6.087   4.573  12.230 -1.0542  0.0644  1.4376
10938TIP3   OH254304   0.300   2.457  15.429  0.6085  0.2598 -0.0506
10938TIP3    H154305   0.387   2.452  15.390 -0.1410 -0.8264 -1.7311
10938TIP3    H254306   0.250   2.513  15.369 -0.1265 -0.0260  0.2870
10939TIP3   OH254307   4.686   2.339   6.169  0.7254  0.1099 -0.5790
10939TIP3    H154308   4.756   2.404   6.180  0.3174  0.2785  1.3969
10939TIP3    H254309   4.665   2.312   6.258  0.6413 -2.5194 -1.3325
10940TIP3   OH254310   5.758   2.926  13.512 -0.1255  0.7477  0.5044
10940TIP3    H154311   5.752   3.022  13.505  0.1881  0.9910  2.7684
10940TIP3    H254312   5.696   2.903  13.582 -0.4519 -0.7587 -0.2487
10941TIP3   OH254313   4.275   1.716  16.565 -0.4562 -0.4082 -0.7898
10941TIP3    H154314   4.368   1.695  16.575 -0.5952 -0.7803 -0.1949
10941TIP3    H254315   4.231   1.656  16.625 -0.9852  0.6520 -0.0826
10942TIP3   OH254316   1.442   2.142  14.193 -0.2453 -0.3005 -0.7465
10942TIP3    H154317   1.506   2.124  14.124 -0.3832  0.8182 -1.1969
10942TIP3    H254318   1.493   2.187  14.260 -0.4440  0.1106 -0.8683
10943TIP3   OH254319   2.605   4.561   5.627 -0.7927 -0.1692 -0.2084
10943TIP3    H154320   2.588   4.653   5.609  0.2546  0.5534  2.1066
10943TIP3    H254321   2.519   4.520   5.628 -1.4988  1.2408  0.7618
10944TIP3   OH254322   5.889   5.270  15.845  0.0140  0.5088  0.0359
10944TIP3    H154323   5.821   5.293  15.909  1.3890  1.3433  1.2711
10944TIP3    H254324   5.938   5.352  15.831 -0.5865  0.5194 -2.5832
10945TIP3   OH254325   6.033   2.366   4.938  0.4248  0.2365 -0.1981
10945TIP3    H154326   5.959   2.310   4.914  0.7745 -0.3317  0.0364
10945TIP3    H254327   6.083   2.375   4.857  0.9639 -0.7030  0.0219
10946TIP3   OH254328   2.615   1.359  12.976  0.0555  0.2318  0.1915
10946TIP3    H154329   2.605   1.438  13.030 -0.8466 -0.4659  1.0877
10946TIP3    H254330   2.558   1.295  13.018  1.1310 -1.0452 -0.2566
10947TIP3   OH254331   1.913   5.141   4.531 -0.6974 -0.2012  0.1102
10947TIP3    H154332   1.959   5.188   4.601 -0.3084 -0.2751 -0.0936
10947TIP3    H254333   1.912   5.050   4.560 -1.2285 -0.1133  0.3848
10948TIP3   OH254334   6.376   2.950   5.512 -0.8660  0.2807 -0.4659
10948TIP3    H154335   6.331   2.950   5.428 -0.7148  0.7536 -0.5476
10948TIP3    H254336   6.389   2.857   5.532 -2.5288  0.0786 -0.0931
10949TIP3   OH254337   6.507   2.742  12.796 -0.3798 -0.5825  0.0948
10949TIP3    H154338   6.433   2.689  12.766  0.3465 -2.1514  0.9466
10949TIP3    H254339   6.541   2.783  12.717 -0.9296 -1.4585 -0.6162
10950TIP3   OH254340   2.457   6.279   0.488  0.2550  0.2269 -0.5346
10950TIP3    H154341   2.450   6.238   0.401 -0.4162  0.8164 -0.7736
10950TIP3    H254342   2.415   6.216   0.547 -1.8018  1.0021 -1.0654
10951TIP3   OH254343   5.579   1.530   3.534 -0.0521  0.4738 -0.1154
10951TIP3    H154344   5.497   1.481   3.541  0.4070 -0.2948 -0.0500
10951TIP3    H254345   5.647   1.463   3.531  0.6509  1.1231  0.8860
10952TIP3   OH254346   1.591   2.719  16.704 -0.1150  0.0795 -0.0758
10952TIP3    H154347   1.570   2.687  16.617  0.7913  0.4608 -0.4516
10952TIP3    H254348   1.656   2.788  16.689 -0.2710  0.4451  0.8694
10953TIP3   OH254349   6.035   2.982  16.349 -0.2978 -0.1826  0.9033
10953TIP3    H154350   6.079   2.900  16.370  1.4348  0.8901  1.6359
10953TIP3    H254351   5.948   2.972  16.387  0.2999 -1.1917  2.0895
10954TIP3   OH254352   2.125   2.259  14.548 -0.8002  0.0943  0.8494
10954TIP3    H154353   2.134   2.218  14.634 -2.8122 -0.6936  0.7383
10954TIP3    H254354   2.212   2.249  14.508 -0.2616 -0.9334  2.1784
10955TIP3   OH254355   1.731   4.664  16.400  0.4831  0.5100 -0.2273
10955TIP3    H154356   1.784   4.733  16.360 -0.2099  0.1847 -1.7618
10955TIP3    H254357   1.795   4.607  16.442  1.1799  1.2698 -0.2177
10956TIP3   OH254358   5.531   1.560  13.017  0.0360  0.8951  0.0593
10956TIP3    H154359   5.440   1.556  12.986  0.2934 -1.7805 -0.5223
10956TIP3    H254360   5.580   1.596  12.943 -0.7343  4.5541  1.1214
10957TIP3   OH254361   1.923   1.019  12.322  0.4322  0.0961  0.4787
10957TIP3    H154362   1.938   1.100  12.273 -1.1719 -0.1164 -0.4353
10957TIP3    H254363   1.961   1.036  12.408  1.6442  1.1779 -0.2172
10958TIP3   OH254364   4.401   4.780  15.296 -0.1191  0.2229  0.3682
10958TIP3    H154365   4.311   4.753  15.313 -0.1529  0.3279  0.3591
10958TIP3    H254366   4.395   4.874  15.279  0.2460  0.6814  2.4526
10959TIP3   OH254367   3.325   3.620   3.989 -0.0940 -0.3409  0.5476
10959TIP3    H154368   3.289   3.531   3.989 -0.9041 -0.0282 -0.6201
10959TIP3    H254369   3.305   3.654   4.076 -0.6452 -0.9631  0.6738
10960TIP3   OH254370   1.999   5.377   4.660  0.3393 -0.1394  0.2575
10960TIP3    H154371   1.938   5.442   4.624 -2.0843 -0.9478  2.5826
10960TIP3    H254372   2.043   5.424   4.731  1.7002  0.0941 -0.6877
10961TIP3   OH254373   1.346   4.500  15.468  0.5407 -0.0051  0.2681
10961TIP3    H154374   1.436   4.524  15.488  0.9141 -0.5095 -0.6997
10961TIP3    H254375   1.320   4.441  15.538  1.8747 -1.9200 -0.7428
10962TIP3   OH254376   0.703   3.523   5.425 -0.9573 -0.2266  0.2158
10962TIP3    H154377   0.751   3.605   5.437 -1.8399  0.0737  2.0648
10962TIP3    H254378   0.688   3.517   5.331  2.4713 -0.2529 -0.4858
10963TIP3   OH254379   1.096   1.584   2.356  0.6448 -0.5120  0.0484
10963TIP3    H154380   1.107   1.679   2.362 -0.9929 -0.3450  1.0865
10963TIP3    H254381   1.055   1.569   2.271 -2.0748  0.1017  1.1525
10964TIP3   OH254382   5.109   5.745  14.264  0.2862  0.8275  0.2288
10964TIP3    H154383   5.192   5.710  14.296  0.0481  0.2621  0.2464
10964TIP3    H254384   5.043   5.682  14.295  0.1473 -0.3722 -2.2648
10965TIP3   OH254385   6.291   0.377   4.580  0.2391  0.7754  0.1109
10965TIP3    H154386   6.279   0.366   4.486 -0.4021 -1.6235  0.4156
10965TIP3    H254387   6.375   0.335   4.598  0.2281  0.9822  0.6497
10966TIP3   OH254388   6.531   6.702   5.249  0.2555 -0.2891  0.2734
10966TIP3    H154389   6.492   6.632   5.302 -3.4097  1.0616 -0.3605
10966TIP3    H254390   6.538   6.776   5.310  1.3469 -0.3445  0.2225
10967TIP3   OH254391   4.630   6.555   0.523  0.0898  0.1409  0.1935
10967TIP3    H154392   4.584   6.491   0.469  1.9866 -0.2379 -1.0638
10967TIP3    H254393   4.604   6.640   0.487  0.1774 -0.0591 -0.3411
10968TIP3   OH254394   6.740   0.215  16.067 -0.1424  0.0508 -0.2295
10968TIP3    H154395   6.646   0.227  16.080  0.0902 -0.4219  2.3158
10968TIP3    H254396   6.767   0.158  16.139  2.2349  0.7714 -0.4787
10969TIP3   OH254397   6.289   1.033   2.065  0.1642  0.4908  0.1211
10969TIP3    H154398   6.346   1.000   1.996 -0.2166  0.7766 -0.3309
10969TIP3    H254399   6.270   0.955   2.118  1.4370  0.5035  0.6226
10970TIP3   OH254400   1.143   5.037   6.324 -0.6960 -0.4941  0.2163
10970TIP3    H154401   1.079   5.098   6.287 -1.5281 -0.8507  1.0202
10970TIP3    H254402   1.118   5.029   6.416  0.4324 -0.7523  0.5177
10971TIP3   OH254403   2.706   6.041   1.063  0.5669  0.4885 -0.4819
10971TIP3    H154404   2.741   6.120   1.021 -1.4920  1.7861  0.1416
10971TIP3    H254405   2.619   6.030   1.025  0.8503 -1.5996 -0.6493
10972TIP3   OH254406   1.532   5.894   5.286 -0.2825 -0.1441  0.3601
10972TIP3    H154407   1.601   5.948   5.323  0.9408 -0.5452 -1.2123
10972TIP3    H254408   1.458   5.954   5.273  0.1538  0.5416  1.0348
10973TIP3   OH254409   3.815   3.665  13.107 -0.2456 -0.4217 -0.1942
10973TIP3    H154410   3.882   3.667  13.175 -1.3465 -0.2335  0.9217
10973TIP3    H254411   3.801   3.757  13.084  0.2915 -0.4959 -0.8838
10974TIP3   OH254412   4.677   3.495   2.762  0.0852  0.1104 -0.5291
10974TIP3    H154413   4.595   3.533   2.795  0.1532 -0.4317  0.3168
10974TIP3    H254414   4.662   3.401   2.764  1.4147 -0.1290  1.6544
10975TIP3   OH254415   0.852   0.454  17.288  0.4253  0.1212 -0.1013
10975TIP3    H154416   0.864   0.547  17.272 -0.4837  0.6677  2.0018
10975TIP3    H254417   0.940   0.418  17.294  0.7822  0.6588 -1.7230
10976TIP3   OH254418   1.438   1.682   0.100 -0.2353 -0.5483  0.4734
10976TIP3    H154419   1.449   1.735   0.021 -2.3713  0.5118  0.8037
10976TIP3    H254420   1.439   1.746   0.171  2.5072 -1.5661  1.4675
10977TIP3   OH254421   0.257   2.509   2.914  0.3633  0.4809 -0.0304
10977TIP3    H154422   0.204   2.504   2.993  0.8545 -0.2687  0.2668
10977TIP3    H254423   0.313   2.585   2.928  0.2605  0.5109  0.2231
10978TIP3   OH254424   2.888   5.546  12.811 -0.4186  0.6697 -0.0650
10978TIP3    H154425   2.923   5.635  12.813  0.5629  0.3509 -1.4446
10978TIP3    H254426   2.898   5.515  12.901  0.2450  1.5782  0.2012
10979TIP3   OH254427   1.818   1.043  15.461 -0.1307 -0.2057  0.0170
10979TIP3    H154428   1.731   1.036  15.501  0.3671 -2.3207  0.8636
10979TIP3    H254429   1.879   1.029  15.533  1.0083  2.1475 -0.3912
10980TIP3   OH254430   2.086   4.553  13.240  0.4315 -0.1500 -0.1242
10980TIP3    H154431   2.168   4.581  13.199  0.8215  0.3549  0.9888
10980TIP3    H254432   2.068   4.619  13.307 -0.7857 -0.3659 -0.2041
10981TIP3   OH254433   3.058   2.850   5.912 -0.2687  0.3534  0.0244
10981TIP3    H154434   3.112   2.836   5.835  0.1433 -2.8564  0.7608
10981TIP3    H254435   3.119   2.880   5.979 -0.3817  1.7891 -0.4902
10982TIP3   OH254436   3.583   4.500   2.636 -0.0428  0.4936  0.4826
10982TIP3    H154437   3.566   4.457   2.720 -1.4185 -0.3318 -0.1816
10982TIP3    H254438   3.619   4.586   2.659  0.5222 -0.1003  1.8825
10983TIP3   OH254439   5.406   6.712  10.726 -0.0611  0.4993 -0.3934
10983TIP3    H154440   5.499   6.690  10.717 -0.2523 -0.5777  0.0863
10983TIP3    H254441   5.363   6.627  10.737 -0.8038  1.0929  1.8169
10984TIP3   OH254442   5.419   0.893  11.030  0.4356  0.1759 -0.3834
10984TIP3    H154443   5.419   0.964  11.095 -1.2599 -0.4603  0.3918
10984TIP3    H254444   5.341   0.842  11.052  1.8912 -2.2491 -0.5730
10985TIP3   OH254445   5.151   0.339   1.003  0.1514  0.0880  0.0527
10985TIP3    H154446   5.243   0.358   0.987  0.2314  0.0031  0.4040
10985TIP3    H254447   5.150   0.249   1.036 -0.4026 -1.3623 -3.4846
10986TIP3   OH254448   1.658   2.276  14.943  0.5961  0.1329  0.1474
10986TIP3    H154449   1.652   2.367  14.915 -1.0015 -0.5024 -1.8099
10986TIP3    H254450   1.594   2.269  15.014 -1.2382  0.0095 -1.4343
10987TIP3   OH254451   5.871   2.935  13.938  0.6263  0.5460  0.0558
10987TIP3    H154452   5.907   2.966  13.855  0.5161 -0.7384 -0.5010
10987TIP3    H254453   5.778   2.920  13.919  0.8349 -0.8589  0.0563
10988TIP3   OH254454   3.100   2.995   6.706  0.8972 -0.0392  0.1655
10988TIP3    H154455   3.026   3.053   6.721  0.2826 -0.5383 -0.8187
10988TIP3    H254456   3.160   3.046   6.652 -1.2803 -1.3942 -3.9121
10989TIP3   OH254457   5.659   5.679   0.468  0.3800 -1.1519  0.4065
10989TIP3    H154458   5.568   5.707   0.483  0.0694 -2.1014  0.3535
10989TIP3    H254459   5.653   5.585   0.450  1.4402 -1.3594  1.0237
10990TIP3   OH254460   4.372   1.728   3.054 -0.1732 -0.3430 -0.2112
10990TIP3    H154461   4.375   1.636   3.029 -0.3324 -0.7912  1.2833
10990TIP3    H254462   4.284   1.757   3.028 -0.2433 -0.7063 -0.3861
10991TIP3   OH254463   1.510   0.034   6.468  0.5456  0.1082 -0.0876
10991TIP3    H154464   1.507   0.117   6.517  0.7047 -0.1495  0.3623
10991TIP3    H254465   1.470  -0.030   6.527  0.3447 -0.1244 -0.4691
10992TIP3   OH254466   6.010   3.497  13.381 -0.4491  0.1475 -0.0385
10992TIP3    H154467   5.919   3.526  13.369 -0.4400 -0.5554 -2.3688
10992TIP3    H254468   6.005   3.433  13.452 -1.4105  1.5340  1.2120
10993TIP3   OH254469   3.620   2.805  12.550 -0.1424  0.0449  0.4323
10993TIP3    H154470   3.561   2.787  12.477  0.2894  1.5202 -0.3075
10993TIP3    H254471   3.643   2.897  12.541  1.6066 -0.2751  1.1909
10994TIP3   OH254472   6.045   6.295   3.576 -0.4266  0.1671 -0.0107
10994TIP3    H154473   6.136   6.281   3.548 -0.6952  0.9370 -1.3319
10994TIP3    H254474   6.045   6.268   3.668  0.1975 -3.7567 -0.9648
10995TIP3   OH254475   2.790   0.149   5.767 -0.2966  0.0615  0.5070
10995TIP3    H154476   2.780   0.089   5.841  0.7353  0.7548  1.2431
10995TIP3    H254477   2.832   0.096   5.699 -0.2835 -0.3088  0.8016
10996TIP3   OH254478   0.921   0.209   5.310 -0.3604  0.2655 -0.0237
10996TIP3    H154479   0.938   0.129   5.360 -2.3206 -0.1649  0.0299
10996TIP3    H254480   0.845   0.188   5.255  2.6319  0.0429 -4.7137
10997TIP3   OH254481   3.678   1.478   5.760  0.1576 -0.5563 -0.0843
10997TIP3    H154482   3.718   1.418   5.697 -0.4159  0.0322 -1.0378
10997TIP3    H254483   3.585   1.480   5.736  0.0100  0.0155  0.5010
10998TIP3   OH254484   4.530   0.214   1.213 -0.2004  0.2500 -0.0258
10998TIP3    H154485   4.608   0.231   1.160 -1.1850 -1.1562 -2.0248
10998TIP3    H254486   4.553   0.138   1.266  0.7834  1.6527  1.6573
10999TIP3   OH254487   6.327   5.503   6.175 -0.2668 -0.0034  0.1475
10999TIP3    H154488   6.321   5.453   6.257 -0.8624  0.8016  0.6105
10999TIP3    H254489   6.247   5.479   6.127  0.1687 -0.6120 -0.2912
11000TIP3   OH254490   0.608   5.132   3.615 -0.1344 -0.8287  0.2551
11000TIP3    H154491   0.561   5.112   3.696 -0.4140 -0.4139  0.1962
11000TIP3    H254492   0.652   5.050   3.592 -1.4180 -1.4303 -0.0929
11001TIP3   OH254493   3.313   4.035   5.407 -0.8644  0.0557  0.6730
11001TIP3    H154494   3.264   4.002   5.483  0.4811  0.5881  1.8304
11001TIP3    H254495   3.313   3.963   5.345  0.4103 -1.4976  2.3676
11002TIP3   OH254496   2.385   1.830  17.183  0.2456 -0.2380  1.0660
11002TIP3    H154497   2.441   1.903  17.209 -0.3106  1.6788 -2.5447
11002TIP3    H254498   2.442   1.771  17.134 -0.1757 -0.0389  0.3283
11003TIP3   OH254499   0.287   4.201   4.971  0.3121 -0.5752 -0.6328
11003TIP3    H154500   0.208   4.184   4.919 -0.9263  1.6214  0.3868
11003TIP3    H254501   0.353   4.228   4.906 -0.6540  0.3465 -1.2667
11004TIP3   OH254502   1.752   3.937  16.045  0.5796 -0.2268  0.3227
11004TIP3    H154503   1.781   3.957  16.134  0.6947  0.3776  0.1555
11004TIP3    H254504   1.771   4.016  15.995 -1.4487  0.2677  0.2224
11005TIP3   OH254505   4.750   5.698   2.718  0.4263  0.0404  0.3362
11005TIP3    H154506   4.830   5.652   2.746  0.2245 -0.4974  0.0380
11005TIP3    H254507   4.754   5.698   2.623  0.8272  1.3711  0.3273
11006TIP3   OH254508   4.466   0.145  11.093  0.7950 -0.1885 -0.0174
11006TIP3    H154509   4.515   0.198  11.156  0.4809 -1.0334  0.9701
11006TIP3    H254510   4.531   0.088  11.054  1.0576  0.6011 -0.7597
11007TIP3   OH254511   0.253   3.656   3.454 -0.0013 -0.1072  0.4487
11007TIP3    H154512   0.213   3.727   3.505 -0.2778 -0.7745  1.1796
11007TIP3    H254513   0.246   3.579   3.510  2.6446 -0.1953  0.7497
11008TIP3   OH254514   1.645   6.682   4.727  0.1143  0.3458 -0.0038
11008TIP3    H154515   1.632   6.589   4.746  1.3451 -0.2342 -1.6411
11008TIP3    H254516   1.660   6.684   4.632 -1.6463  2.4497 -0.3008
11009TIP3   OH254517   1.168   3.111  16.153  0.1918 -0.4407  0.4531
11009TIP3    H154518   1.256   3.094  16.120  0.0756  1.1748 -0.7706
11009TIP3    H254519   1.179   3.119  16.248  1.9565  2.8105  0.0981
11010TIP3   OH254520   5.174   4.281   0.252 -0.0044  0.6911 -0.0488
11010TIP3    H154521   5.262   4.261   0.220 -0.5496 -0.7940 -0.7322
11010TIP3    H254522   5.165   4.225   0.330 -0.3380  0.8247  0.0084
11011TIP3   OH254523   5.328   3.169   3.314 -0.1855 -0.0895 -0.0176
11011TIP3    H154524   5.264   3.157   3.244 -0.8352  0.6086  0.4294
11011TIP3    H254525   5.302   3.252   3.355  2.2707  1.3314 -1.1487
11012TIP3   OH254526   1.281   0.702   2.815 -0.2587 -0.3879  0.0383
11012TIP3    H154527   1.264   0.780   2.868  1.4209 -1.5719  2.4673
11012TIP3    H254528   1.210   0.642   2.837 -0.2370 -0.4338 -0.0158
11013TIP3   OH254529   3.805   0.208   0.407  0.0067  0.1463 -0.2378
11013TIP3    H154530   3.865   0.154   0.459  1.4487  1.1562 -0.7991
11013TIP3    H254531   3.767   0.268   0.471 -1.0348 -0.9923  0.2577
11014TIP3   OH254532   3.892   0.012   0.654  0.2145 -0.5617  0.8694
11014TIP3    H154533   3.900  -0.080   0.680 -0.7564 -0.5679  1.1796
11014TIP3    H254534   3.798   0.030   0.657  0.1795 -0.1117 -1.0612
11015TIP3   OH254535   0.935   1.510   2.587 -0.6616  0.0605 -0.2161
11015TIP3    H154536   1.010   1.495   2.529  0.0529 -0.6474  0.8554
11015TIP3    H254537   0.899   1.594   2.558 -2.2961 -1.6670 -3.7833
11016TIP3   OH254538   4.632   1.748  11.441  0.1552  0.0244  0.0810
11016TIP3    H154539   4.663   1.838  11.426  1.2377 -0.3938 -0.2808
11016TIP3    H254540   4.560   1.737  11.380 -0.1039  0.7064  0.2538
11017TIP3   OH254541   1.224   4.366  12.359  0.1484  0.2983  0.6827
11017TIP3    H154542   1.241   4.418  12.282 -1.6560  1.5674  1.0649
11017TIP3    H254543   1.129   4.372  12.372  0.0552 -1.8951  1.5958
11018TIP3   OH254544   5.847   3.593   3.946  0.1561 -0.5002 -0.4317
11018TIP3    H154545   5.790   3.516   3.948  0.8762 -1.0332  0.9791
11018TIP3    H254546   5.886   3.596   4.034  2.8522 -0.5737 -1.5252
11019TIP3   OH254547   0.621   1.832   3.135  0.5819 -0.2513 -0.1716
11019TIP3    H154548   0.696   1.883   3.168  0.8897 -2.3578  2.7799
11019TIP3    H254549   0.661   1.755   3.094  0.0457 -0.0860 -1.0220
11020TIP3   OH254550   2.552   2.835  17.077 -0.0418  0.2135 -0.6470
11020TIP3    H154551   2.511   2.869  16.997 -0.4532 -2.4787 -1.7226
11020TIP3    H254552   2.646   2.847  17.063 -0.1595  0.5858 -1.1314
11021TIP3   OH254553   5.162   5.086   3.588  0.1933 -0.7053 -0.3558
11021TIP3    H154554   5.095   5.093   3.656 -0.5283 -1.7155 -0.9332
11021TIP3    H254555   5.134   5.011   3.534  1.4148 -0.7122 -1.0191
11022TIP3   OH254556   1.336   4.079   1.797 -0.3465 -0.0275  0.3969
11022TIP3    H154557   1.395   4.146   1.763 -1.1536  0.1241 -0.7658
11022TIP3    H254558   1.250   4.121   1.799 -0.5661 -0.4840  1.3479
11023TIP3   OH254559   6.715   5.510  14.354 -0.1338 -0.3549  0.6438
11023TIP3    H154560   6.691   5.487  14.444 -1.1130  1.4458  0.9074
11023TIP3    H254561   6.743   5.602  14.360  0.2087 -0.3375 -0.8131
11024TIP3   OH254562   1.116   1.637   2.993  0.5705  0.0977  0.0246
11024TIP3    H154563   1.166   1.719   2.995 -0.4864  0.7812 -0.7619
11024TIP3    H254564   1.177   1.573   2.954  1.2173  0.6335  0.1333
11025TIP3   OH254565   3.394   5.961  10.521  0.4169  0.0192 -0.1306
11025TIP3    H154566   3.315   5.922  10.483  0.6952 -0.0487 -0.6392
11025TIP3    H254567   3.448   5.885  10.545 -0.3563  0.0001  1.7351
11026TIP3   OH254568   5.436   6.363   3.034  0.1163 -0.1966  0.1547
11026TIP3    H154569   5.456   6.270   3.018  1.2121 -0.0186  0.3770
11026TIP3    H254570   5.521   6.407   3.024 -0.5414  0.9096 -0.7785
11027TIP3   OH254571   1.431   0.763   0.960 -0.0771 -0.2709  0.5015
11027TIP3    H154572   1.438   0.792   1.051  0.1655  1.1784  0.0516
11027TIP3    H254573   1.521   0.770   0.927 -0.5349  1.5612 -0.4921
11028TIP3   OH254574   1.381   5.629  16.323  0.1492 -0.5431  0.2919
11028TIP3    H154575   1.308   5.689  16.309 -0.7363 -1.2252  1.6910
11028TIP3    H254576   1.373   5.566  16.252  0.7037  0.6116 -0.8165
11029TIP3   OH254577   4.392   3.150   2.356 -0.1593 -0.2966 -0.4230
11029TIP3    H154578   4.369   3.219   2.418 -0.8535 -0.2952 -0.6667
11029TIP3    H254579   4.316   3.091   2.358 -0.7704  0.3585 -2.1793
11030TIP3   OH254580   5.277   0.253  14.748 -0.1816 -0.9102  0.0687
11030TIP3    H154581   5.194   0.301  14.747  1.2180  1.6465  0.2039
11030TIP3    H254582   5.253   0.166  14.783 -3.2171 -1.2390 -2.3451
11031TIP3   OH254583   0.483   1.393  14.804  0.1241 -0.0389 -0.1770
11031TIP3    H154584   0.455   1.484  14.794 -2.0033 -0.6728 -0.5568
11031TIP3    H254585   0.570   1.399  14.844 -0.1912  2.1449  0.3313
11032TIP3   OH254586   4.592   4.358   3.310 -0.1557 -0.0593  0.2255
11032TIP3    H154587   4.671   4.348   3.363  0.4755 -2.6148 -1.0383
11032TIP3    H254588   4.624   4.374   3.221 -1.0366 -0.6532 -0.2175
11033TIP3   OH254589   3.533   0.346  16.565  0.5604  0.7670  0.0547
11033TIP3    H154590   3.483   0.354  16.646  0.4013  0.2804  0.0080
11033TIP3    H254591   3.484   0.399  16.502  0.4202  0.7582  0.1549
11034TIP3   OH254592   2.686   1.476   5.549  0.0409  0.6511 -0.0094
11034TIP3    H154593   2.695   1.416   5.624  1.2451  1.3075  0.4049
11034TIP3    H254594   2.609   1.444   5.502  0.6973 -1.3095  0.1285
11035TIP3   OH254595   4.882   0.188   5.683  0.7711  0.0638  0.1082
11035TIP3    H154596   4.944   0.231   5.624  2.0236  0.7795  1.8484
11035TIP3    H254597   4.801   0.180   5.632  1.4383  1.6851 -1.2922
11036TIP3   OH254598   0.461   6.137  11.533 -0.0371 -0.1297 -0.1809
11036TIP3    H154599   0.492   6.147  11.444 -0.6034 -1.6650 -0.5738
11036TIP3    H254600   0.483   6.220  11.576 -1.8353  1.5791 -2.3637
11037TIP3   OH254601   4.738   3.028   4.509  0.4492 -0.4599 -0.5501
11037TIP3    H154602   4.675   3.086   4.552  2.2610  0.5373  0.9551
11037TIP3    H254603   4.712   3.027   4.417 -2.4671 -1.1316  0.1794
11038TIP3   OH254604   0.053   1.540   2.271 -0.3197 -0.2446  0.6157
11038TIP3    H154605  -0.042   1.527   2.269 -0.1750 -1.4769 -1.9859
11038TIP3    H254606   0.066   1.631   2.242 -0.6939 -0.1206  0.8339
11039TIP3   OH254607   4.639   1.049  13.253 -0.1931  0.0227  0.0800
11039TIP3    H154608   4.729   1.046  13.283  0.2295  0.9658 -0.9965
11039TIP3    H254609   4.644   1.023  13.160 -0.8045  1.4516 -0.3813
11040TIP3   OH254610   6.781   5.764   4.078  0.3224  0.1505  0.2742
11040TIP3    H154611   6.699   5.743   4.122  0.7224 -0.5227  0.7110
11040TIP3    H254612   6.754   5.812   4.000 -0.4725  0.1299  0.5243
11041TIP3   OH254613   2.721   3.938  15.109 -0.3300  0.0016 -0.5727
11041TIP3    H154614   2.791   3.900  15.057 -0.8656 -2.2363  0.2080
11041TIP3    H254615   2.714   4.029  15.079  2.1634 -0.0212 -1.3815
11042TIP3   OH254616   3.394   4.379   3.954  0.0113 -0.1912  0.3409
11042TIP3    H154617   3.419   4.465   3.987  2.2265  0.2929 -2.3064
11042TIP3    H254618   3.317   4.395   3.899  1.4360  0.4963 -1.5582
11043TIP3   OH254619   0.434   3.623   6.476 -0.4312 -0.2613 -0.1027
11043TIP3    H154620   0.378   3.601   6.551 -0.9262 -0.8947 -0.6468
11043TIP3    H254621   0.508   3.562   6.482 -0.5770 -0.4537 -0.2431
11044TIP3   OH254622   2.925   4.738  13.715 -0.0550  0.4128  0.5199
11044TIP3    H154623   2.980   4.660  13.720 -1.7853 -0.9206  0.0374
11044TIP3    H254624   2.981   4.804  13.675  0.3788 -1.7885 -3.0032
11045TIP3   OH254625   5.098   4.475   4.633 -0.1592  0.0815 -0.0986
11045TIP3    H154626   5.023   4.486   4.691  1.0405 -1.4210  1.8875
11045TIP3    H254627   5.067   4.416   4.565 -1.1596  0.6145 -0.1279
11046TIP3   OH254628   5.542   6.484  14.833  0.0931  0.6192  0.5300
11046TIP3    H154629   5.619   6.503  14.780  0.6193 -0.9183  0.7154
11046TIP3    H254630   5.493   6.419  14.783 -0.5006  0.7191  0.9655
11047TIP3   OH254631   3.202   4.679   0.837  0.2597 -0.2242  0.4642
11047TIP3    H154632   3.160   4.730   0.768 -1.7767  0.0375  1.8282
11047TIP3    H254633   3.223   4.596   0.795  0.1890  0.3552 -0.7762
11048TIP3   OH254634   3.904   0.720   2.099  0.4160 -0.2839 -0.2096
11048TIP3    H154635   3.877   0.794   2.044 -0.8879  1.9192  3.0232
11048TIP3    H254636   3.845   0.649   2.075 -0.7461  0.8992 -1.0066
11049TIP3   OH254637   2.810   0.627   0.273 -0.2657 -0.2110 -0.1704
11049TIP3    H154638   2.718   0.645   0.291 -0.0235  0.6145  0.2847
11049TIP3    H254639   2.841   0.579   0.350 -0.7038 -1.9574 -1.0274
11050TIP3   OH254640   0.734   3.848  12.294 -0.1291 -0.5361 -0.8668
11050TIP3    H154641   0.683   3.793  12.235  1.0018  0.2024 -2.6011
11050TIP3    H254642   0.819   3.804  12.299 -0.5380 -1.2101  1.1862
11051TIP3   OH254643   2.276   6.109   5.090  0.9503 -0.1775 -0.0353
11051TIP3    H154644   2.351   6.142   5.042  1.6103  1.0667  1.7317
11051TIP3    H254645   2.314   6.068   5.168 -0.1864  0.1017  0.6837
11052TIP3   OH254646   4.587   0.548   1.075  0.3206 -0.0313 -0.0174
11052TIP3    H154647   4.502   0.550   1.118  0.3070  0.4583 -0.0683
11052TIP3    H254648   4.625   0.634   1.091  0.7425 -0.1927 -0.1253
11053TIP3   OH254649   6.424   1.119   3.198 -0.4706 -0.1752  0.6934
11053TIP3    H154650   6.415   1.082   3.110 -0.0915  0.1674  0.5080
11053TIP3    H254651   6.334   1.133   3.227 -0.6373  2.0349 -0.6237
11054TIP3   OH254652   3.075   6.047  15.601  0.0931 -0.2164  0.3201
11054TIP3    H154653   3.055   6.010  15.688  0.9525 -1.5935 -0.0373
11054TIP3    H254654   3.159   6.008  15.577 -0.0537  0.2722 -1.0775
11055TIP3   OH254655   6.620   3.046   3.520  0.3502  0.0998 -0.0856
11055TIP3    H154656   6.664   3.107   3.462  0.2750  0.2517  0.0174
11055TIP3    H254657   6.563   3.100   3.575  1.0189  0.0556  0.6834
11056TIP3   OH254658   0.787   0.494   0.244 -0.1639 -0.0222 -0.9119
11056TIP3    H154659   0.882   0.487   0.248 -0.3075 -2.0154  1.6005
11056TIP3    H254660   0.761   0.435   0.173  0.3648 -3.0170  1.1844
11057TIP3   OH254661   5.836   1.757   5.118 -0.3275 -0.6408 -0.3152
11057TIP3    H154662   5.769   1.701   5.158 -0.0403  0.1034  1.2889
11057TIP3    H254663   5.785   1.826   5.075 -0.6657  0.1882  1.2926
11058TIP3   OH254664   0.243   4.825   0.211 -0.4211  0.1336  0.1499
11058TIP3    H154665   0.241   4.875   0.130 -0.7408 -1.7528 -1.0545
11058TIP3    H254666   0.255   4.892   0.280 -0.5766  1.8069 -1.3730
11059TIP3   OH254667   3.817   2.678   1.266  0.0669  0.6217 -0.7929
11059TIP3    H154668   3.782   2.767   1.272  0.0756  0.5709  0.1717
11059TIP3    H254669   3.758   2.633   1.205 -0.0294  1.2349 -1.1684
11060TIP3   OH254670   2.131   1.957   2.333  0.2008 -0.3322 -1.0731
11060TIP3    H154671   2.145   1.866   2.358  0.8931 -0.4381 -1.8227
11060TIP3    H254672   2.051   1.982   2.379  0.3340 -1.1298 -0.3833
11061TIP3   OH254673   6.162   0.931  11.945 -0.3416  0.3543  0.1835
11061TIP3    H154674   6.126   0.864  11.888 -1.5180  0.8974  0.2607
11061TIP3    H254675   6.229   0.886  11.997 -0.8648 -0.6618 -0.0161
11062TIP3   OH254676   6.784   5.291  14.781 -0.0730 -0.4941  0.5620
11062TIP3    H154677   6.762   5.253  14.696 -2.7207 -0.5358  1.1744
11062TIP3    H254678   6.758   5.383  14.773  1.6352  0.0235  0.6795
11063TIP3   OH254679   6.762   0.899   1.221  0.4752 -0.4984 -0.1505
11063TIP3    H154680   6.845   0.873   1.261  1.0397  0.6173 -0.5475
11063TIP3    H254681   6.786   0.971   1.162 -1.0892  1.3475  1.3618
11064TIP3   OH254682   2.703   0.098  14.117  0.3597 -0.1453 -0.1408
11064TIP3    H154683   2.629   0.138  14.070  1.4635  0.9448 -1.0303
11064TIP3    H254684   2.709   0.148  14.198  0.8352  0.5715 -0.6032
11065TIP3   OH254685   6.724   5.843  13.894 -0.2978  0.0347 -0.5156
11065TIP3    H154686   6.680   5.807  13.971  0.3507 -1.8468 -0.9867
11065TIP3    H254687   6.806   5.879  13.929  0.2013 -1.2074 -0.3519
11066TIP3   OH254688   6.435   6.552  11.494 -0.0337 -0.1981  0.1110
11066TIP3    H154689   6.525   6.522  11.485 -0.8382 -2.0153 -4.6408
11066TIP3    H254690   6.382   6.483  11.454 -3.2419  2.0789  0.0268
11067TIP3   OH254691   0.046   1.904   3.812  0.4376 -0.3885  0.7440
11067TIP3    H154692   0.089   1.819   3.804  0.6557 -0.2476  0.3995
11067TIP3    H254693   0.075   1.938   3.896  1.0012 -0.3005  0.5230
11068TIP3   OH254694   1.452   1.697   2.870  0.5100  0.4456  0.2615
11068TIP3    H154695   1.382   1.760   2.887  2.1022  2.1314  0.8101
11068TIP3    H254696   1.510   1.704   2.946  1.0242 -1.3019  0.0637
11069TIP3   OH254697   1.945   4.040  13.566  0.0372 -1.2365 -0.2712
11069TIP3    H154698   1.895   4.100  13.510 -0.1409 -0.5204  0.6307
11069TIP3    H254699   1.901   3.955  13.556 -0.3270 -0.9893 -0.7879
11070TIP3   OH254700   3.823   3.464   1.045  0.0876 -0.2238  0.3122
11070TIP3    H154701   3.908   3.478   1.088  0.1617  1.3751 -0.2681
11070TIP3    H254702   3.760   3.508   1.102 -0.2734 -0.8972  0.4346
11071TIP3   OH254703   1.834   0.581   3.377 -0.5732  0.0707  0.2272
11071TIP3    H154704   1.774   0.646   3.415 -1.5013 -0.4772 -0.2392
11071TIP3    H254705   1.904   0.633   3.338  0.0609  0.6710  2.0807
11072TIP3   OH254706   5.815   3.351   0.331 -0.5834  0.0785  0.1344
11072TIP3    H154707   5.794   3.259   0.344 -0.6313 -0.0835 -0.9447
11072TIP3    H254708   5.801   3.365   0.237  2.4470  0.4067 -0.3672
11073TIP3   OH254709   3.209   5.871   4.344 -0.5870 -0.0044  0.2010
11073TIP3    H154710   3.262   5.901   4.417 -1.2139  1.1183  0.2252
11073TIP3    H254711   3.272   5.843   4.278 -0.0009 -2.5369  1.7083
11074TIP3   OH254712   5.135   6.606   4.347  0.8397  0.2934 -0.1910
11074TIP3    H154713   5.128   6.616   4.252  0.3981 -3.1342 -0.6400
11074TIP3    H254714   5.199   6.536   4.360  0.3457  0.1681  2.0054
11075TIP3   OH254715   3.523   2.372   0.662 -0.2192  0.0119  0.2807
11075TIP3    H154716   3.571   2.412   0.590 -2.8960 -1.3578 -2.5240
11075TIP3    H254717   3.450   2.432   0.679 -0.4984 -0.4521  0.7538
11076TIP3   OH254718   3.694   4.612   5.522  0.0578 -0.0302  0.0593
11076TIP3    H154719   3.599   4.621   5.521  0.1444  1.3643  1.7567
11076TIP3    H254720   3.712   4.547   5.591  0.3133 -1.2940 -1.1389
11077TIP3   OH254721   3.100   4.665  14.796  0.1617 -0.3210 -0.6617
11077TIP3    H154722   3.193   4.670  14.817  0.1484  0.7829 -0.8279
11077TIP3    H254723   3.062   4.745  14.832 -0.6599 -0.5694 -0.9413
11078TIP3   OH254724   0.540   3.458   2.715  0.0805 -0.4832 -0.7619
11078TIP3    H154725   0.510   3.546   2.736  1.1152  0.2084 -1.9687
11078TIP3    H254726   0.476   3.424   2.653  0.0328 -0.3120 -0.8044
11079TIP3   OH254727   6.574   4.116   1.092  0.1157  0.2104  0.0593
11079TIP3    H154728   6.501   4.158   1.137 -0.1583  0.0889 -0.2665
11079TIP3    H254729   6.589   4.035   1.142  0.3214  0.4482  0.3899
11080TIP3   OH254730   0.868   6.748   0.298 -0.2652 -0.0052 -0.4881
11080TIP3    H154731   0.819   6.827   0.275  0.3760  0.4551 -0.2958
11080TIP3    H254732   0.815   6.707   0.367  0.4098  1.3525  0.9097
11081TIP3   OH254733   1.210   5.806   1.265  0.8576  0.1080 -0.1914
11081TIP3    H154734   1.269   5.882   1.262  0.3130  0.5028 -2.0569
11081TIP3    H254735   1.202   5.778   1.174 -1.8704  0.1074 -0.0323
11082TIP3   OH254736   2.302   2.455  13.005 -0.2532  0.0749 -0.3914
11082TIP3    H154737   2.279   2.412  12.923  1.6563 -1.3457 -0.2597
11082TIP3    H254738   2.248   2.411  13.071 -0.0980 -0.4243 -0.5923
11083TIP3   OH254739   3.359   1.224  15.755  0.1142 -0.1128 -0.1283
11083TIP3    H154740   3.267   1.213  15.732  0.4252 -0.7123 -1.1374
11083TIP3    H254741   3.401   1.141  15.731  1.1557  0.6178 -0.9538
11084TIP3   OH254742   1.035   6.738  16.285 -0.6180 -0.0762 -0.0244
11084TIP3    H154743   1.110   6.703  16.238 -0.1436  1.5680 -0.5666
11084TIP3    H254744   0.960   6.717  16.229 -0.1209  1.3839 -1.3021
11085TIP3   OH254745   6.002   0.447  13.803  0.3359  0.2418  0.6374
11085TIP3    H154746   5.960   0.519  13.849  2.2873  0.5266  2.1026
11085TIP3    H254747   5.986   0.465  13.710 -3.0903  0.0439  1.0326
11086TIP3   OH254748   3.548   4.750  15.438  0.4993  0.1478  0.1292
11086TIP3    H154749   3.643   4.742  15.449  0.5238 -1.0775 -0.7769
11086TIP3    H254750   3.511   4.681  15.494  0.2358 -0.4629 -0.7804
11087TIP3   OH254751   5.405   2.052  14.030 -0.3434 -0.1158 -0.5461
11087TIP3    H154752   5.332   2.105  14.061 -0.5645 -1.0721  0.6693
11087TIP3    H254753   5.364   1.977  13.987 -0.0462  0.2736 -1.5247
11088TIP3   OH254754   3.923   1.768   0.371  0.1427 -0.1531 -0.0711
11088TIP3    H154755   3.960   1.682   0.347  0.4058 -0.2602  0.6568
11088TIP3    H254756   3.944   1.776   0.464  0.4826  0.8909 -0.2335
11089TIP3   OH254757   3.898   2.058  16.366 -0.1777  0.4309 -0.7412
11089TIP3    H154758   3.979   2.012  16.388 -0.5912  0.6834  1.6440
11089TIP3    H254759   3.927   2.144  16.334  0.5081  0.0823 -1.0704
11090TIP3   OH254760   1.384   2.110   0.301 -0.3585  0.1370 -0.3928
11090TIP3    H154761   1.479   2.115   0.312 -0.0761  0.1661 -2.5083
11090TIP3    H254762   1.362   2.020   0.326  0.1706  0.1951  0.3266
11091TIP3   OH254763   5.683   4.804  15.098 -0.2775  0.4508 -0.5613
11091TIP3    H154764   5.731   4.725  15.124  0.4122  1.0395 -0.0372
11091TIP3    H254765   5.722   4.874  15.149 -0.0317  1.3551 -1.9300
11092TIP3   OH254766   4.457   1.816  14.107 -0.3491 -0.4297 -0.1701
11092TIP3    H154767   4.426   1.783  14.023 -1.7274 -1.3222  0.6458
11092TIP3    H254768   4.503   1.741  14.147 -0.5601 -0.3261  0.2751
11093TIP3   OH254769   3.329   3.440  15.672  0.3504 -0.1595 -0.4967
11093TIP3    H154770   3.269   3.487  15.614  1.0686 -0.5351 -1.5792
11093TIP3    H254771   3.286   3.441  15.757 -0.9792 -0.0351 -1.1489
11094TIP3   OH254772   4.238   0.287   0.862 -0.0068 -0.3323  0.3686
11094TIP3    H154773   4.256   0.375   0.831 -1.5294 -1.1922 -3.5864
11094TIP3    H254774   4.322   0.256   0.897  0.9076  2.1889  0.5810
11095TIP3   OH254775   3.993   1.899  11.735 -0.1891 -0.5975 -0.6445
11095TIP3    H154776   4.008   1.857  11.819 -1.4210 -0.5668 -0.3899
11095TIP3    H254777   4.080   1.917  11.701  0.3742  1.0016  1.4155
11096TIP3   OH254778   6.556   5.984  15.125 -0.4351 -0.6395  0.1407
11096TIP3    H154779   6.527   5.972  15.216  1.2056 -0.4899  0.7248
11096TIP3    H254780   6.476   6.003  15.077 -1.4892 -1.7564  1.3649
11097TIP3   OH254781   3.282   6.749  16.913  0.3781 -0.3809 -0.4863
11097TIP3    H154782   3.198   6.704  16.922 -0.0711  0.4494 -0.4122
11097TIP3    H254783   3.282   6.783  16.824 -0.0289  0.8709 -0.0444
11098TIP3   OH254784   4.306   2.991   4.226  0.8109  0.4199  0.1100
11098TIP3    H154785   4.370   2.990   4.155  0.4947  0.0557 -0.1723
11098TIP3    H254786   4.355   2.960   4.302  1.3698  1.5853  0.2467
11099TIP3   OH254787   0.874   4.020   2.339 -0.4150 -0.0072 -0.0570
11099TIP3    H154788   0.899   4.049   2.426  0.4421  2.3925 -1.0271
11099TIP3    H254789   0.791   4.065   2.322 -0.3720 -0.1348 -0.6315
11100TIP3   OH254790   1.813   5.401   0.013 -0.0123 -0.2649  0.2010
11100TIP3    H154791   1.791   5.486   0.052  0.6223 -0.1803  0.3921
11100TIP3    H254792   1.894   5.375   0.056  0.0783 -0.7272 -0.2320
11101TIP3   OH254793   5.528   3.832   6.473 -0.0705  0.3379  0.2404
11101TIP3    H154794   5.455   3.772   6.490 -0.1716 -0.4463 -2.5300
11101TIP3    H254795   5.602   3.792   6.520 -0.2766 -1.7569 -1.0623
11102TIP3   OH254796   2.455   5.993   1.004 -0.8340 -0.2428 -0.3489
11102TIP3    H154797   2.403   6.068   0.977 -0.1601  0.5499  0.4914
11102TIP3    H254798   2.395   5.938   1.055 -0.8562  0.6983  0.6782
11103TIP3   OH254799   6.554   3.675   3.545 -0.1307 -0.3919 -0.1544
11103TIP3    H154800   6.624   3.633   3.595  0.0173 -1.8087 -1.4768
11103TIP3    H254801   6.475   3.625   3.568 -0.1017 -0.9077 -1.1394
11104TIP3   OH254802   2.853   3.046   5.440 -0.5229  0.4390 -0.2646
11104TIP3    H154803   2.868   3.105   5.514 -0.6788  0.1179  0.0222
11104TIP3    H254804   2.828   2.963   5.480 -2.1753  0.6965 -0.7186
11105TIP3   OH254805   4.530   0.887  15.083  0.1828  0.3276 -0.2660
11105TIP3    H154806   4.557   0.913  15.171 -0.4978  0.4778 -0.1011
11105TIP3    H254807   4.525   0.969  15.034 -0.8531  0.4012 -0.0520
11106TIP3   OH254808   3.762   0.017   4.880  0.5599  0.0163  0.4838
11106TIP3    H154809   3.781  -0.077   4.877  0.4559  0.0116 -1.5091
11106TIP3    H254810   3.781   0.048   4.792 -0.7982  1.5953  0.6986
11107TIP3   OH254811   2.187   6.691  13.428 -0.4837 -0.4020  0.2380
11107TIP3    H154812   2.157   6.650  13.346 -0.8654 -0.6261  0.4898
11107TIP3    H254813   2.247   6.627  13.465  2.7530  1.2185 -1.7232
11108TIP3   OH254814   0.575   5.752  15.661  0.3991  0.4195  0.7911
11108TIP3    H154815   0.656   5.729  15.708  2.2651  2.1316 -1.3413
11108TIP3    H254816   0.592   5.725  15.571 -2.1598 -0.6902  0.5649
11109TIP3   OH254817   0.478   4.049   4.122 -0.2412  0.0164  0.5673
11109TIP3    H154818   0.499   3.968   4.075  1.2674  0.6143  0.1491
11109TIP3    H254819   0.533   4.045   4.201 -0.5573  0.3925  0.8090
11110TIP3   OH254820   5.563   6.595   2.818  0.2336  0.0758  0.5554
11110TIP3    H154821   5.627   6.579   2.888  0.1594  1.3737  0.9474
11110TIP3    H254822   5.596   6.673   2.773 -0.4321  0.0342 -0.0179
11111TIP3   OH254823   6.260   4.288   0.337 -0.5705  0.0372  1.0564
11111TIP3    H154824   6.218   4.329   0.413  0.2928 -0.0638  1.6079
11111TIP3    H254825   6.350   4.272   0.366 -0.2904 -0.2071  0.0797
11112TIP3   OH254826   5.130   3.192  13.612  0.4906 -0.1609  0.2504
11112TIP3    H154827   5.066   3.156  13.551 -0.2202  0.7817  0.4261
11112TIP3    H254828   5.209   3.140  13.596  0.3392  0.0768 -1.4835
11113TIP3   OH254829   2.203   5.108   0.732 -0.2778  0.0227  0.4721
11113TIP3    H154830   2.140   5.178   0.713  1.3078  0.9909 -1.6363
11113TIP3    H254831   2.177   5.035   0.676 -0.2091  0.0062  0.4604
11114TIP3   OH254832   0.513   3.736   3.488 -0.4992 -0.1048 -0.0596
11114TIP3    H154833   0.518   3.663   3.549 -0.9023  1.8417  2.4760
11114TIP3    H254834   0.419   3.752   3.478 -0.4413 -0.4160 -1.2933
11115TIP3   OH254835   6.085   4.176   0.739  0.6063  0.7870  0.0773
11115TIP3    H154836   6.111   4.203   0.827  2.0377  0.2758 -0.1643
11115TIP3    H254837   6.122   4.088   0.729 -1.5695 -0.1760 -0.1790
11116TIP3   OH254838   2.587   1.324  13.275  0.4230  0.2324  0.0870
11116TIP3    H154839   2.623   1.403  13.236  0.8064  0.6979  1.3218
11116TIP3    H254840   2.541   1.355  13.354  0.0109 -0.7051  0.2331
11117TIP3   OH254841   6.032   5.963   2.718  0.2415  0.0194  0.3537
11117TIP3    H154842   6.090   5.890   2.697 -1.4680 -1.9090  1.9160
11117TIP3    H254843   5.996   5.989   2.633  0.5876 -1.2425 -0.2070
11118TIP3   OH254844   1.723   5.755  15.163  0.2858 -0.0586 -0.2873
11118TIP3    H154845   1.815   5.746  15.138  0.4411 -0.7138  0.4815
11118TIP3    H254846   1.712   5.694  15.236 -0.8570 -0.2843 -0.6232
11119TIP3   OH254847   1.429   2.558  17.126  0.5903  0.2096  0.3267
11119TIP3    H154848   1.349   2.511  17.149 -0.0564  0.1246 -1.8400
11119TIP3    H254849   1.424   2.568  17.031  0.9376  4.2538  0.5703
11120TIP3   OH254850   3.196   2.318   0.972  0.1493 -0.0236 -0.2354
11120TIP3    H154851   3.272   2.270   0.940  0.7380  1.7338 -1.6207
11120TIP3    H254852   3.126   2.298   0.910 -0.0065 -0.1619 -0.0198
11121TIP3   OH254853   0.174   6.643   0.430  0.5691 -0.0491  0.1021
11121TIP3    H154854   0.200   6.616   0.342 -0.5733 -1.4463  0.1509
11121TIP3    H254855   0.230   6.718   0.450  3.0977 -1.6034 -0.5899
11122TIP3   OH254856   3.478   3.545  11.893 -0.2744 -0.3357  0.8653
11122TIP3    H154857   3.534   3.557  11.970  1.0254 -1.2655  0.0938
11122TIP3    H254858   3.445   3.456  11.900  1.4595 -1.1622 -0.6248
11123TIP3   OH254859   0.908   0.295  15.216  0.4713  0.0685 -0.0955
11123TIP3    H154860   0.926   0.207  15.184 -0.3324 -0.4024  0.7022
11123TIP3    H254861   0.907   0.350  15.138  1.2849 -0.5729 -0.5658
11124TIP3   OH254862   5.113   4.098   4.127 -0.2502 -0.4008 -0.3369
11124TIP3    H154863   5.171   4.022   4.120 -1.3525 -1.1633 -2.2636
11124TIP3    H254864   5.152   4.163   4.068 -0.8796 -0.6105 -0.9981
11125TIP3   OH254865   0.249   3.125   4.826 -0.1463 -0.0489  0.5180
11125TIP3    H154866   0.220   3.210   4.793  0.6981 -0.0920 -0.3813
11125TIP3    H254867   0.184   3.063   4.794 -0.0464  0.0874  0.0377
11126TIP3   OH254868   6.349   4.789   3.549 -0.2411  0.3292 -0.3331
11126TIP3    H154869   6.354   4.727   3.622  2.5103  0.7919 -0.0323
11126TIP3    H254870   6.302   4.864   3.586  1.4574  0.7248  1.1710
11127TIP3   OH254871   6.472   5.409   3.333  0.3102 -0.5913 -0.2740
11127TIP3    H154872   6.440   5.491   3.295 -0.0594  0.4632  2.1079
11127TIP3    H254873   6.562   5.428   3.359  0.3064 -1.0313  0.0744
11128TIP3   OH254874   0.872   4.911  14.143 -0.1592 -0.1538 -0.4154
11128TIP3    H154875   0.956   4.918  14.098 -0.7763  0.3884 -1.5364
11128TIP3    H254876   0.849   5.001  14.165  0.0046 -0.3899  0.7855
11129TIP3   OH254877   4.026   0.675   5.225  0.0272 -0.0759  0.2047
11129TIP3    H154878   3.946   0.727   5.222 -0.0840 -0.2607 -0.1288
11129TIP3    H254879   4.037   0.643   5.135  1.0541  0.8157 -0.0039
11130TIP3   OH254880   5.607   6.714   5.501  0.3488 -0.3189 -0.3857
11130TIP3    H154881   5.600   6.634   5.552  1.4299 -0.4848 -0.4719
11130TIP3    H254882   5.662   6.772   5.554  1.7073 -0.5835 -1.4337
11131TIP3   OH254883   0.593   6.603  16.098  0.1248 -0.2386  0.4420
11131TIP3    H154884   0.551   6.678  16.057  1.3206  1.8227  2.7041
11131TIP3    H254885   0.539   6.583  16.175 -0.3107 -1.9312 -0.2429
11132TIP3   OH254886   4.091   3.800   1.319  0.1676 -0.6389 -0.0890
11132TIP3    H154887   4.061   3.710   1.331 -0.7581 -0.6212 -1.8860
11132TIP3    H254888   4.011   3.851   1.311  0.6227  0.7359  2.8772
11133TIP3   OH254889   0.199   4.089   1.270 -0.0571 -0.0542 -0.4089
11133TIP3    H154890   0.267   4.033   1.232 -0.3887 -0.4063 -0.4847
11133TIP3    H254891   0.163   4.136   1.196 -0.0037  0.0165 -0.3899
11134TIP3   OH254892   5.560   2.425  11.395 -0.2997  0.4560  0.6757
11134TIP3    H154893   5.626   2.492  11.375 -0.2792  0.6138  1.2679
11134TIP3    H254894   5.596   2.377  11.469  1.4137 -2.6018 -1.8680
11135TIP3   OH254895   0.598   0.724   5.086  0.1244 -0.1368 -0.2842
11135TIP3    H154896   0.567   0.655   5.027  0.2994 -1.3464  0.9966
11135TIP3    H254897   0.608   0.801   5.029  1.8639 -1.6612 -2.2010
11136TIP3   OH254898   5.478   1.903   5.199 -0.0592 -0.1893 -0.4773
11136TIP3    H154899   5.545   1.879   5.264 -0.3533 -1.2882 -0.5558
11136TIP3    H254900   5.526   1.948   5.130  0.3193  0.6464  0.3019
11137TIP3   OH254901   6.060   3.414   4.580  0.2592  0.0422 -0.5467
11137TIP3    H154902   6.072   3.321   4.598 -0.9627 -0.2851 -1.3421
11137TIP3    H254903   6.103   3.428   4.496  0.0904  0.1018 -0.6240
11138TIP3   OH254904   2.964   0.471  15.511 -0.2985  0.1342  0.4481
11138TIP3    H154905   2.984   0.385  15.472 -0.3117 -0.1925  1.1528
11138TIP3    H254906   2.909   0.514  15.445 -0.4726 -0.4842  0.1762
11139TIP3   OH254907   5.478   4.085   1.188 -0.2255 -0.5747 -0.3075
11139TIP3    H154908   5.395   4.047   1.215 -1.1601  1.1589 -0.5855
11139TIP3    H254909   5.457   4.134   1.108  0.9483  0.3138 -0.1020
11140TIP3   OH254910   0.631   5.141  16.281  0.3237  0.1637 -0.5651
11140TIP3    H154911   0.569   5.069  16.277  0.9389 -0.3167 -1.7491
11140TIP3    H254912   0.672   5.143  16.195 -1.1193  3.2212 -1.3249
11141TIP3   OH254913   5.155   6.303   0.509 -0.2855 -0.0050  0.2434
11141TIP3    H154914   5.128   6.276   0.421 -1.9441  2.1194  0.0274
11141TIP3    H254915   5.075   6.295   0.561 -0.0113  1.3573  0.8915
11142TIP3   OH254916   0.787   3.795  16.242  0.1624  0.0101 -0.2533
11142TIP3    H154917   0.785   3.886  16.211 -0.6807  1.4657  3.4361
11142TIP3    H254918   0.864   3.792  16.300 -1.1891 -0.7987  1.5992
11143TIP3   OH254919   2.708   2.362  10.565 -0.0455 -0.0430 -0.1603
11143TIP3    H154920   2.745   2.446  10.590 -0.5397  0.1662 -0.1134
11143TIP3    H254921   2.671   2.376  10.478  0.6847 -0.4668 -0.5531
11144TIP3   OH254922   5.781   3.806   3.004 -0.4428  0.1064 -0.1602
11144TIP3    H154923   5.750   3.862   2.933 -2.3207  0.2040  0.6875
11144TIP3    H254924   5.730   3.726   2.996  0.9466 -0.8096 -0.2708
11145TIP3   OH254925   5.049   5.265   3.004  0.2378  0.0646  0.5028
11145TIP3    H154926   5.037   5.297   3.094 -1.8522  0.6431  0.0801
11145TIP3    H254927   5.037   5.343   2.950  2.0809 -0.1578 -0.2982
11146TIP3   OH254928   1.598   1.862  14.264 -0.0383  0.3159 -0.7098
11146TIP3    H154929   1.683   1.885  14.302 -0.8564  0.9061  0.8646
11146TIP3    H254930   1.609   1.877  14.171  2.3437 -2.0126 -0.9302
11147TIP3   OH254931   5.058   4.176   5.637 -0.5702  0.1766  0.0116
11147TIP3    H154932   4.985   4.115   5.629 -0.8372  0.1911  1.8019
11147TIP3    H254933   5.018   4.259   5.662  0.0104  0.2235  0.8563
11148TIP3   OH254934   2.320   3.390   4.939  0.1924 -0.0357 -0.4462
11148TIP3    H154935   2.348   3.365   5.027  0.1035  0.1199 -0.3722
11148TIP3    H254936   2.384   3.350   4.881  0.0121 -0.4921 -0.3370
11149TIP3   OH254937   6.496   2.678   1.142  0.8769 -0.1207 -0.2674
11149TIP3    H154938   6.417   2.630   1.115  0.2176  1.4891 -1.3605
11149TIP3    H254939   6.555   2.670   1.067  0.3545  1.5662 -0.9095
11150TIP3   OH254940   3.674   5.867   5.993 -0.1369 -0.6239 -0.4673
11150TIP3    H154941   3.711   5.823   5.916  0.0007 -0.3618 -0.5535
11150TIP3    H254942   3.735   5.939   6.011  0.2277 -1.1223  0.3349
11151TIP3   OH254943   6.505   1.050  14.286 -0.0247  0.4689 -0.4751
11151TIP3    H154944   6.590   1.011  14.268 -0.5336 -1.3968  0.7668
11151TIP3    H254945   6.464   1.061  14.201  0.0742 -2.0723 -0.9433
11152TIP3   OH254946   5.394   6.524  15.064  0.5387  0.9013  0.4300
11152TIP3    H154947   5.459   6.497  15.129  0.1718  0.4744  0.6257
11152TIP3    H254948   5.444   6.531  14.982  0.2430 -3.0358 -0.2874
11153TIP3   OH254949   1.687   5.648   4.330 -0.4038 -0.7649 -0.2374
11153TIP3    H154950   1.745   5.628   4.403  1.8592  0.6077 -1.5254
11153TIP3    H254951   1.643   5.729   4.356  2.5774  1.4369 -1.3348
11154TIP3   OH254952   1.207   1.542  10.355 -0.2414  0.6642  0.6638
11154TIP3    H154953   1.279   1.548  10.292 -0.0636 -0.3503  0.7522
11154TIP3    H254954   1.250   1.546  10.441 -0.5243  2.5257  0.7543
11155TIP3   OH254955   4.966   5.027  11.838 -0.4228  0.1756  0.2628
11155TIP3    H154956   5.007   4.966  11.900 -2.5067 -2.8551 -1.0811
11155TIP3    H254957   5.010   5.010  11.755 -1.2423  0.2306 -0.1965
11156TIP3   OH254958   0.102   1.552  16.312 -0.5599  0.2956 -0.3677
11156TIP3    H154959   0.155   1.484  16.353  1.8994  0.9773 -2.1975
11156TIP3    H254960   0.109   1.534  16.218 -0.0990  2.8505 -0.8866
11157TIP3   OH254961   1.510   1.879  11.272 -0.2348  0.2678 -0.1255
11157TIP3    H154962   1.548   1.793  11.253 -0.2611 -0.0244  1.0630
11157TIP3    H254963   1.535   1.896  11.363 -0.5464  1.3517 -0.2360
11158TIP3   OH254964   1.469   1.961   2.363 -0.0933 -0.1481  0.1236
11158TIP3    H154965   1.413   1.910   2.421  0.3095  0.1263  0.7688
11158TIP3    H254966   1.409   2.003   2.302 -0.4293 -1.3338 -0.3780
11159TIP3   OH254967   0.695   3.990  15.432 -0.6845 -0.4475 -0.0358
11159TIP3    H154968   0.698   4.084  15.451  1.0821 -0.6028  0.6055
11159TIP3    H254969   0.603   3.965  15.446 -1.5597  1.4733 -1.8145
11160TIP3   OH254970   3.176   2.993   1.437 -0.6213 -0.6701 -0.0843
11160TIP3    H154971   3.255   3.010   1.489 -1.8038 -0.6883  1.8042
11160TIP3    H254972   3.104   3.002   1.499 -2.1717 -0.1981 -1.8525
11161TIP3   OH254973   1.010   5.856   1.455 -0.2238 -0.8644  0.0046
11161TIP3    H154974   0.935   5.915   1.465  1.1678  0.8701  0.7610
11161TIP3    H254975   1.018   5.843   1.361 -0.4361  0.3393 -0.1897
11162TIP3   OH254976   1.119   4.945   2.162 -0.0736 -0.5509 -0.9177
11162TIP3    H154977   1.204   4.954   2.206  1.0029  0.5067 -3.0727
11162TIP3    H254978   1.075   5.029   2.176  0.5205  0.0103 -2.2799
11163TIP3   OH254979   2.900   3.985   5.185  0.2826  0.1629 -0.2749
11163TIP3    H154980   2.816   3.951   5.155  0.9002 -1.5965 -0.1601
11163TIP3    H254981   2.900   3.969   5.279  0.5101  0.6883 -0.1831
11164TIP3   OH254982   4.160   5.693  12.067 -0.7610  0.2753 -0.3220
11164TIP3    H154983   4.242   5.731  12.035  0.0089 -0.9244  0.1792
11164TIP3    H254984   4.099   5.703  11.994  0.3427 -0.4375 -1.3774
11165TIP3   OH254985   2.055   1.878  12.720 -0.3684 -0.7560  0.1882
11165TIP3    H154986   1.980   1.937  12.720  0.0448 -0.2227  0.3242
11165TIP3    H254987   2.127   1.931  12.686  0.1881 -0.9489  1.0391
11166TIP3   OH254988   2.004   1.838  16.730  0.4307 -0.2106 -0.2869
11166TIP3    H154989   2.057   1.847  16.809 -0.8945 -1.1359  0.7593
11166TIP3    H254990   2.045   1.897  16.666  1.0750  1.1605  1.3238
11167TIP3   OH254991   5.519   5.748  16.842 -0.7169  0.2728  0.1247
11167TIP3    H154992   5.522   5.843  16.835 -1.9926  0.2434 -1.5787
11167TIP3    H254993   5.570   5.727  16.920 -0.3261  2.3351  0.4624
11168TIP3   OH254994   4.683   4.997  13.090  0.0534 -0.3234  0.5878
11168TIP3    H154995   4.610   4.935  13.080  1.3301 -2.3212  2.6298
11168TIP3    H254996   4.752   4.961  13.034  0.3233  0.0658  0.6695
11169TIP3   OH254997   1.215   2.790  15.559 -0.2327  0.0253  0.3412
11169TIP3    H154998   1.219   2.746  15.644  1.0331  2.1340  1.4525
11169TIP3    H254999   1.293   2.759  15.512  0.3057  0.5729  0.8619
11170TIP3   OH255000   1.574   1.726  15.547  0.1194 -0.1512 -0.5838
11170TIP3    H155001   1.527   1.645  15.568  0.5642 -0.7170 -1.6635
11170TIP3    H255002   1.604   1.713  15.457  1.1527  0.7734 -0.3907
11171TIP3   OH255003   1.779   0.960  11.221  0.0505 -0.3816 -0.1365
11171TIP3    H155004   1.737   1.033  11.267 -1.3462 -0.3724 -1.3625
11171TIP3    H255005   1.753   0.882  11.269  0.1516 -0.2198  0.1842
11172TIP3   OH255006   3.039   5.925  13.578 -0.1645 -0.2008 -0.5312
11172TIP3    H155007   3.027   5.830  13.589 -0.3543  0.0056  1.5070
11172TIP3    H255008   3.123   5.943  13.620 -0.3252  0.5859 -0.5308
11173TIP3   OH255009   0.968   5.868   0.300  0.2618  0.1050 -0.3813
11173TIP3    H155010   0.929   5.812   0.367 -0.1238 -0.2557 -0.8919
11173TIP3    H255011   0.903   5.869   0.229 -0.0169  1.6925 -0.1366
11174TIP3   OH255012   2.195   3.420  11.029 -0.7490  0.0018 -0.3969
11174TIP3    H155013   2.113   3.418  10.979 -1.1334 -0.6071  0.2469
11174TIP3    H255014   2.188   3.347  11.091 -1.3761  2.1534  2.2603
11175TIP3   OH255015   0.202   4.828  11.638 -0.4254 -0.3337 -0.0033
11175TIP3    H155016   0.118   4.870  11.657 -0.8978 -1.3527  0.1896
11175TIP3    H255017   0.187   4.735  11.654  0.6322 -0.5764 -0.3493
11176TIP3   OH255018   2.754   1.170  11.457  0.7125  0.6389  0.0050
11176TIP3    H155019   2.683   1.233  11.450 -0.9405 -1.2035 -0.6037
11176TIP3    H255020   2.729   1.114  11.530  1.1256 -0.5227 -0.7218
11177TIP3   OH255021   4.383   4.802  13.228 -0.6754 -0.2653 -0.6681
11177TIP3    H155022   4.394   4.895  13.249 -2.0692 -0.1218 -0.5232
11177TIP3    H255023   4.405   4.797  13.135  1.3482 -0.1632 -0.2428
11178TIP3   OH255024   5.317   6.213  14.172  0.4035 -0.2469 -0.0405
11178TIP3    H155025   5.292   6.140  14.228 -0.0829 -1.2474 -1.4795
11178TIP3    H255026   5.299   6.182  14.083 -3.0004  2.8063 -0.6460
11179TIP3   OH255027   5.661   0.070   1.258  0.5831 -0.4233 -0.5022
11179TIP3    H155028   5.654   0.119   1.176 -1.2404 -3.9178 -2.6687
11179TIP3    H255029   5.746   0.026   1.253  0.8800  0.0659  0.0040
11180TIP3   OH255030   6.521   0.596  14.380  0.7684 -0.0387 -0.2475
11180TIP3    H155031   6.600   0.564  14.423  0.0980 -0.6823  0.5495
11180TIP3    H255032   6.456   0.528  14.395 -0.0237  0.6054 -0.6354
11181TIP3   OH255033   3.108   0.766  16.468 -0.5608 -0.5118 -0.0124
11181TIP3    H155034   3.151   0.812  16.540 -0.2172  0.2126 -0.6604
11181TIP3    H255035   3.035   0.719  16.509  0.3287 -1.0715  0.9780
11182TIP3   OH255036   5.715   6.003  10.988 -0.4180 -0.2420  0.1677
11182TIP3    H155037   5.680   6.023  11.075  0.0261 -0.2080  0.3378
11182TIP3    H255038   5.810   6.006  10.999 -0.3441  1.0588 -0.6047
11183TIP3   OH255039   4.351   0.303  15.532  0.7652 -0.3798  0.3510
11183TIP3    H155040   4.278   0.274  15.477  0.3176  0.0825  0.6855
11183TIP3    H255041   4.344   0.399  15.531 -0.5634 -0.3550  2.8932
11184TIP3   OH255042   0.685   2.509   6.162  0.7144  0.4853 -0.0544
11184TIP3    H155043   0.772   2.478   6.186 -0.0946 -2.2545 -0.3295
11184TIP3    H255044   0.638   2.513   6.246  0.9211  1.4752  0.0309
11185TIP3   OH255045   4.274   0.587   1.706 -0.4760 -0.0145  0.2708
11185TIP3    H155046   4.255   0.590   1.800 -0.0781  2.4454  0.3542
11185TIP3    H255047   4.188   0.594   1.665 -0.5007  1.9909  0.5478
11186TIP3   OH255048   6.465   2.026  11.593  0.5029  0.5473 -0.0095
11186TIP3    H155049   6.557   2.018  11.567  1.1986  2.4616  1.5978
11186TIP3    H255050   6.465   2.094  11.660 -2.0697  0.3664  0.2730
11187TIP3   OH255051   1.029   3.957   1.970  0.2395  0.0953 -0.0039
11187TIP3    H155052   0.949   3.934   2.018  0.6745 -0.9894  0.2350
11187TIP3    H255053   1.086   3.994   2.037 -0.4863  2.0750 -0.4011
11188TIP3   OH255054   5.359   4.825   1.819 -0.0625 -0.1538 -0.4122
11188TIP3    H155055   5.427   4.786   1.766 -0.4341 -0.3004 -0.7827
11188TIP3    H255056   5.405   4.891   1.872  0.0615  1.2133 -2.1261
11189TIP3   OH255057   5.126   6.687   5.601  0.0103  0.4162  1.2264
11189TIP3    H155058   5.175   6.631   5.541 -2.2293 -1.5100  1.0358
11189TIP3    H255059   5.176   6.768   5.605  0.4066  0.6307 -3.1674
11190TIP3   OH255060   2.142   5.102  11.274 -0.1914  0.4807  0.1627
11190TIP3    H155061   2.176   5.082  11.187 -1.9067 -0.7487 -0.2677
11190TIP3    H255062   2.218   5.093  11.332  0.5946 -0.5088 -0.9688
11191TIP3   OH255063   0.203   5.796  13.199  0.2162 -0.4115 -0.1083
11191TIP3    H155064   0.237   5.884  13.216 -0.6061  0.0806 -0.9381
11191TIP3    H255065   0.109   5.802  13.217 -0.1252 -0.6975 -1.6599
11192TIP3   OH255066   4.851   4.405  14.024 -0.0268  0.0833  0.0824
11192TIP3    H155067   4.827   4.405  14.116 -1.4269 -1.3851 -0.2307
11192TIP3    H255068   4.945   4.388  14.024  0.5291  2.7126  1.2636
11193TIP3   OH255069   1.528   3.443  12.914 -0.2622 -0.3754 -0.2742
11193TIP3    H155070   1.586   3.459  12.988  1.6616 -1.1921 -1.5144
11193TIP3    H255071   1.531   3.348  12.901  1.4165 -0.1020 -2.7852
11194TIP3   OH255072   4.823   4.783   2.200  0.3516  0.1217  0.3085
11194TIP3    H155073   4.734   4.782   2.234 -0.4046 -0.8209 -1.5728
11194TIP3    H255074   4.858   4.697   2.222  0.4618  0.1420  0.2148
11195TIP3   OH255075   2.674   1.264   4.734 -0.2472  0.7522  0.2992
11195TIP3    H155076   2.603   1.219   4.781 -0.3205  0.4327 -0.1141
11195TIP3    H255077   2.629   1.321   4.672 -0.1633  1.6834  1.0602
11196TIP3   OH255078   6.121   3.075   4.935  0.9324 -0.1946  0.3004
11196TIP3    H155079   6.046   3.134   4.933  0.6458 -0.4780  1.6298
11196TIP3    H255080   6.083   2.988   4.925  1.3568 -0.1817 -1.7006
11197TIP3   OH255081   4.851   4.177  10.999  0.1616 -0.1199  0.0226
11197TIP3    H155082   4.852   4.260  11.047 -1.2217 -1.7308  3.1734
11197TIP3    H255083   4.789   4.192  10.928 -0.5092  1.4175  0.8665
11198TIP3   OH255084   3.680   0.826   5.610 -0.6381  0.1891 -0.0945
11198TIP3    H155085   3.596   0.782   5.597 -0.0909 -0.0680 -3.4433
11198TIP3    H255086   3.716   0.785   5.689 -2.9578 -0.7335  0.5774
11199TIP3   OH255087   5.684   4.471   2.609 -0.2950  0.1665  0.4191
11199TIP3    H155088   5.699   4.382   2.580  0.4210  0.0296  1.1635
11199TIP3    H255089   5.592   4.473   2.634  0.0811 -0.8720  2.0400
11200TIP3   OH255090   0.338   4.099  12.748 -0.3249 -0.4434 -0.0171
11200TIP3    H155091   0.356   4.087  12.841 -2.0017  0.8306  0.5147
11200TIP3    H255092   0.340   4.011  12.711 -0.4155 -1.0455  1.3681
11201TIP3   OH255093   3.630   6.557  15.719 -0.2274  0.3841 -0.1683
11201TIP3    H155094   3.614   6.647  15.690  2.5876  0.6434 -1.1842
11201TIP3    H255095   3.635   6.562  15.814  0.9661  1.5352 -0.2729
11202TIP3   OH255096   0.677   1.295   3.356 -0.3283 -0.0279 -0.3537
11202TIP3    H155097   0.628   1.342   3.289 -1.0468 -0.3047 -0.0265
11202TIP3    H255098   0.749   1.354   3.379 -0.6867  0.5140 -0.6100
11203TIP3   OH255099   6.702   3.568   3.283  0.0650  0.6550  0.0248
11203TIP3    H155100   6.640   3.508   3.241  0.6247  1.1474 -1.5712
11203TIP3    H255101   6.656   3.596   3.362 -1.1232 -0.1689 -0.3284
11204TIP3   OH255102   0.581   2.164   4.465 -0.0327  0.4580  0.0312
11204TIP3    H155103   0.533   2.239   4.498 -0.6434 -0.0817  0.3739
11204TIP3    H255104   0.514   2.099   4.445  0.4708  0.0971 -0.5071
11205TIP3   OH255105   3.473   3.670  13.750 -0.5031  0.6131 -0.9114
11205TIP3    H155106   3.534   3.600  13.726  0.7605  0.4063  2.4147
11205TIP3    H255107   3.393   3.624  13.777  0.1252  0.3961  0.7114
11206TIP3   OH255108   1.206   1.767   0.398 -0.4748  0.1636  0.3334
11206TIP3    H155109   1.300   1.782   0.403 -0.4073 -0.1737  0.1138
11206TIP3    H255110   1.180   1.798   0.311 -0.5931  0.3997  0.4523
11207TIP3   OH255111   1.057   3.607   2.074  0.1206 -0.0281  0.0985
11207TIP3    H155112   1.012   3.687   2.046  0.4129 -0.4041 -1.5449
11207TIP3    H255113   1.009   3.579   2.152  0.2186  1.9094  0.9238
11208TIP3   OH255114   5.718   0.072  12.288 -0.4365 -0.1169 -0.2411
11208TIP3    H155115   5.714  -0.006  12.344  2.8362  0.2636  0.7156
11208TIP3    H255116   5.703   0.040  12.200 -1.5701 -1.3973  0.3800
11209TIP3   OH255117   2.798   4.350  16.355 -0.4615 -0.3177 -0.2767
11209TIP3    H155118   2.729   4.357  16.421  1.2732 -1.1134  1.7362
11209TIP3    H255119   2.879   4.343  16.406  1.1828  1.0560 -2.5305
11210TIP3   OH255120   0.078   4.194   4.266 -0.0123  0.9064 -0.0506
11210TIP3    H155121   0.049   4.280   4.296  0.3877  0.9104  0.3429
11210TIP3    H255122   0.055   4.134   4.338 -0.4758  0.6464 -0.4082
11211TIP3   OH255123   1.104   6.000  11.971  0.0596  0.5227 -0.4778
11211TIP3    H155124   1.108   5.919  12.022  0.0595  0.8842  0.0969
11211TIP3    H255125   1.151   6.065  12.023  1.0832  0.6129 -1.4816
11212TIP3   OH255126   0.136   4.236   1.655  0.0544 -0.0549  0.4002
11212TIP3    H155127   0.227   4.231   1.685 -0.0872  1.5966  1.2035
11212TIP3    H255128   0.108   4.324   1.679 -1.6664 -0.4308 -0.1373
11213TIP3   OH255129   5.983   3.175  16.122  0.2797  0.0858  0.4020
11213TIP3    H155130   5.983   3.100  16.182 -0.5782 -0.2547 -0.0065
11213TIP3    H255131   5.891   3.190  16.103  0.5258  0.3949 -0.5805
11214TIP3   OH255132   1.829   4.358  16.314 -0.3741 -0.0842 -0.1481
11214TIP3    H155133   1.884   4.347  16.237 -1.8382 -2.7899 -0.9286
11214TIP3    H255134   1.752   4.405  16.281 -0.3549  0.0479 -0.0041
11215TIP3   OH255135   3.131   3.096   0.130  0.1572 -0.2832 -0.1091
11215TIP3    H155136   3.061   3.115   0.067  0.9729 -2.5800 -1.7959
11215TIP3    H255137   3.100   3.019   0.178  0.3079  0.4199  1.1697
11216TIP3   OH255138   6.234   0.127  17.018 -0.2389 -0.3198  0.3202
11216TIP3    H155139   6.161   0.078  16.981 -0.9188  1.1548 -0.3563
11216TIP3    H255140   6.312   0.083  16.983 -0.8079 -1.1388  0.0479
11217TIP3   OH255141   3.030   4.166  16.435 -0.1334 -0.3220 -0.4053
11217TIP3    H155142   3.103   4.196  16.381  0.7919  1.4522  1.6964
11217TIP3    H255143   3.071   4.121  16.509 -1.2002 -0.1762  0.3066
11218TIP3   OH255144   0.338   4.822   1.122 -0.3817 -0.6202 -0.4502
11218TIP3    H155145   0.251   4.789   1.145 -0.6848 -0.4476 -1.3035
11218TIP3    H255146   0.351   4.794   1.031  2.3476 -4.6789  0.8960
11219TIP3   OH255147   3.479   0.911   4.893  0.1362  0.3398  0.1083
11219TIP3    H155148   3.550   0.962   4.855 -0.3917  1.5437  0.6725
11219TIP3    H255149   3.417   0.899   4.822 -0.0189  1.0450  0.1103
11220TIP3   OH255150   5.807   2.247   4.806 -0.2723  0.2824 -0.7709
11220TIP3    H155151   5.776   2.246   4.716 -1.3905 -1.1715 -0.4184
11220TIP3    H255152   5.829   2.155   4.825 -1.2408  0.3387  0.8039
11221TIP3   OH255153   4.001   2.456   0.541 -0.2222  0.3505  0.2928
11221TIP3    H155154   3.982   2.401   0.618  0.7362 -1.0308 -0.4084
11221TIP3    H255155   4.052   2.399   0.484 -1.6787  1.0464 -1.7861
11222TIP3   OH255156   6.614   2.685   1.514 -1.0482 -0.1189 -0.0070
11222TIP3    H155157   6.629   2.766   1.467 -1.0880 -0.3256 -0.3785
11222TIP3    H255158   6.520   2.686   1.535 -1.1631 -0.3188 -0.4897
11223TIP3   OH255159   4.654   1.047   6.546  0.6273  0.4127  0.8124
11223TIP3    H155160   4.617   0.973   6.594  2.0783 -0.1048  1.1857
11223TIP3    H255161   4.694   1.101   6.614 -0.8342  1.8384  0.6011
11224TIP3   OH255162   6.284   5.360  15.681  0.4136  0.1868 -0.7841
11224TIP3    H155163   6.346   5.423  15.644  1.6218 -0.5286 -0.0214
11224TIP3    H255164   6.220   5.415  15.727  1.7780  0.8737  0.3779
11225TIP3   OH255165   6.559   2.953  16.055  0.4432 -0.7275 -0.7313
11225TIP3    H155166   6.627   2.886  16.064  0.6366 -0.4011  0.3220
11225TIP3    H255167   6.535   2.976  16.145 -0.5832 -0.3495 -1.0839
11226TIP3   OH255168   6.109   4.456  11.792  0.4971 -0.1986 -1.0288
11226TIP3    H155169   6.186   4.413  11.756  1.6161  1.9533 -1.3893
11226TIP3    H255170   6.142   4.540  11.824 -1.4482  0.1561  0.1926
11227TIP3   OH255171   3.793   0.738  12.912  0.0208  0.0881  0.2964
11227TIP3    H155172   3.868   0.688  12.943  0.1669 -0.2925 -0.6353
11227TIP3    H255173   3.796   0.730  12.817 -0.0615  1.7127  0.1319
11228TIP3   OH255174   4.764   4.890  11.688 -0.0480 -0.0713 -0.1661
11228TIP3    H155175   4.736   4.938  11.611  1.0674 -1.3451 -1.4091
11228TIP3    H255176   4.805   4.957  11.744 -0.3804  0.7639 -0.8925
11229TIP3   OH255177   4.308   4.441   3.044 -0.4646  0.3408  0.0164
11229TIP3    H155178   4.225   4.397   3.027 -1.0598  0.6062  2.0268
11229TIP3    H255179   4.294   4.490   3.125  1.2620  1.4417 -0.2851
11230TIP3   OH255180   0.544   3.070  12.068 -0.7550  0.0070  0.7683
11230TIP3    H155181   0.559   3.164  12.055 -0.3325 -0.3146 -1.6741
11230TIP3    H255182   0.529   3.036  11.979  0.1051 -2.4062  1.4639
11231TIP3   OH255183   6.730   3.094   2.662 -0.2654  0.1246 -0.0499
11231TIP3    H155184   6.710   3.136   2.578 -0.2133 -0.0853 -0.1662
11231TIP3    H255185   6.824   3.078   2.659 -0.4446 -0.8965 -0.4096
11232TIP3   OH255186   4.149   0.670   3.015 -0.0201  0.3952 -0.2860
11232TIP3    H155187   4.202   0.661   2.936 -0.4830 -0.1703 -0.5459
11232TIP3    H255188   4.211   0.695   3.084  0.5762 -0.2266 -0.5895
11233TIP3   OH255189   0.149   0.475  11.723 -0.5148  0.3965  0.5312
11233TIP3    H155190   0.225   0.470  11.664 -2.6118 -0.8981 -2.2892
11233TIP3    H255191   0.114   0.563  11.710 -1.2890 -0.0662 -0.6673
11234TIP3   OH255192   6.663   4.587  16.718 -0.8372 -0.0264 -0.1835
11234TIP3    H155193   6.652   4.668  16.669 -0.4139 -0.5159 -1.1055
11234TIP3    H255194   6.576   4.567  16.751 -0.8498  1.0669  0.4855
11235TIP3   OH255195   3.938   4.595  14.055  0.0436 -0.5368 -0.0575
11235TIP3    H155196   3.894   4.542  14.121  1.2414 -1.9665 -0.3678
11235TIP3    H255197   4.029   4.565  14.056  0.1153 -0.5335 -2.2688
11236TIP3   OH255198   4.530   3.093  12.314  0.3050  0.0530 -0.7651
11236TIP3    H155199   4.498   3.009  12.345  1.1842  0.0816  0.2385
11236TIP3    H255200   4.497   3.157  12.378  1.2146  0.2425 -0.4745
11237TIP3   OH255201   5.685   0.954   1.460 -0.6712 -0.0693 -0.0455
11237TIP3    H155202   5.642   0.876   1.497 -0.6904 -0.6744 -1.2963
11237TIP3    H255203   5.613   1.007   1.426 -0.5769 -0.0945 -0.2878
11238TIP3   OH255204   2.779   1.001  12.162  0.5315  0.7990 -0.1213
11238TIP3    H155205   2.871   1.023  12.147  0.6911  0.2860  0.0891
11238TIP3    H255206   2.740   1.004  12.075  0.8849  0.3984 -0.2954
11239TIP3   OH255207   4.439   1.986  12.733 -0.1020 -0.6040  0.8490
11239TIP3    H155208   4.368   1.937  12.691 -0.5198 -0.3608  1.2564
11239TIP3    H255209   4.517   1.966  12.681 -0.5841 -0.4047  0.0416
11240TIP3   OH255210   5.194   0.201  12.412  0.0898 -0.3834 -0.2656
11240TIP3    H155211   5.181   0.235  12.323  0.0382 -1.3110 -0.6194
11240TIP3    H255212   5.203   0.107  12.401 -0.8027 -0.6182  0.8067
11241TIP3   OH255213   2.838   4.127  15.905  0.1622 -0.1454  0.1130
11241TIP3    H155214   2.837   4.210  15.857  0.0903  0.4336  1.1072
11241TIP3    H255215   2.776   4.139  15.977 -1.6342 -1.8596 -1.0182
11242TIP3   OH255216   3.713   5.512   6.122 -0.3271 -0.4804 -0.3464
11242TIP3    H155217   3.685   5.545   6.037 -0.8679  0.6580  0.2447
11242TIP3    H255218   3.648   5.547   6.183  1.0915  0.2948  0.7796
11243TIP3   OH255219   5.358   3.635   3.786 -0.0452  0.0755 -0.3021
11243TIP3    H155220   5.355   3.598   3.874 -0.7377  1.5102  0.2990
11243TIP3    H255221   5.445   3.673   3.778 -0.2909  0.7273  0.0977
11244TIP3   OH255222   4.290   3.868   1.892  0.4684  0.2426 -0.3604
11244TIP3    H155223   4.326   3.931   1.831 -0.7818  0.1956 -1.1889
11244TIP3    H255224   4.277   3.917   1.973 -1.6648  1.4674 -1.3451
11245TIP3   OH255225   5.081   1.776  13.365  0.2064  0.7408  0.3959
11245TIP3    H155226   5.150   1.725  13.322 -0.7847  0.0155 -0.3765
11245TIP3    H255227   5.051   1.720  13.437  0.2106  0.9362  0.5525
11246TIP3   OH255228   3.856   2.398  11.930 -0.2201 -0.3921 -0.3988
11246TIP3    H155229   3.915   2.397  12.005 -2.1119 -2.4530  1.2233
11246TIP3    H255230   3.863   2.486  11.894  3.1535 -0.3085  0.1719
11247TIP3   OH255231   1.372   2.090   3.581 -0.0107 -0.2946  0.3747
11247TIP3    H155232   1.430   2.112   3.653 -0.7179  1.0572  0.5615
11247TIP3    H255233   1.284   2.092   3.619 -0.5412  1.9576 -0.8134
11248TIP3   OH255234   4.621   0.068   0.651  0.7621 -0.5781 -0.5551
11248TIP3    H155235   4.573  -0.004   0.694 -2.1956  1.4786 -0.1157
11248TIP3    H255236   4.616   0.048   0.558  1.4368 -1.7545 -0.3558
11249TIP3   OH255237   5.179   5.806  13.386  0.4871 -0.3293  0.6129
11249TIP3    H155238   5.264   5.850  13.382  0.9510 -1.2110  0.6688
11249TIP3    H255239   5.116   5.877  13.402  1.0532  0.5017 -0.7052
11250TIP3   OH255240   0.139   1.228  14.129  0.4007  0.1092  0.4204
11250TIP3    H155241   0.125   1.135  14.114 -0.0279  0.0041  1.3950
11250TIP3    H255242   0.125   1.240  14.223 -1.1701  1.4185  0.0675
11251TIP3   OH255243   3.160   1.943   1.841 -0.2525 -0.1401  0.0777
11251TIP3    H155244   3.212   1.997   1.900 -2.9738  1.4342  1.2723
11251TIP3    H255245   3.084   1.998   1.820 -0.8449 -1.7922 -2.5505
11252TIP3   OH255246   2.409   2.190   3.543  0.3236 -0.6458 -0.2067
11252TIP3    H155247   2.492   2.239   3.546 -0.4982  0.8233 -0.7100
11252TIP3    H255248   2.371   2.202   3.630  0.4327 -0.9772 -0.1102
11253TIP3   OH255249   0.204   3.789   4.037  0.0603  0.0361  0.5988
11253TIP3    H155250   0.144   3.783   3.963  0.0063  0.1208  0.6360
11253TIP3    H255251   0.230   3.881   4.040  0.4308 -0.0606  0.3920
11254TIP3   OH255252   1.437   1.649   3.979  0.0141  0.4995 -0.6704
11254TIP3    H155253   1.470   1.561   3.997 -0.4317  0.0742 -1.8661
11254TIP3    H255254   1.473   1.671   3.893 -2.2645  0.2684 -1.7463
11255TIP3   OH255255   2.697   3.023   1.732 -0.2155 -0.1658  0.3731
11255TIP3    H155256   2.620   3.030   1.675  1.6503  1.4424 -2.1978
11255TIP3    H255257   2.698   3.105   1.782 -0.7827 -0.6999  1.2699
11256TIP3   OH255258   5.762   2.058   4.482  0.2451  0.8235  0.3814
11256TIP3    H155259   5.784   2.146   4.513  0.4072  0.6168  0.8588
11256TIP3    H255260   5.705   2.073   4.406  2.7551  1.4221 -1.5545
11257TIP3   OH255261   4.266   6.136  12.992  0.4956 -0.4810  0.1061
11257TIP3    H155262   4.249   6.116  13.083  0.1554 -0.8448 -0.0359
11257TIP3    H255263   4.360   6.124  12.981  0.3157 -1.9980  0.0307
11258TIP3   OH255264   0.140   5.281  11.102  0.4035  0.2831 -0.0047
11258TIP3    H155265   0.100   5.200  11.069  0.1657  0.9808 -1.5467
11258TIP3    H255266   0.213   5.298  11.042  2.4579 -0.4157  2.1635
11259TIP3   OH255267   6.282   0.074  10.836 -0.2597  0.6224  0.0339
11259TIP3    H155268   6.260   0.063  10.743 -1.0526 -1.1666  0.3954
11259TIP3    H255269   6.341   0.002  10.856 -0.8869  0.4011  1.1580
11260TIP3   OH255270   3.112   2.434   5.252  0.1745 -0.3988  0.2528
11260TIP3    H155271   3.055   2.511   5.252 -1.5571 -1.6046 -1.4573
11260TIP3    H255272   3.108   2.401   5.342  0.2232  0.9624  0.7780
11261TIP3   OH255273   4.902   2.324   4.055 -0.0555  0.6160  0.4287
11261TIP3    H155274   4.871   2.383   3.987 -0.6662  0.3351  0.4576
11261TIP3    H255275   4.825   2.304   4.107  0.4164  0.8458  1.2236
11262TIP3   OH255276   4.451   2.886   4.457  0.5264 -0.4646 -0.3713
11262TIP3    H155277   4.515   2.845   4.516 -0.1221 -0.8429  0.0782
11262TIP3    H255278   4.375   2.828   4.461 -0.3742  0.7341  0.1887
11263TIP3   OH255279   0.329   6.193   2.810  0.0796 -0.1026 -0.2075
11263TIP3    H155280   0.306   6.285   2.823  1.0843 -0.0682  1.6382
11263TIP3    H255281   0.309   6.151   2.894  2.5443 -0.9232  0.0386
11264TIP3   OH255282   1.590   5.063   6.006  0.4363 -0.3332  0.5329
11264TIP3    H155283   1.516   5.002   5.999  0.5704 -0.5832  1.2094
11264TIP3    H255284   1.578   5.105   6.091  0.0402  1.0111 -0.1547
11265TIP3   OH255285   5.700   1.870   2.632 -0.2918  0.1159  0.0779
11265TIP3    H155286   5.749   1.847   2.711 -0.6784 -0.6146  0.1105
11265TIP3    H255287   5.608   1.869   2.659 -0.4229 -0.0766 -0.3603
11266TIP3   OH255288   3.715   3.173  10.710 -0.0025  0.2502 -0.1331
11266TIP3    H155289   3.707   3.251  10.655 -0.9600 -0.6538 -1.3380
11266TIP3    H255290   3.799   3.134  10.683 -0.3083 -0.0076 -0.7318
11267TIP3   OH255291   1.841   4.657   4.750  0.0313 -0.9533  0.0471
11267TIP3    H155292   1.843   4.578   4.696 -0.5234 -1.2833  0.4853
11267TIP3    H255293   1.814   4.625   4.837  4.4010 -1.0629  1.6304
11268TIP3   OH255294   0.732   4.777  13.939 -0.1195 -0.4363 -0.1817
11268TIP3    H155295   0.716   4.867  13.911  1.3298 -0.2875 -0.6118
11268TIP3    H255296   0.791   4.785  14.014  2.1393 -1.0560 -1.7787
11269TIP3   OH255297   1.386   6.765  16.939  0.1061  0.3110  0.1468
11269TIP3    H155298   1.442   6.829  16.983  0.5364  1.0955 -1.4573
11269TIP3    H255299   1.312   6.816  16.905  0.4447 -0.0056 -1.1407
11270TIP3   OH255300   6.645   3.230   4.930 -0.1834  0.1094  0.5450
11270TIP3    H155301   6.582   3.157   4.928  0.5725 -0.5551 -1.3633
11270TIP3    H255302   6.720   3.198   4.879  1.3666  1.2076  2.0098
11271TIP3   OH255303   3.802   5.344  14.299  0.6727 -0.3747 -0.7158
11271TIP3    H155304   3.713   5.353  14.265  0.0227 -0.1241  0.9097
11271TIP3    H255305   3.793   5.284  14.374  1.3777  1.5553  1.0204
11272TIP3   OH255306   2.175   5.817   1.450 -0.7537  0.1245  0.3031
11272TIP3    H155307   2.170   5.912   1.434  1.1586  0.1280 -0.6325
11272TIP3    H255308   2.126   5.778   1.377 -2.8238  0.3624  1.4842
11273TIP3   OH255309   6.024   4.200   3.998 -0.0577  0.1227  0.0259
11273TIP3    H155310   6.096   4.232   4.052 -1.0987  1.0854  0.8892
11273TIP3    H255311   6.065   4.136   3.940  1.3877  0.2327  0.8616
11274TIP3   OH255312   5.875   5.866   1.314 -0.1368  0.1512  0.1983
11274TIP3    H155313   5.780   5.871   1.305 -0.1760  0.8626  0.9060
11274TIP3    H255314   5.893   5.907   1.399  0.7925 -0.0582  0.1082
11275TIP3   OH255315   0.464   2.146   0.078 -0.0683 -0.4332  0.0928
11275TIP3    H155316   0.379   2.185   0.098 -0.3793 -0.9822 -0.1349
11275TIP3    H255317   0.458   2.056   0.112  0.2324 -0.6383 -0.3924
11276TIP3   OH255318   1.185   4.415  12.030  0.1686  0.1896  0.3068
11276TIP3    H155319   1.119   4.462  11.977 -0.2835  1.0372  1.5742
11276TIP3    H255320   1.155   4.325  12.031  0.2001  0.1392 -0.8822
11277TIP3   OH255321   1.209   6.574  13.094  0.0600 -0.8047  0.4914
11277TIP3    H155322   1.220   6.608  13.005  0.0281  1.8846  1.4400
11277TIP3    H255323   1.120   6.540  13.096  0.4039 -1.8834 -0.7659
11278TIP3   OH255324   4.487   1.676  16.899  0.4732  0.5017 -0.5690
11278TIP3    H155325   4.429   1.657  16.973  0.7487  0.9599 -0.2295
11278TIP3    H255326   4.521   1.764  16.917  1.7110  0.0178 -0.4821
11279TIP3   OH255327   1.073   5.088  14.817  0.1746  0.0201  0.0391
11279TIP3    H155328   1.121   5.034  14.880 -0.6562 -0.9274 -0.1337
11279TIP3    H255329   1.062   5.032  14.741 -1.6447  0.0341  0.2579
11280TIP3   OH255330   0.633   3.178   5.407  0.2069  0.3764  0.3895
11280TIP3    H155331   0.729   3.172   5.402  0.1222 -0.0997 -1.5762
11280TIP3    H255332   0.606   3.089   5.431  0.2677  0.6094  1.3351
11281TIP3   OH255333   3.336   4.254  14.524  0.7150 -0.1703 -0.4437
11281TIP3    H155334   3.272   4.324  14.514 -0.1176 -1.0659 -1.7127
11281TIP3    H255335   3.407   4.278  14.464  1.6445  0.8503  1.0020
11282TIP3   OH255336   3.155   1.606  16.813  0.7278 -0.5813 -0.2685
11282TIP3    H155337   3.194   1.560  16.738 -0.4505  0.6582 -1.7023
11282TIP3    H255338   3.117   1.685  16.775 -1.7078 -0.9069  1.3179
11283TIP3   OH255339   2.520   5.605   0.711 -0.5964  0.1312  0.1003
11283TIP3    H155340   2.448   5.667   0.703 -0.8480 -0.2788 -0.9760
11283TIP3    H255341   2.481   5.526   0.748 -0.7817 -0.2008 -0.7795
11284TIP3   OH255342   2.015   0.185   1.234 -0.2909 -0.9437 -0.1774
11284TIP3    H155343   2.038   0.127   1.161  1.5362 -1.8451  1.0528
11284TIP3    H255344   1.960   0.131   1.291 -0.4361 -0.7553 -0.1414
11285TIP3   OH255345   5.123   2.003   3.555 -0.1195  0.2670 -0.5416
11285TIP3    H155346   5.183   1.942   3.511  1.8204  2.2685 -0.8760
11285TIP3    H255347   5.138   1.988   3.648 -0.0095 -0.0796 -0.6118
11286TIP3   OH255348   5.906   0.411   6.246 -0.1825 -0.2962  0.1788
11286TIP3    H155349   5.832   0.457   6.284 -2.3682 -0.6622 -3.1889
11286TIP3    H255350   5.951   0.478   6.194  0.4991 -0.5821  0.3876
11287TIP3   OH255351   2.606   2.806  11.251 -0.3139  0.4672 -0.5547
11287TIP3    H155352   2.566   2.804  11.164 -0.3406  0.1637 -0.5344
11287TIP3    H255353   2.699   2.819  11.234 -0.5727  2.7836 -0.5691
11288TIP3   OH255354   2.932   0.211  13.018  0.2648 -0.2584  0.0027
11288TIP3    H155355   2.877   0.284  13.049  0.8169  0.3851 -0.4995
11288TIP3    H255356   3.020   0.233  13.049  0.8140  0.3295 -1.8476
11289TIP3   OH255357   1.176   6.477   3.506 -0.7544  0.6373 -0.6548
11289TIP3    H155358   1.261   6.507   3.539 -0.0725 -1.1666 -0.6377
11289TIP3    H255359   1.177   6.383   3.522 -1.6473  0.1558 -3.0972
11290TIP3   OH255360   1.724   6.268   6.433 -0.1596  0.0690  0.0085
11290TIP3    H155361   1.640   6.225   6.417 -2.0841  3.0359  1.3056
11290TIP3    H255362   1.727   6.280   6.528  1.2206  1.0302 -0.1262
11291TIP3   OH255363   4.221   2.611  14.512 -0.7412 -0.1250 -0.1998
11291TIP3    H155364   4.223   2.696  14.557 -1.1654  0.4142 -1.1773
11291TIP3    H255365   4.169   2.626  14.434 -0.2233 -1.1166 -0.7583
11292TIP3   OH255366   4.783   5.289   1.376  0.4906 -0.6021 -0.4775
11292TIP3    H155367   4.792   5.238   1.295 -3.2001  1.4645 -2.4726
11292TIP3    H255368   4.733   5.233   1.434 -1.4854 -0.2422 -1.7536
11293TIP3   OH255369   4.258   2.472   4.613  0.3213  0.2987 -0.0074
11293TIP3    H155370   4.190   2.539   4.613 -0.7725 -0.7662 -0.8270
11293TIP3    H255371   4.299   2.479   4.527  0.7870  0.4844  0.2271
11294TIP3   OH255372   1.313   5.954  12.346 -0.4691 -0.0565  0.2480
11294TIP3    H155373   1.300   6.029  12.288 -1.8559  1.1981  2.0717
11294TIP3    H255374   1.389   5.978  12.400 -0.2750 -0.4285  0.1455
11295TIP3   OH255375   5.966   5.242  12.360 -0.1924  0.2042 -0.6451
11295TIP3    H155376   5.938   5.188  12.435 -0.5127 -1.3338 -1.8239
11295TIP3    H255377   6.052   5.275  12.386 -0.4963  0.1087  0.5885
11296TIP3   OH255378   0.012   3.396   0.658 -0.1028 -0.6452 -0.6391
11296TIP3    H155379   0.033   3.312   0.699  2.2240  0.1130 -0.1082
11296TIP3    H255380   0.074   3.458   0.696 -2.6595  1.6933  0.0860
11297TIP3   OH255381   2.236   1.122  17.139 -0.0087 -0.1610  0.7421
11297TIP3    H155382   2.314   1.116  17.085 -0.9565  1.1657 -0.8472
11297TIP3    H255383   2.175   1.059  17.101 -1.5817  2.4691 -1.4527
11298TIP3   OH255384   5.492   1.575   2.062 -0.7547  0.2593 -0.3370
11298TIP3    H155385   5.562   1.597   2.001 -0.7922  0.6681 -0.2358
11298TIP3    H255386   5.500   1.480   2.075 -0.6083  0.2051 -0.8015
11299TIP3   OH255387   5.146   2.804  11.651  0.6017 -0.2932 -0.0728
11299TIP3    H155388   5.121   2.738  11.586  2.6751 -0.4631 -0.7593
11299TIP3    H255389   5.138   2.888  11.605  0.4640 -0.2736 -0.0148
11300TIP3   OH255390   1.295   3.923   0.602 -0.1043 -0.5285 -0.8895
11300TIP3    H155391   1.217   3.966   0.639  0.4536 -0.5918  0.4211
11300TIP3    H255392   1.341   3.887   0.678  2.2445  1.2090 -1.3617
11301TIP3   OH255393   0.452   3.474  17.095 -0.1232 -0.0594 -0.1374
11301TIP3    H155394   0.489   3.449  17.179 -0.4170  2.0715  0.7004
11301TIP3    H255395   0.465   3.398  17.039 -0.2910 -1.7028  1.9272
11302TIP3   OH255396   0.087   2.630   1.108 -0.2444 -0.2969  0.0668
11302TIP3    H155397   0.095   2.671   1.194  2.2555 -0.2991 -0.1022
11302TIP3    H255398   0.104   2.537   1.124 -1.5278 -0.6059 -0.2103
11303TIP3   OH255399   2.896   2.120   0.231 -0.7919 -0.0434 -0.1317
11303TIP3    H155400   2.832   2.073   0.177 -1.6576 -1.5995  2.0942
11303TIP3    H255401   2.957   2.052   0.259 -0.2307  0.7767  0.6656
11304TIP3   OH255402   0.164   0.478   6.054 -0.6140 -0.1842  0.9508
11304TIP3    H155403   0.242   0.508   6.101 -0.7089 -1.2390  1.8261
11304TIP3    H255404   0.104   0.451   6.123 -1.8969  0.8949  0.3034
11305TIP3   OH255405   3.294   4.977  11.484  0.2238  0.0686 -0.1946
11305TIP3    H155406   3.222   5.032  11.456  0.7358  0.5797 -0.5219
11305TIP3    H255407   3.257   4.888  11.487 -0.8591  0.5292  1.2624
11306TIP3   OH255408   3.500   2.673  15.855  0.0680  0.1519 -0.8432
11306TIP3    H155409   3.506   2.698  15.763  0.4136  2.4947 -0.2529
11306TIP3    H255410   3.433   2.732  15.891 -1.1331 -1.7117  0.1453
11307TIP3   OH255411   6.587   4.903  12.850  0.1686 -0.2363  0.0300
11307TIP3    H155412   6.682   4.911  12.851  0.2139 -0.6006  2.2088
11307TIP3    H255413   6.571   4.810  12.863 -0.5306 -0.4713 -2.0515
11308TIP3   OH255414   0.363   5.639   0.137 -0.6528  0.3942 -0.1167
11308TIP3    H155415   0.420   5.699   0.088 -1.3229  0.4021 -0.9039
11308TIP3    H255416   0.282   5.689   0.151 -0.7332  0.1306  0.3718
11309TIP3   OH255417   3.342   2.980  11.690  0.0492  0.2676  0.0619
11309TIP3    H155418   3.385   2.934  11.618  1.3558  0.4876  0.6736
11309TIP3    H255419   3.258   3.009  11.653 -0.5702 -2.0472 -0.5106
11310TIP3   OH255420   2.191   6.348  15.304  0.1280  0.9104 -0.4432
11310TIP3    H155421   2.096   6.337  15.307  0.2306  0.1224  0.2689
11310TIP3    H255422   2.203   6.443  15.301 -0.7080  0.9994 -2.3677
11311TIP3   OH255423   4.447   2.541   5.555  0.7785 -0.3171  0.7096
11311TIP3    H155424   4.481   2.457   5.585  1.4191 -0.0789  0.6518
11311TIP3    H255425   4.451   2.536   5.460 -1.3139 -1.0985  0.5962
11312TIP3   OH255426   5.581   4.758  11.382 -0.1704  0.3933 -0.4849
11312TIP3    H155427   5.675   4.739  11.384 -0.3517 -0.6610 -0.8691
11312TIP3    H255428   5.547   4.714  11.460 -0.4697 -0.0455 -0.8569
11313TIP3   OH255429   0.622   5.676  16.520 -0.1111 -0.4754 -0.7021
11313TIP3    H155430   0.546   5.706  16.470 -0.0309 -1.5094 -1.4954
11313TIP3    H255431   0.590   5.599  16.567  0.1085 -0.1457 -0.0052
11314TIP3   OH255432   3.882   2.830  10.889  0.0547  0.4275 -0.2238
11314TIP3    H155433   3.877   2.761  10.823  0.1983  0.3847 -0.1914
11314TIP3    H255434   3.898   2.910  10.839  1.1317  0.2555 -0.1775
11315TIP3   OH255435   5.234   6.305  12.511  0.2477 -0.4826  0.3879
11315TIP3    H155436   5.299   6.348  12.567  0.7208  1.6066 -1.5975
11315TIP3    H255437   5.153   6.354  12.526 -0.0431 -0.9910  0.4842
11316TIP3   OH255438   0.690   4.673  17.047 -0.4966  0.1283  0.1827
11316TIP3    H155439   0.757   4.605  17.060 -0.9469 -0.0384  1.8289
11316TIP3    H255440   0.632   4.664  17.123 -0.4100  2.5259  0.5919
11317TIP3   OH255441   0.198   6.648   1.321  0.0318  0.1708 -0.1011
11317TIP3    H155442   0.285   6.679   1.296  0.2627  0.8464  1.4463
11317TIP3    H255443   0.150   6.727   1.343 -0.9401 -0.2141 -0.8002
11318TIP3   OH255444   3.568   2.645   2.466  0.9929  0.0389 -0.5186
11318TIP3    H155445   3.620   2.569   2.491  1.7611  0.3094 -1.2730
11318TIP3    H255446   3.485   2.633   2.512  2.0111  0.0486  1.4120
11319TIP3   OH255447   6.771   3.251  11.924 -0.4583 -0.5989  0.3061
11319TIP3    H155448   6.728   3.178  11.878 -2.6687 -1.5918  3.6184
11319TIP3    H255449   6.834   3.210  11.983  2.3621  0.6568 -1.5821
11320TIP3   OH255450   5.390   4.277  12.973 -0.2436  0.1376  0.3557
11320TIP3    H155451   5.379   4.369  12.994 -2.8639 -0.1294  0.5254
11320TIP3    H255452   5.402   4.275  12.878  1.6493  0.7133  0.5425
11321TIP3   OH255453   2.393   0.788   5.536 -0.7724 -0.1429  0.1551
11321TIP3    H155454   2.301   0.808   5.552 -0.8963  0.8493 -1.6006
11321TIP3    H255455   2.438   0.817   5.615 -1.6479  2.0606 -0.0940
11322TIP3   OH255456   1.516   3.705   0.155  0.3156 -0.0073 -0.1165
11322TIP3    H155457   1.607   3.719   0.179  0.0803 -0.5617  1.1543
11322TIP3    H255458   1.481   3.794   0.144  1.2947  0.2077 -1.8776
11323TIP3   OH255459   4.467   2.390   0.469  0.4994  0.2086  0.0868
11323TIP3    H155460   4.520   2.467   0.490  1.3278  0.0377 -1.2296
11323TIP3    H255461   4.531   2.321   0.453 -0.1189 -0.1399 -1.0435
11324TIP3   OH255462   1.435   3.206  15.997  0.6122 -0.2173  0.3079
11324TIP3    H155463   1.406   3.275  16.056 -0.4403 -0.5339  0.1754
11324TIP3    H255464   1.531   3.208  16.002  0.5868  1.1156  0.4531
11325TIP3   OH255465   0.783   2.830   4.668 -0.0366 -0.0450 -0.3183
11325TIP3    H155466   0.868   2.787   4.658 -0.1702  0.0307 -2.1719
11325TIP3    H255467   0.750   2.838   4.579 -2.1837 -0.4349  0.3988
11326TIP3   OH255468   4.322   5.080  14.180  0.1762 -0.2988  0.1353
11326TIP3    H155469   4.242   5.129  14.162 -0.1807 -0.7448  0.4758
11326TIP3    H255470   4.379   5.097  14.105 -0.5596 -0.6411 -0.5031
11327TIP3   OH255471   4.525   2.923   0.119 -0.5116 -0.1290 -0.0469
11327TIP3    H155472   4.536   2.834   0.086  0.2600 -0.3810  0.8110
11327TIP3    H255473   4.436   2.926   0.153  0.3611 -1.6561  2.8143
11328TIP3   OH255474   4.451   5.386  12.813  0.0255 -0.2113 -0.8263
11328TIP3    H155475   4.508   5.435  12.753  1.1610  0.6909  0.9242
11328TIP3    H255476   4.365   5.427  12.803  0.8461  1.9130  0.2517
11329TIP3   OH255477   2.121   6.232   0.494 -0.2932  0.4198  0.5362
11329TIP3    H155478   2.131   6.298   0.425 -3.7370  1.6471  1.0000
11329TIP3    H255479   2.143   6.278   0.575 -0.1848  0.2233  0.6190
11330TIP3   OH255480   5.709   4.343  14.202 -0.3836  0.4718  0.2087
11330TIP3    H155481   5.780   4.405  14.187 -0.1388  0.3473  0.8142
11330TIP3    H255482   5.683   4.314  14.114  2.0616 -1.4437  0.0027
11331TIP3   OH255483   5.189   2.186  13.694  0.0221 -0.5740 -0.5145
11331TIP3    H155484   5.147   2.174  13.609 -1.3742  0.5969 -0.0357
11331TIP3    H255485   5.248   2.260  13.682  2.7594 -2.7163 -1.4096
11332TIP3   OH255486   4.100   4.778  12.938 -0.1003  0.0546 -0.3683
11332TIP3    H155487   4.113   4.868  12.968 -2.1394  0.0607  0.6245
11332TIP3    H255488   4.086   4.727  13.018 -2.9990 -0.4016 -1.0587
11333TIP3   OH255489   1.598   2.170  13.945 -0.1311 -0.0087 -0.1580
11333TIP3    H155490   1.657   2.245  13.951 -0.8388  0.5483 -0.1644
11333TIP3    H255491   1.525   2.200  13.891 -0.1454 -0.8831 -0.6479
11334TIP3   OH255492   4.546   4.685   4.751 -0.2765  0.4114 -0.4918
11334TIP3    H155493   4.506   4.615   4.802  1.2019  0.1973  0.4181
11334TIP3    H255494   4.545   4.652   4.661  1.2227 -1.2182  0.0361
11335TIP3   OH255495   1.999   2.202   1.888 -0.2439  0.2885 -0.3982
11335TIP3    H155496   2.068   2.246   1.938 -0.6454  1.9956 -1.2913
11335TIP3    H255497   1.971   2.130   1.945  1.5497  0.1731  0.4150
11336TIP3   OH255498   0.754   2.525  15.403 -0.6384 -0.0345 -0.4257
11336TIP3    H155499   0.681   2.587  15.409 -0.1353  0.4812  0.6364
11336TIP3    H255500   0.825   2.566  15.452  0.1702 -0.8110 -0.9232
11337TIP3   OH255501   4.150   2.888   5.749 -0.5145  0.5845 -0.4178
11337TIP3    H155502   4.138   2.849   5.662  0.8463 -1.2952  0.1673
11337TIP3    H255503   4.133   2.981   5.737  0.8448  0.5784 -2.9725
11338TIP3   OH255504   1.957   2.353   1.462  0.4790  0.3446 -0.3445
11338TIP3    H155505   1.972   2.440   1.426  1.6145 -0.1059 -1.0002
11338TIP3    H255506   1.904   2.308   1.396 -0.1544  0.5412  0.0186
11339TIP3   OH255507   4.223   0.849  12.152 -0.2797 -0.0234  0.2659
11339TIP3    H155508   4.260   0.938  12.149 -0.2990 -0.0163  0.2223
11339TIP3    H255509   4.263   0.809  12.228 -0.8352  0.2701  0.7180
11340TIP3   OH255510   5.500   4.427  12.022 -0.1277 -0.6198 -0.1900
11340TIP3    H155511   5.461   4.377  12.094 -0.6103  1.6027  1.1990
11340TIP3    H255512   5.595   4.418  12.035 -0.1801 -2.3148 -0.8403
11341TIP3   OH255513   5.309   6.429   2.793  0.2580  0.0568 -0.1442
11341TIP3    H155514   5.380   6.475   2.748  0.0431 -0.1136 -0.6659
11341TIP3    H255515   5.344   6.411   2.880  0.5834  0.6283 -0.1475
11342TIP3   OH255516   4.806   5.113   1.809 -0.1679 -0.3405 -0.1355
11342TIP3    H155517   4.878   5.176   1.817  0.3955 -1.1136  1.3122
11342TIP3    H255518   4.846   5.035   1.770  0.2860 -1.4097  2.2458
11343TIP3   OH255519   3.266   2.863   5.729  0.8407  0.0685 -0.0963
11343TIP3    H155520   3.290   2.777   5.694 -1.3041 -0.5690 -0.1148
11343TIP3    H255521   3.349   2.909   5.736  1.8513 -1.3253 -1.8812
11344TIP3   OH255522   1.625   6.129   1.069 -0.1778 -0.1708 -0.3435
11344TIP3    H155523   1.678   6.166   0.999  2.2127 -0.5772  1.1053
11344TIP3    H255524   1.560   6.074   1.025  1.0095 -0.1383 -2.2179
11345TIP3   OH255525   1.209   4.364  13.670 -0.3083 -0.4972 -0.1094
11345TIP3    H155526   1.154   4.406  13.604  0.5519  0.2084 -0.3947
11345TIP3    H255527   1.265   4.304  13.620  0.5329  0.2391 -0.0671
11346TIP3   OH255528   1.437   5.894  12.925  0.2280 -0.7285 -0.0638
11346TIP3    H155529   1.421   5.837  13.000  1.8825 -0.6745  0.3552
11346TIP3    H255530   1.514   5.946  12.949 -0.7376  1.1267 -0.7644
11347TIP3   OH255531   5.797   2.930  14.984 -0.0127 -0.0172 -0.1426
11347TIP3    H155532   5.718   2.876  14.975  0.7701 -1.3296  0.6726
11347TIP3    H255533   5.834   2.906  15.068  1.7956 -0.1554 -0.9284
11348TIP3   OH255534   1.370   1.141  11.256 -0.3680  0.2678 -0.5351
11348TIP3    H155535   1.338   1.227  11.284  0.4869  0.9403 -1.5689
11348TIP3    H255536   1.318   1.120  11.179 -0.8201 -0.3297 -0.0839
11349TIP3   OH255537   6.172   1.064   2.786 -0.1845  0.0070  0.0357
11349TIP3    H155538   6.135   1.107   2.709  0.8769  3.7303  1.3879
11349TIP3    H255539   6.097   1.046   2.843 -0.7685 -1.1443 -1.0358
11350TIP3   OH255540   6.635   1.984   4.103  0.0025  0.6586 -0.0619
11350TIP3    H155541   6.622   1.889   4.106  0.9740  0.5093  2.9058
11350TIP3    H255542   6.565   2.020   4.157  0.2957  1.5155 -0.2398
11351TIP3   OH255543   6.090   4.551   0.709  0.8221 -0.2350 -0.2287
11351TIP3    H155544   6.171   4.586   0.672 -0.2272 -0.1891 -2.7050
11351TIP3    H255545   6.046   4.628   0.745  1.4297 -0.0933  0.2183
11352TIP3   OH255546   5.602   1.750  14.285  0.1200 -0.9320  0.0300
11352TIP3    H155547   5.646   1.778  14.366 -0.3281 -0.1812  0.0246
11352TIP3    H255548   5.510   1.740  14.310 -0.2975  0.7328 -0.6948
11353TIP3   OH255549   2.689   4.939  11.210 -0.1118 -0.6894  0.1089
11353TIP3    H155550   2.598   4.911  11.199 -0.4947  0.7040 -0.3686
11353TIP3    H255551   2.715   4.973  11.125 -0.3900  2.3919  1.1225
11354TIP3   OH255552   4.147   4.455   2.599 -0.4327  0.5967  0.4474
11354TIP3    H155553   4.056   4.470   2.575  0.4104  2.4601 -1.9587
11354TIP3    H255554   4.163   4.364   2.574 -1.7721  0.0098  1.5838
11355TIP3   OH255555   4.614   4.084  17.146 -0.0454  0.4627 -0.3164
11355TIP3    H155556   4.695   4.048  17.183 -1.3848 -0.4453  1.9381
11355TIP3    H255557   4.609   4.173  17.181  0.2628  0.7318 -0.9473
11356TIP3   OH255558   4.515   4.608   5.513 -0.0138 -0.0888  0.0811
11356TIP3    H155559   4.453   4.616   5.586 -1.5884 -0.5669 -1.1486
11356TIP3    H255560   4.530   4.514   5.505  1.1100  0.0315  0.5123
11357TIP3   OH255561   3.297   3.293   3.079 -0.0788  0.0574 -0.1025
11357TIP3    H155562   3.356   3.304   3.153 -0.3569  1.1952 -0.0288
11357TIP3    H255563   3.355   3.281   3.004  0.3421  2.3363 -0.2187
11358TIP3   OH255564   3.357   2.782   2.269  0.2052 -0.0065 -0.4264
11358TIP3    H155565   3.307   2.861   2.289 -0.1980 -0.8760  2.6728
11358TIP3    H255566   3.443   2.797   2.309  0.1158 -1.0789  0.2228
11359TIP3   OH255567   4.899   4.655   5.410 -0.0948  0.3821 -0.1210
11359TIP3    H155568   4.980   4.683   5.368 -0.6687  0.3291 -1.2942
11359TIP3    H255569   4.910   4.679   5.502  1.7242 -0.6864 -0.0276
11360TIP3   OH255570   6.091   0.131   2.996  0.2670  0.6070  0.9329
11360TIP3    H155571   6.154   0.060   2.995  0.0998  0.4664  0.1360
11360TIP3    H255572   6.128   0.195   3.057  1.0957  0.4597  0.5936
11361TIP3   OH255573   2.980   3.580  12.737  0.6367 -0.2124  0.1532
11361TIP3    H155574   3.058   3.536  12.769  0.2215 -1.8082 -0.9484
11361TIP3    H255575   3.009   3.629  12.660  0.4643 -1.2120 -0.5554
11362TIP3   OH255576   2.065   3.918   4.595 -0.1759  0.2648 -0.1227
11362TIP3    H155577   2.134   3.984   4.595  0.2421 -0.1355 -2.0018
11362TIP3    H255578   2.043   3.906   4.503 -1.7868 -0.6327  0.3438
11363TIP3   OH255579   5.439   1.089  14.652  0.4330 -0.2195 -0.3124
11363TIP3    H155580   5.362   1.047  14.692  0.9831 -0.9931 -0.0494
11363TIP3    H255581   5.502   1.018  14.640  0.7946  0.2528 -1.3177
11364TIP3   OH255582   3.204   3.273  14.071  0.5561 -0.5364 -0.3923
11364TIP3    H155583   3.239   3.305  13.988 -0.4377  0.5688 -0.4117
11364TIP3    H255584   3.176   3.352  14.118  0.5763 -1.1834  0.7560
11365TIP3   OH255585   4.170   3.962   0.002 -0.3724  0.1503  0.0502
11365TIP3    H155586   4.261   3.931   0.003 -0.3545 -0.4528 -3.6721
11365TIP3    H255587   4.177   4.057   0.010  0.4566  0.0326  0.9551
11366TIP3   OH255588   6.347   0.774  13.577 -0.0894  0.2025  0.4164
11366TIP3    H155589   6.253   0.768  13.557  0.2135  0.3061 -1.1900
11366TIP3    H255590   6.366   0.868  13.570  0.1777  0.1515  0.4844
11367TIP3   OH255591   1.097   4.076  13.768 -0.1177  0.4765 -0.0703
11367TIP3    H155592   1.053   4.161  13.760 -0.5963  0.1937 -0.5444
11367TIP3    H255593   1.046   4.028  13.833  0.8155  0.9460  1.0404
11368TIP3   OH255594   1.050   4.171  11.941 -0.7991 -0.5152 -0.2585
11368TIP3    H155595   1.097   4.109  11.886 -2.1464 -0.1393 -1.9226
11368TIP3    H255596   0.962   4.134  11.949 -1.1510  0.3640  0.1137
11369TIP3   OH255597   3.555   1.651  16.199 -0.3116  0.4048 -0.3561
11369TIP3    H155598   3.558   1.560  16.171  0.1148  0.2296  0.2404
11369TIP3    H255599   3.515   1.648  16.286  0.4200  0.6935 -0.0002
11370TIP3   OH255600   4.866   5.425  12.907 -0.9964  0.0753 -0.7289
11370TIP3    H155601   4.810   5.469  12.971  1.9894  1.3192  1.2638
11370TIP3    H255602   4.911   5.497  12.862  1.0228 -0.8468 -0.2652
11371TIP3   OH255603   0.205   5.257   2.265  0.0781 -0.1450  0.1507
11371TIP3    H155604   0.252   5.227   2.187 -0.2187  1.0899 -0.5387
11371TIP3    H255605   0.206   5.353   2.257  0.1856  0.0098  1.7638
11372TIP3   OH255606   0.571   6.267  12.797  0.2624  0.3091  0.1415
11372TIP3    H155607   0.542   6.316  12.720  2.4193 -0.0372 -0.9575
11372TIP3    H255608   0.497   6.210  12.817 -1.5846  2.5973  0.3187
11373TIP3   OH255609   1.593   2.216   5.844  0.5053 -0.0958  0.0592
11373TIP3    H155610   1.596   2.302   5.886  0.9456 -0.5098  0.8834
11373TIP3    H255611   1.504   2.211   5.808  0.3089  0.4961  0.4457
11374TIP3   OH255612   5.697   4.881  13.467 -0.4530 -0.3884 -0.0393
11374TIP3    H155613   5.658   4.953  13.418 -3.6603 -1.5208  0.6435
11374TIP3    H255614   5.749   4.925  13.536 -3.7662  1.4515  1.5378
11375TIP3   OH255615   3.804   2.041  15.844 -0.0793  0.8258 -0.1144
11375TIP3    H155616   3.838   2.014  15.929 -1.6702  3.7633  1.6084
11375TIP3    H255617   3.741   1.974  15.820  0.5558 -0.1519  0.8816
11376TIP3   OH255618   0.339   4.197  13.918 -0.0905 -0.1566 -1.2880
11376TIP3    H155619   0.251   4.216  13.949 -0.4525  0.3177 -2.5349
11376TIP3    H255620   0.376   4.137  13.983 -1.5133 -0.7671 -1.0117
11377TIP3   OH255621   2.628   2.322  13.588 -0.0856 -0.0392 -0.6723
11377TIP3    H155622   2.665   2.384  13.651  0.0712  0.3198 -1.1071
11377TIP3    H255623   2.685   2.246  13.592 -0.5025 -0.3134  0.1447
11378TIP3   OH255624   4.354   3.389  15.385  0.2332 -0.3749  0.4626
11378TIP3    H155625   4.421   3.381  15.317  0.6428 -1.9703  1.0133
11378TIP3    H255626   4.398   3.436  15.456  0.2487  0.0430  0.1778
11379TIP3   OH255627   3.947   0.990  13.240 -0.3888 -0.3281 -0.1962
11379TIP3    H155628   3.994   0.945  13.170 -1.3043  0.9661 -1.7243
11379TIP3    H255629   3.989   0.961  13.321  0.9547 -1.5793 -1.3041
11380TIP3   OH255630   3.538   4.179   2.498 -0.1929  0.3069  0.3820
11380TIP3    H155631   3.547   4.212   2.588  0.1830 -1.8317  1.1965
11380TIP3    H255632   3.595   4.102   2.495 -0.5813  0.0448 -1.5667
11381TIP3   OH255633   0.566   1.095   3.773  0.2998  0.2222 -0.4371
11381TIP3    H155634   0.569   1.000   3.764 -0.9282  0.1074  0.1758
11381TIP3    H255635   0.476   1.114   3.798  0.2104  1.6706 -1.7206
11382TIP3   OH255636   1.639   2.806   0.731  0.1623 -0.6606  0.9019
11382TIP3    H155637   1.705   2.831   0.796  0.6689  0.4686 -0.0161
11382TIP3    H255638   1.567   2.867   0.744  0.0044 -0.8207  0.7973
11383TIP3   OH255639   4.009   5.570   0.275 -0.1532  0.3297 -0.1905
11383TIP3    H155640   4.024   5.660   0.306  0.4558 -0.0555  0.6640
11383TIP3    H255641   3.946   5.580   0.204  1.5461  1.6793 -1.6160
11384TIP3   OH255642   2.542   0.476   3.454  0.5686 -0.3464 -0.1510
11384TIP3    H155643   2.543   0.530   3.533  1.0013 -0.2096 -0.2492
11384TIP3    H255644   2.632   0.447   3.443  0.2163 -1.7436  0.3334
11385TIP3   OH255645   6.623   6.709  13.994 -0.0161  0.2707 -0.4538
11385TIP3    H155646   6.689   6.739  14.057 -1.7110  1.7089  0.7045
11385TIP3    H255647   6.614   6.781  13.933 -0.2133 -0.0948 -0.8583
11386TIP3   OH255648   3.055   0.362   5.399  0.1106  0.8095  0.6208
11386TIP3    H155649   2.992   0.380   5.469  2.5486  1.4276  2.7915
11386TIP3    H255650   3.100   0.445   5.386  0.8182  0.2590 -0.5231
11387TIP3   OH255651   2.716   5.844  16.091  0.0534 -0.1638 -0.0088
11387TIP3    H155652   2.766   5.780  16.041 -0.0531  1.0616 -1.7467
11387TIP3    H255653   2.781   5.890  16.144  0.2706 -0.9487  0.4149
11388TIP3   OH255654   3.199   2.470   5.732 -0.4034  0.8092 -0.1714
11388TIP3    H155655   3.287   2.503   5.751 -1.2127  3.6763 -0.8764
11388TIP3    H255656   3.151   2.479   5.814 -0.4668  0.8111 -0.2081
11389TIP3   OH255657   3.790   5.794  16.477 -0.5868 -0.2147 -0.2115
11389TIP3    H155658   3.789   5.730  16.406 -0.8380  0.7634 -1.1067
11389TIP3    H255659   3.701   5.791  16.513 -0.8255  0.1606 -0.7538
11390TIP3   OH255660   0.839   1.507  17.159  0.5412 -0.3494 -0.1428
11390TIP3    H155661   0.882   1.461  17.086 -0.7771 -3.3069  0.7742
11390TIP3    H255662   0.899   1.496  17.232 -0.0803 -1.3221  0.2484
11391TIP3   OH255663   5.784   5.281  13.530  0.5401 -0.1153 -0.2333
11391TIP3    H155664   5.714   5.231  13.487 -0.0393 -0.2278  0.8059
11391TIP3    H255665   5.782   5.367  13.489 -0.9945  0.2592  0.5775
11392TIP3   OH255666   5.020   5.292  14.673  0.0847  0.0864  0.4611
11392TIP3    H155667   5.101   5.258  14.636  0.0359  0.3803  0.0758
11392TIP3    H255668   5.046   5.335  14.755  0.3551  0.4057  0.2076
11393TIP3   OH255669   2.110   6.466  14.539  0.2635 -0.3965  0.2212
11393TIP3    H155670   2.175   6.532  14.562 -1.5757  0.6477  3.1259
11393TIP3    H255671   2.096   6.477  14.445  3.7892 -0.3432 -0.4227
11394TIP3   OH255672   4.571   0.129  12.805  0.1361  0.0309  0.5433
11394TIP3    H155673   4.576   0.039  12.838  1.9089  0.4832  1.6396
11394TIP3    H255674   4.526   0.122  12.721 -2.3879 -1.5018  1.9095
11395TIP3   OH255675   2.362   4.890   0.848 -0.7834 -0.0843  0.0125
11395TIP3    H155676   2.301   4.949   0.805 -0.9601 -0.6342 -0.5155
11395TIP3    H255677   2.372   4.817   0.786  2.1867  1.0206 -1.0080
11396TIP3   OH255678   0.876   5.529  14.730  0.5105  0.4459 -0.1815
11396TIP3    H155679   0.956   5.477  14.726 -0.3068 -0.8744 -4.4517
11396TIP3    H255680   0.810   5.469  14.765  0.6323  0.2843 -0.2282
11397TIP3   OH255681   0.682   5.821  16.025  0.0015 -0.4167  0.0757
11397TIP3    H155682   0.615   5.759  16.055 -1.9304  0.8110 -1.4719
11397TIP3    H255683   0.748   5.766  15.984 -0.0873 -1.6604  1.4761
11398TIP3   OH255684   6.798   1.704  11.902  0.3112  0.2887 -0.6808
11398TIP3    H155685   6.719   1.696  11.848  0.9803 -0.6440 -1.5781
11398TIP3    H255686   6.845   1.778  11.865  0.0821  0.5517 -0.4479
11399TIP3   OH255687   0.299   5.075   5.694  0.5488 -0.0772 -0.1469
11399TIP3    H155688   0.288   4.997   5.748 -0.4748  0.4433  0.4437
11399TIP3    H255689   0.354   5.047   5.621 -0.9947 -1.7562 -0.7528
11400TIP3   OH255690   1.908   3.749  17.228  0.0269 -0.1416 -0.3072
11400TIP3    H155691   1.851   3.812  17.184  0.8872 -0.2980 -1.6882
11400TIP3    H255692   1.853   3.711  17.297 -0.9030  1.1605 -0.2991
11401TIP3   OH255693   2.787   4.240   5.377  0.5171 -0.3094  0.1156
11401TIP3    H155694   2.832   4.222   5.460 -1.2689 -2.1904  0.7711
11401TIP3    H255695   2.804   4.162   5.324  2.7128  1.4074 -1.8811
11402TIP3   OH255696   2.723   6.098  13.745 -0.4721  0.6741  0.2950
11402TIP3    H155697   2.731   6.003  13.757 -0.5713  0.7534  0.9762
11402TIP3    H255698   2.772   6.137  13.817 -0.5329  1.1425  0.0903
11403TIP3   OH255699   3.086   0.801   4.918 -0.1889  0.0231  0.3242
11403TIP3    H155700   3.054   0.807   4.828  1.4180 -1.3313 -0.4020
11403TIP3    H255701   3.084   0.890   4.951 -0.7772  0.5504 -1.0692
11404TIP3   OH255702   2.154   5.978   4.132  0.0190 -0.2496  0.3354
11404TIP3    H155703   2.203   6.052   4.166 -0.1251 -0.7175  1.6462
11404TIP3    H255704   2.091   6.016   4.071 -0.3924  0.7890  1.3599
11405TIP3   OH255705   4.329   4.311   6.353  0.1703 -0.2892  0.0719
11405TIP3    H155706   4.382   4.376   6.400 -0.1493 -0.3008  0.4482
11405TIP3    H255707   4.254   4.360   6.321  0.4787 -0.2395 -0.5955
11406TIP3   OH255708   4.760   0.595   5.538  0.0284  0.5958  0.3288
11406TIP3    H155709   4.787   0.683   5.511 -1.1131  1.0109  0.5117
11406TIP3    H255710   4.782   0.539   5.463 -0.5133  1.2723 -0.3517
11407TIP3   OH255711   1.215   0.124   0.245 -0.4418 -0.0704 -0.4547
11407TIP3    H155712   1.219   0.131   0.341 -1.7279 -0.8237 -0.3214
11407TIP3    H255713   1.307   0.118   0.218 -0.0923 -1.6318  0.8960
11408TIP3   OH255714   1.035   5.415   4.777  0.5955  0.2740  0.2758
11408TIP3    H155715   0.993   5.386   4.696 -0.3708  2.4298 -0.0719
11408TIP3    H255716   1.128   5.396   4.764  0.6897  1.9670 -2.0472
11409TIP3   OH255717   6.740   4.987   1.368 -0.1278  0.1027  0.1810
11409TIP3    H155718   6.815   5.025   1.322 -0.4687 -1.4228 -1.7930
11409TIP3    H255719   6.664   5.015   1.319 -0.9198  1.5136  2.0831
11410TIP3   OH255720   2.362   6.744  11.929  0.1507 -0.0323  0.3611
11410TIP3    H155721   2.295   6.811  11.943  2.2068  2.1727  0.3238
11410TIP3    H255722   2.367   6.697  12.012 -0.7619  0.4218  0.6830
11411TIP3   OH255723   4.146   3.032  14.770  0.0302 -0.0128  0.4808
11411TIP3    H155724   4.212   2.965  14.790  0.3640  0.7418  2.0562
11411TIP3    H255725   4.089   2.990  14.706  1.1138 -1.2566  0.2729
11412TIP3   OH255726   2.953   5.302   5.794 -0.6117 -0.1504  0.3706
11412TIP3    H155727   2.873   5.272   5.835 -0.9457  2.4209  1.8079
11412TIP3    H255728   3.003   5.343   5.865  1.3122 -0.3571 -0.7787
11413TIP3   OH255729   5.635   6.381   4.272  0.2645 -0.0114  0.5159
11413TIP3    H155730   5.702   6.426   4.220  0.9602 -1.5643 -0.0139
11413TIP3    H255731   5.601   6.448   4.331  1.9693  0.9477  0.4860
11414TIP3   OH255732   2.091   6.549  13.195  0.1639 -0.1217  0.1079
11414TIP3    H155733   2.034   6.495  13.250  0.3071 -2.6354 -2.0190
11414TIP3    H255734   2.032   6.598  13.139  0.0690  0.0321  0.3399
11415TIP3   OH255735   6.590   4.420  11.569 -0.3044  0.3490  0.0750
11415TIP3    H155736   6.622   4.340  11.528  1.3646  0.7823  0.4714
11415TIP3    H255737   6.599   4.487  11.502 -0.4983  0.4575  0.1555
11416TIP3   OH255738   6.751   3.773  14.628  0.3345  0.1474 -0.0763
11416TIP3    H155739   6.704   3.785  14.711  0.1565 -1.7372  0.1492
11416TIP3    H255740   6.684   3.785  14.561  0.1430  0.2130  0.1241
11417TIP3   OH255741   2.846   1.491  16.276  0.2978  0.1102  0.6878
11417TIP3    H155742   2.824   1.522  16.364  1.4044  0.1535  0.9532
11417TIP3    H255743   2.922   1.542  16.250  0.5259 -0.5377  0.0620
11418TIP3   OH255744   5.771   0.434  14.086  0.0545  0.4842 -0.3612
11418TIP3    H155745   5.821   0.509  14.054 -0.5657  1.4378  0.7736
11418TIP3    H255746   5.825   0.358  14.066  0.2999  1.1326 -2.3603
11419TIP3   OH255747   4.897   1.331   5.283 -0.4254 -0.2835 -0.3613
11419TIP3    H155748   4.815   1.282   5.284 -1.5829  1.5103  1.1957
11419TIP3    H255749   4.902   1.371   5.370  2.7833 -1.3095  0.0506
11420TIP3   OH255750   3.210   2.604  11.055 -0.1028 -0.5308 -0.5234
11420TIP3    H155751   3.171   2.691  11.066 -2.3721 -1.3026 -1.7502
11420TIP3    H255752   3.164   2.549  11.119 -1.5070 -1.5666 -2.3175
11421TIP3   OH255753   5.596   4.754   2.199  0.6929  0.0690  0.0897
11421TIP3    H155754   5.626   4.707   2.121 -0.9976  0.4994 -0.8567
11421TIP3    H255755   5.576   4.842   2.167 -0.6116  0.0761  0.8768
11422TIP3   OH255756   1.610   4.570   3.658  0.4853 -0.3221  0.4709
11422TIP3    H155757   1.537   4.528   3.614  1.0561 -0.9683  0.1125
11422TIP3    H255758   1.685   4.554   3.600  0.5404  2.1653 -0.2603
11423TIP3   OH255759   0.804   6.755  16.105 -0.3249  0.2894  0.3792
11423TIP3    H155760   0.760   6.838  16.084  1.2768  1.2880  0.8596
11423TIP3    H255761   0.732   6.692  16.113 -1.4326  1.0016 -2.6121
11424TIP3   OH255762   0.429   5.187   2.446 -0.0094 -0.1040 -0.1939
11424TIP3    H155763   0.467   5.117   2.393 -1.8069 -1.3650  0.0988
11424TIP3    H255764   0.383   5.242   2.383 -0.3886 -0.4197 -0.1993
11425TIP3   OH255765   4.686   3.178   2.942 -0.0558  0.6390 -0.0840
11425TIP3    H155766   4.713   3.107   3.001 -1.8923 -2.7831 -2.9365
11425TIP3    H255767   4.751   3.176   2.872 -1.8157 -0.6572 -1.8183
11426TIP3   OH255768   0.689   2.148  16.191 -0.0972  0.0651 -0.1327
11426TIP3    H155769   0.609   2.117  16.148 -0.5945  0.8867  0.1784
11426TIP3    H255770   0.658   2.209  16.258  0.8317  1.2304 -0.7213
11427TIP3   OH255771   1.727   6.224   0.286  0.2042 -0.1521 -0.3248
11427TIP3    H155772   1.665   6.276   0.236 -0.3795 -1.7649 -1.3351
11427TIP3    H255773   1.677   6.192   0.361 -0.2468 -1.5401 -1.1960
11428TIP3   OH255774   5.117   4.502  12.552 -1.1915 -0.0858  0.2185
11428TIP3    H155775   5.195   4.543  12.590  0.2487  0.2074 -2.7636
11428TIP3    H255776   5.140   4.410  12.544 -1.6739 -0.2325  0.4498
11429TIP3   OH255777   4.568   0.999   1.305  0.6081 -0.2439 -0.4729
11429TIP3    H155778   4.658   1.022   1.327  0.2123  2.1515 -0.9703
11429TIP3    H255779   4.516   1.070   1.344 -1.0238 -1.3334 -0.5695
11430TIP3   OH255780   4.646   2.248  12.370 -0.1019  0.5088 -0.2850
11430TIP3    H155781   4.648   2.340  12.345 -0.9637  0.7470  0.4912
11430TIP3    H255782   4.657   2.248  12.465  1.5840 -0.2974 -0.4362
11431TIP3   OH255783   2.352   2.667  16.818  0.1622 -0.6435  0.1426
11431TIP3    H155784   2.377   2.760  16.811 -1.5199  0.0581  2.2547
11431TIP3    H255785   2.360   2.633  16.729  0.5768  1.6000 -0.7396
11432TIP3   OH255786   6.142   3.709  13.197  0.3647  0.0141 -0.5051
11432TIP3    H155787   6.107   3.646  13.260  0.1301  1.0690  0.4532
11432TIP3    H255788   6.156   3.658  13.117  1.1005 -1.4754  0.5243
11433TIP3   OH255789   0.313   4.470   5.420 -0.4146 -0.0801 -0.3247
11433TIP3    H155790   0.257   4.498   5.348 -0.9362 -0.0582  0.0862
11433TIP3    H255791   0.376   4.542   5.430 -0.2247 -0.1657 -0.8722
11434TIP3   OH255792   2.663   3.544  15.265 -0.6167 -0.0999  0.0487
11434TIP3    H155793   2.752   3.555  15.232 -0.3518  1.2014  1.0746
11434TIP3    H255794   2.607   3.570  15.193 -0.4150 -4.3298 -1.9522
11435TIP3   OH255795   4.536   4.241  15.561  0.6017 -0.0656  0.1629
11435TIP3    H155796   4.527   4.281  15.475  2.1569 -1.5158 -0.7187
11435TIP3    H255797   4.482   4.162  15.556 -0.0311  0.3058  0.8610
11436TIP3   OH255798   1.271   0.017   0.926  0.0368  0.4339 -0.8665
11436TIP3    H155799   1.293  -0.065   0.882  0.1546  1.7198 -3.3938
11436TIP3    H255800   1.308   0.007   1.014  0.3857 -2.0379 -1.2088
11437TIP3   OH255801   0.276   4.192   0.858  0.3099 -0.1482  0.5573
11437TIP3    H155802   0.251   4.154   0.942  1.0716  0.6047  1.1369
11437TIP3    H255803   0.340   4.260   0.880  1.3443 -0.6729 -0.7165
11438TIP3   OH255804   5.820   1.445  13.035 -0.0866  0.6920  0.4583
11438TIP3    H155805   5.827   1.453  12.940 -1.0065 -1.1711  0.1984
11438TIP3    H255806   5.738   1.399  13.049  1.4832 -1.8805  1.9740
11439TIP3   OH255807   4.773   4.554   2.406 -0.1763 -0.1111  0.1176
11439TIP3    H155808   4.824   4.474   2.394  1.4334  0.9430 -0.2888
11439TIP3    H255809   4.774   4.569   2.500 -0.2137 -0.3971  0.1644
11440TIP3   OH255810   1.418   0.242   2.365  0.4227 -0.0504  0.7791
11440TIP3    H155811   1.395   0.333   2.383 -0.0826 -0.2820  1.3594
11440TIP3    H255812   1.513   0.239   2.374  0.5151  0.5565  0.0899
11441TIP3   OH255813   0.174   1.304   4.196 -0.4671 -0.2658  0.2265
11441TIP3    H155814   0.096   1.328   4.145 -0.9689 -0.9872  0.6346
11441TIP3    H255815   0.168   1.209   4.206  0.4818 -0.3273  0.2543
11442TIP3   OH255816   2.132   6.455  12.282 -0.3037 -0.1729  0.2012
11442TIP3    H155817   2.117   6.366  12.249  1.4721 -0.8424  1.0718
11442TIP3    H255818   2.211   6.447  12.336 -0.5006  1.8111  0.8382
11443TIP3   OH255819   2.367   0.949  10.631 -0.3144 -0.2648 -0.0984
11443TIP3    H155820   2.411   1.022  10.676  0.7382 -0.9362 -0.0037
11443TIP3    H255821   2.285   0.939  10.678 -0.2240  0.4941  0.2527
11444TIP3   OH255822   4.088   6.053  14.438  0.1561 -0.0301  1.0051
11444TIP3    H155823   4.149   6.098  14.379  0.1335  0.8412  1.6378
11444TIP3    H255824   4.130   6.057  14.523 -0.9749  0.9781  1.5431
11445TIP3   OH255825   2.886   2.391  11.754 -0.6689  0.2833  0.4095
11445TIP3    H155826   2.897   2.485  11.741  0.0822  0.1112 -0.3126
11445TIP3    H255827   2.794   2.374  11.735 -0.4647  0.6461 -1.0291
11446TIP3   OH255828   0.573   1.381  10.119 -0.7341  0.0363  0.1855
11446TIP3    H155829   0.559   1.322  10.193  0.5789  0.7892  1.0681
11446TIP3    H255830   0.588   1.467  10.159  0.5610  0.3504 -0.8937
11447TIP3   OH255831   4.563   4.201   2.460  0.5711  0.5731  0.5262
11447TIP3    H155832   4.623   4.229   2.390 -3.0607 -0.1470 -3.2709
11447TIP3    H255833   4.505   4.275   2.473 -2.9290 -1.3000 -2.4168
11448TIP3   OH255834   5.460   1.653   3.977 -0.4921  0.0439 -0.0650
11448TIP3    H155835   5.450   1.566   3.938  2.5062  0.4256 -2.0182
11448TIP3    H255836   5.494   1.707   3.906 -0.8746  2.4763  1.4953
11449TIP3   OH255837   2.875   1.377  14.396  0.1049  0.0219  0.0715
11449TIP3    H155838   2.919   1.442  14.342  0.4620 -0.8357 -0.6917
11449TIP3    H255839   2.792   1.361  14.351  1.0215 -1.7651 -1.0693
11450TIP3   OH255840   6.516   6.779   1.842 -0.7730 -0.5966  0.0387
11450TIP3    H155841   6.588   6.750   1.785 -0.1655 -0.4533  0.7215
11450TIP3    H255842   6.503   6.705   1.902 -1.9370 -1.0640 -0.7658
11451TIP3   OH255843   6.600   3.226   4.616  0.7332 -0.3809 -0.0709
11451TIP3    H155844   6.516   3.204   4.657  0.2544  0.7759 -0.3785
11451TIP3    H255845   6.577   3.290   4.549  2.0785  1.4866  1.1411
11452TIP3   OH255846   0.045   6.179  14.148 -0.1156 -0.4959 -0.3968
11452TIP3    H155847   0.024   6.150  14.236 -0.3729 -0.4849 -0.4544
11452TIP3    H255848  -0.038   6.175  14.101 -0.3515  1.1668 -0.1819
11453TIP3   OH255849   5.564   4.847  13.711  0.4296 -0.5962  0.4009
11453TIP3    H155850   5.589   4.862  13.619 -0.1871 -1.8416  0.0035
11453TIP3    H255851   5.626   4.780  13.742  0.1461 -0.7477  0.6456
11454TIP3   OH255852   4.571   4.619   4.430  0.0507  0.9266 -0.0929
11454TIP3    H155853   4.485   4.577   4.419  0.1855  0.5601  0.2088
11454TIP3    H255854   4.551   4.708   4.459 -0.2213  0.7162  0.3738
11455TIP3   OH255855   5.538   0.189  13.673  0.3974 -0.0488 -0.3885
11455TIP3    H155856   5.496   0.105  13.690 -0.1057  0.2842  0.0194
11455TIP3    H255857   5.511   0.246  13.745 -0.1302  0.7768 -1.1980
11456TIP3   OH255858   2.288   5.182  10.959 -0.0563 -0.1690  0.1962
11456TIP3    H155859   2.267   5.151  10.871  1.3632  0.5540 -0.4385
11456TIP3    H255860   2.303   5.103  11.010  2.1747 -0.6145 -1.0360
11457TIP3   OH255861   6.253   1.416  16.986  0.2441 -0.3139 -0.0577
11457TIP3    H155862   6.252   1.502  16.945  1.8249 -0.4389 -0.4232
11457TIP3    H255863   6.315   1.424  17.058 -0.9307 -0.6816  1.0220
11458TIP3   OH255864   0.836   6.152  15.122 -0.1848 -0.0186 -0.4211
11458TIP3    H155865   0.919   6.164  15.169  0.4128  3.1997 -2.0146
11458TIP3    H255866   0.771   6.193  15.179  0.1333  1.6056 -1.1721
11459TIP3   OH255867   6.446   2.506  12.165  0.2948  0.1433 -0.6930
11459TIP3    H155868   6.447   2.479  12.073  1.4546 -1.4183 -0.2710
11459TIP3    H255869   6.353   2.507  12.189 -0.2142  2.6128 -2.3798
11460TIP3   OH255870   6.112   3.362  16.439 -0.3190  0.0125  0.1671
11460TIP3    H155871   6.095   3.382  16.531 -0.5261 -0.3516  0.2134
11460TIP3    H255872   6.035   3.394  16.393 -0.3585 -0.0861  0.1624
11461TIP3   OH255873   3.339   3.818   1.208  0.4050  0.1772 -0.4869
11461TIP3    H155874   3.283   3.876   1.156 -0.4191 -1.2155 -1.2383
11461TIP3    H255875   3.396   3.877   1.258  0.0870  1.5922 -1.7244
11462TIP3   OH255876   1.812   4.633  13.057 -0.1122  0.5741  0.4905
11462TIP3    H155877   1.778   4.614  12.970 -2.8081 -3.7897  2.1732
11462TIP3    H255878   1.886   4.574  13.068 -1.5553 -1.0902  1.9721
11463TIP3   OH255879   3.540   3.262   4.031  0.0591 -0.2199 -0.4026
11463TIP3    H155880   3.450   3.289   4.050  0.3608  1.1745 -0.8650
11463TIP3    H255881   3.531   3.172   3.998 -1.1983  0.0038 -0.7321
11464TIP3   OH255882   6.238   0.471   4.287  0.6642  0.4143 -0.8623
11464TIP3    H155883   6.306   0.418   4.247 -0.7187 -0.6061 -1.9641
11464TIP3    H255884   6.178   0.492   4.215 -1.3889 -0.6538  0.4371
11465TIP3   OH255885   5.523   4.718  14.228  0.5091 -0.2403  0.0499
11465TIP3    H155886   5.542   4.670  14.147  1.7334  0.2989  0.0094
11465TIP3    H255887   5.468   4.658  14.278 -1.7673  0.0600 -1.8859
11466TIP3   OH255888   1.792   4.604   1.443  0.0726 -0.1014  0.1912
11466TIP3    H155889   1.824   4.647   1.523 -0.1931 -0.9477  0.7724
11466TIP3    H255890   1.817   4.663   1.372 -1.7499  1.8619  1.0762
11467TIP3   OH255891   2.843   5.100   5.297 -0.4081 -0.2884 -0.6902
11467TIP3    H155892   2.908   5.046   5.341 -0.6505  0.0302  0.0819
11467TIP3    H255893   2.814   5.048   5.223  0.4995 -0.5599 -0.8629
11468TIP3   OH255894   3.353   6.249  14.023 -0.3557  0.0447 -0.0677
11468TIP3    H155895   3.359   6.300  13.942 -0.7911 -1.2248 -0.9387
11468TIP3    H255896   3.407   6.296  14.086  2.9239 -0.7653 -2.0521
11469TIP3   OH255897   0.327   3.464   0.869  0.4630  0.3179  0.2234
11469TIP3    H155898   0.333   3.453   0.774 -0.7986 -0.0193  0.1588
11469TIP3    H255899   0.407   3.424   0.904  0.7695  0.1312 -0.6775
11470TIP3   OH255900   5.805   1.058  13.677  0.0350 -0.3885 -0.1962
11470TIP3    H155901   5.876   1.063  13.741 -0.9017  1.1146  0.7804
11470TIP3    H255902   5.848   1.065  13.592  0.9993  1.9602  0.4054
11471TIP3   OH255903   2.333   2.192   4.959  0.0846  0.2176 -0.7842
11471TIP3    H155904   2.374   2.163   4.877  1.4015  0.6239 -0.2905
11471TIP3    H255905   2.322   2.113   5.011  0.8552  0.1870 -0.6619
11472TIP3   OH255906   5.406   1.397  14.937  0.3169 -0.4377 -0.0306
11472TIP3    H155907   5.396   1.480  14.889  0.5222 -0.3253  0.1184
11472TIP3    H255908   5.369   1.415  15.023  2.6505  0.3154  0.8994
11473TIP3   OH255909   1.026   6.346   4.418 -0.8699 -0.0727  0.2373
11473TIP3    H155910   0.939   6.341   4.378 -0.7816 -0.1367  0.0526
11473TIP3    H255911   1.009   6.354   4.511 -1.0861  0.5314  0.1468
11474TIP3   OH255912   0.037   2.469   0.755 -0.1091  0.2309 -0.4582
11474TIP3    H155913  -0.011   2.456   0.837 -0.0530  3.4373  0.2287
11474TIP3    H255914  -0.032   2.486   0.690 -0.0660  1.4154 -0.2165
11475TIP3   OH255915   4.760   1.423   3.340  0.2327  0.3113 -0.3374
11475TIP3    H155916   4.791   1.392   3.255  1.9510 -0.6148  0.5825
11475TIP3    H255917   4.754   1.344   3.394 -0.6391  0.9091  0.4869
11476TIP3   OH255918   0.225   4.775   5.578 -0.2881 -0.0064  0.3053
11476TIP3    H155919   0.264   4.744   5.660 -0.0702 -1.0759 -0.1779
11476TIP3    H255920   0.295   4.766   5.513 -1.1241 -1.3891 -0.4559
11477TIP3   OH255921   3.123   2.855  16.770 -0.5830 -0.8986 -0.2679
11477TIP3    H155922   3.092   2.899  16.691 -1.9015 -0.5172  0.4435
11477TIP3    H255923   3.044   2.837  16.821  0.2646 -0.7359  1.1719
11478TIP3   OH255924   0.941   5.326   0.613  0.3097  0.0279  0.3657
11478TIP3    H155925   0.982   5.255   0.662 -1.8795 -1.8130 -0.3230
11478TIP3    H255926   0.952   5.302   0.521 -0.3242  0.6819  0.1067
11479TIP3   OH255927   1.837   1.596   0.502  0.3486 -0.0001  0.2067
11479TIP3    H155928   1.836   1.621   0.409 -0.0010 -0.9709 -0.0619
11479TIP3    H255929   1.771   1.652   0.543  1.6162  1.5726  0.1943
11480TIP3   OH255930   4.402   3.523  15.813  0.2790  0.1974 -0.1601
11480TIP3    H155931   4.410   3.452  15.877 -0.1556  0.2131 -0.0881
11480TIP3    H255932   4.464   3.500  15.744  2.1695  1.1129  1.1202
11481TIP3   OH255933   5.409   3.576  13.223  0.4127 -0.1198 -0.0446
11481TIP3    H155934   5.456   3.600  13.303  1.2478 -1.1968 -0.1890
11481TIP3    H255935   5.352   3.503  13.250 -0.2693  0.3658 -0.1505
11482TIP3   OH255936   4.406   1.659   6.488  0.1956 -0.1784  0.3703
11482TIP3    H155937   4.479   1.671   6.427 -0.6856 -1.6134 -1.0781
11482TIP3    H255938   4.357   1.741   6.484 -0.8272 -0.7857 -2.3475
11483TIP3   OH255939   1.498   0.601  15.124 -0.0802 -0.3732  0.0430
11483TIP3    H155940   1.578   0.620  15.174 -0.1846 -0.3228  0.1913
11483TIP3    H255941   1.470   0.515  15.156  1.6939 -1.9627 -2.2829
11484TIP3   OH255942   5.561   6.363  10.823 -0.5493  0.2112 -0.0412
11484TIP3    H155943   5.657   6.360  10.823 -0.5609 -0.5507 -0.3525
11484TIP3    H255944   5.535   6.291  10.880 -0.9518  1.9057  2.0531
11485TIP3   OH255945   6.393   1.899  16.388 -0.0099  0.5699  0.3077
11485TIP3    H155946   6.408   1.848  16.308  0.8080  0.4176  0.5473
11485TIP3    H255947   6.468   1.958  16.394  1.0022 -0.7689  1.9729
11486TIP3   OH255948   3.944   1.101  11.562 -0.4487 -0.6132 -0.1386
11486TIP3    H155949   3.894   1.069  11.637  0.5989 -0.3044  0.7187
11486TIP3    H255950   3.951   1.025  11.504 -0.5909 -1.0749  0.4370
11487TIP3   OH255951   4.118   4.753   4.300  0.1768  0.1993  0.1297
11487TIP3    H155952   4.056   4.810   4.345 -1.3187 -0.8981 -0.4485
11487TIP3    H255953   4.082   4.665   4.311  2.3283 -0.6438  0.8304
11488TIP3   OH255954   5.051   6.671   0.864  0.5034  0.5104 -0.3667
11488TIP3    H155955   5.023   6.635   0.780 -2.3906 -1.2105  1.1831
11488TIP3    H255956   5.128   6.620   0.889 -0.5034 -1.1626 -0.5752
11489TIP3   OH255957   4.367   3.884   5.396  0.2761  0.3904 -0.1105
11489TIP3    H155958   4.360   3.793   5.365  1.0329  0.7357 -1.3776
11489TIP3    H255959   4.277   3.914   5.402  0.0210 -0.3849  0.1552
11490TIP3   OH255960   2.419   1.173  10.964 -0.0831 -0.0606  0.4645
11490TIP3    H155961   2.389   1.090  11.001 -0.1794 -0.3190 -0.1923
11490TIP3    H255962   2.358   1.192  10.893  1.0970 -0.4571 -0.7033
11491TIP3   OH255963   2.419   4.897   3.853  0.3532  0.6563  0.3449
11491TIP3    H155964   2.342   4.914   3.800  0.3522  0.4748  0.2843
11491TIP3    H255965   2.470   4.978   3.849  1.3914 -0.0100 -1.6924
11492TIP3   OH255966   0.504   6.481   4.991 -0.0008 -0.0050  0.4301
11492TIP3    H155967   0.583   6.441   5.028 -0.2999 -1.6376 -0.5647
11492TIP3    H255968   0.506   6.454   4.899 -1.2140  0.7584  0.1655
11493TIP3   OH255969   5.639   5.483   0.955 -0.8292 -0.0656  0.1028
11493TIP3    H155970   5.554   5.525   0.958 -0.7768  0.1045 -0.6660
11493TIP3    H255971   5.644   5.445   0.867  0.8452  1.9596 -0.7576
11494TIP3   OH255972   1.385   2.594  12.990 -0.2827 -0.5438  0.7325
11494TIP3    H155973   1.387   2.656  13.063  0.3564  0.2565  0.0644
11494TIP3    H255974   1.470   2.606  12.947 -0.2271 -1.7681  0.4852
11495TIP3   OH255975   6.493   5.895  15.675  0.2613  0.1338 -0.3477
11495TIP3    H155976   6.516   5.939  15.756  0.2332 -0.5282  0.0268
11495TIP3    H255977   6.412   5.937  15.647 -1.5296 -1.7246  1.6590
11496TIP3   OH255978   1.124   6.624   0.058  0.5730  0.2509 -0.1387
11496TIP3    H155979   1.046   6.580   0.092  0.5109  0.5677  0.1262
11496TIP3    H255980   1.121   6.712   0.095 -0.0903  0.9857 -1.8263
11497TIP3   OH255981   3.790   1.559   5.999  0.1055  0.1897  0.8062
11497TIP3    H155982   3.751   1.603   6.075 -2.0726 -0.5271  0.1774
11497TIP3    H255983   3.717   1.544   5.939  1.7023  0.5228 -1.3702
11498TIP3   OH255984   1.057   1.947  11.919  0.4339 -0.9213 -0.3678
11498TIP3    H155985   1.088   1.905  11.839 -0.3723 -2.1367 -0.0713
11498TIP3    H255986   0.998   2.015  11.889  0.3464 -1.1949 -0.8281
11499TIP3   OH255987   6.317   0.261  15.644  0.3928 -0.1267  0.2712
11499TIP3    H155988   6.253   0.280  15.713  1.0161  0.5017  0.6985
11499TIP3    H255989   6.376   0.337  15.645  0.7956 -0.4201 -0.5139
11500TIP3   OH255990   1.288   5.891  14.822  0.2177  0.1614  0.5961
11500TIP3    H155991   1.294   5.895  14.917 -0.4050 -0.4151  0.6695
11500TIP3    H255992   1.243   5.809  14.804  2.1435 -0.7636 -0.2934
11501TIP3   OH255993   4.835   4.283   3.418  0.1064  0.7450  0.1802
11501TIP3    H155994   4.811   4.192   3.433  0.7334  0.7010  0.9979
11501TIP3    H255995   4.878   4.283   3.332 -0.4380  0.3831 -0.0973
11502TIP3   OH255996   2.871   4.676   1.874 -0.8405  0.3541 -0.4389
11502TIP3    H155997   2.963   4.688   1.898 -0.8088  0.3748 -0.5699
11502TIP3    H255998   2.830   4.761   1.890 -0.3871  1.0147 -2.4195
11503TIP3   OH255999   4.917   1.122   2.940  0.7574  0.0614 -0.2837
11503TIP3    H156000   5.009   1.133   2.914  1.1074 -1.1881  0.3688
11503TIP3    H256001   4.915   1.039   2.987 -0.5449  0.5079  0.5034
11504TIP3   OH256002   5.243   0.171  15.970  0.0216  0.2064  0.3008
11504TIP3    H156003   5.198   0.136  16.046 -0.7760 -1.6312 -0.9472
11504TIP3    H256004   5.184   0.155  15.897  1.2921  0.7679 -0.9085
11505TIP3   OH256005   0.450   1.241   0.077 -0.5702 -0.1485  0.4280
11505TIP3    H156006   0.404   1.163   0.045 -1.1333  0.1932  0.3969
11505TIP3    H256007   0.495   1.276   0.000 -1.0621  0.0725  0.2357
11506TIP3   OH256008   5.980   2.604   5.077  0.4357 -0.1996  0.0204
11506TIP3    H156009   5.979   2.564   5.164 -0.1620  0.7869  0.4986
11506TIP3    H256010   6.011   2.536   5.018 -2.6144 -2.1127  0.4274
11507TIP3   OH256011   3.012   0.957   0.532 -0.1018  0.1762 -0.3349
11507TIP3    H156012   2.972   0.910   0.605 -0.6390  1.1234 -0.0055
11507TIP3    H256013   2.938   0.989   0.480  0.1345  2.6165  0.7053
11508TIP3   OH256014   3.645   5.347  11.318 -0.0394 -0.2898  0.1318
11508TIP3    H156015   3.689   5.278  11.368  1.3207  1.9458  2.2287
11508TIP3    H256016   3.715   5.405  11.290 -1.1881  0.5297 -1.1957
11509TIP3   OH256017   0.312   0.692  16.450 -0.1206  0.3206  0.5336
11509TIP3    H156018   0.290   0.602  16.473 -1.1223  0.4427  0.0830
11509TIP3    H256019   0.408   0.693  16.447 -0.1099 -0.8160  0.1531
11510TIP3   OH256020   6.704   3.888  16.551 -0.1249 -0.1472 -0.4409
11510TIP3    H156021   6.664   3.938  16.480 -0.8356 -0.0716  0.0063
11510TIP3    H256022   6.725   3.803  16.512 -5.2082 -2.1545  0.3594
11511TIP3   OH256023   1.026   0.857  14.345  0.4068  0.4112  0.0401
11511TIP3    H156024   0.947   0.840  14.293  0.8379 -0.0896 -0.4665
11511TIP3    H256025   1.009   0.941  14.388  0.4195  1.3457 -1.6909
11512TIP3   OH256026   3.811   1.175  12.681 -0.7463 -0.1027  0.4004
11512TIP3    H156027   3.829   1.120  12.756  0.0452 -0.9783 -0.4051
11512TIP3    H256028   3.717   1.193  12.685 -0.6064  0.4048  1.9315
11513TIP3   OH256029   0.034   6.479   5.208  0.3773  0.5448  0.3203
11513TIP3    H156030   0.020   6.561   5.161 -2.1351 -1.3849 -2.7277
11513TIP3    H256031   0.125   6.456   5.188  0.1663  1.0930 -1.4960
11514TIP3   OH256032   2.742   6.042   3.898  0.3329  0.3648 -0.1141
11514TIP3    H156033   2.648   6.036   3.912  0.5031 -1.4591  0.4069
11514TIP3    H256034   2.780   6.039   3.985  0.9054  0.7823 -0.3377
11515TIP3   OH256035   2.199   4.653  16.663  0.2017  0.2617  0.1097
11515TIP3    H156036   2.249   4.716  16.610  0.6946 -0.4615 -0.3022
11515TIP3    H256037   2.107   4.674  16.644  0.3565  0.9175  0.0537
11516TIP3   OH256038   3.873   3.470  11.002 -0.8003  0.0584 -0.7166
11516TIP3    H156039   3.909   3.440  10.918 -0.6273 -1.5964 -0.0770
11516TIP3    H256040   3.793   3.419  11.014 -0.4133 -0.2972  0.4808
11517TIP3   OH256041   3.758   3.663   3.706  0.4886  0.1120  0.3216
11517TIP3    H156042   3.666   3.686   3.691  0.7044  1.3798  0.8315
11517TIP3    H256043   3.755   3.587   3.764 -0.2424  1.2444  1.8336
11518TIP3   OH256044   3.003   6.569   0.862  0.4898  0.0095  0.2328
11518TIP3    H156045   2.978   6.649   0.908  0.7399 -0.0265  0.4295
11518TIP3    H256046   3.011   6.596   0.770 -1.6693 -0.2692 -0.0872
11519TIP3   OH256047   2.542   0.729  12.128  0.0298  0.3872  0.0626
11519TIP3    H156048   2.484   0.662  12.163  2.3009 -1.6292  0.1881
11519TIP3    H256049   2.537   0.801  12.191  1.4968 -1.8208  2.9362
11520TIP3   OH256050   2.921   3.898   5.446 -0.5535 -0.0819 -0.2699
11520TIP3    H156051   2.907   3.927   5.536 -1.6945  0.0003 -0.4585
11520TIP3    H256052   2.976   3.820   5.455  0.5175  0.7144  0.3940
11521TIP3   OH256053   5.806   3.508   0.554 -0.1761  0.4577  0.1384
11521TIP3    H156054   5.715   3.486   0.576  0.5356 -0.8765  2.0172
11521TIP3    H256055   5.819   3.471   0.467 -0.9158 -1.0388  0.6263
11522TIP3   OH256056   4.824   2.510   3.851 -0.1620  0.2202 -0.1311
11522TIP3    H156057   4.783   2.591   3.822  0.0768  1.7685  3.3334
11522TIP3    H256058   4.907   2.507   3.804  0.6421  3.0174  0.8925
11523TIP3   OH256059   1.623   0.129  16.973 -0.0462 -0.2816  0.3036
11523TIP3    H156060   1.652   0.077  16.898 -1.8945  0.3034 -0.8977
11523TIP3    H256061   1.702   0.145  17.024  1.0439 -1.7983 -0.8335
11524TIP3   OH256062   6.329   3.263   2.352 -0.1408 -0.1994  0.7979
11524TIP3    H156063   6.381   3.272   2.272 -1.6981  0.9488 -0.1575
11524TIP3    H256064   6.293   3.351   2.367  0.8058 -0.1616  3.2920
11525TIP3   OH256065   3.946   4.090  16.648 -0.3758 -0.1249 -0.0810
11525TIP3    H156066   3.928   4.009  16.601  1.0950  0.1616 -1.2049
11525TIP3    H256067   4.039   4.086  16.670 -1.0912 -0.5295  3.4798
11526TIP3   OH256068   5.139   6.015  16.039  0.2207  0.0462 -0.8168
11526TIP3    H156069   5.058   5.977  16.073 -0.2237  0.5792 -1.2663
11526TIP3    H256070   5.209   5.973  16.091 -0.3968  0.3656  0.3023
11527TIP3   OH256071   4.198   0.806  11.566  0.2069  0.2796  0.7008
11527TIP3    H156072   4.199   0.796  11.471 -0.0057 -0.6938  0.7913
11527TIP3    H256073   4.198   0.717  11.600 -2.1339  0.5331  1.5886
11528TIP3   OH256074   0.995   2.661  13.432 -0.0602 -0.2316 -0.4183
11528TIP3    H156075   0.968   2.693  13.346 -0.0794  1.2444  0.1037
11528TIP3    H256076   1.006   2.740  13.484  1.2180 -1.0225  0.5778
11529TIP3   OH256077   3.338   6.132  12.725  0.5605  0.3263 -0.2353
11529TIP3    H156078   3.296   6.156  12.808  1.0734  0.5156 -0.0225
11529TIP3    H256079   3.370   6.043  12.738 -1.2521 -0.4896 -0.9908
11530TIP3   OH256080   6.244   4.710   2.862 -0.2362  0.1123  0.2305
11530TIP3    H156081   6.219   4.693   2.953  1.6861 -1.6849  0.4945
11530TIP3    H256082   6.192   4.650   2.810 -0.7102  0.5336  0.2137
11531TIP3   OH256083   5.789   0.792  14.582  0.0795 -0.4635 -0.1521
11531TIP3    H156084   5.802   0.884  14.606 -0.9522 -0.1995 -0.5623
11531TIP3    H256085   5.715   0.763  14.635  0.0904 -0.9245 -0.3779
11532TIP3   OH256086   5.895   2.692   4.744 -0.2116 -0.0050 -0.7925
11532TIP3    H156087   5.864   2.770   4.698  1.3575  2.1145  1.5007
11532TIP3    H256088   5.818   2.660   4.792 -1.3859 -1.1847 -3.2957
11533TIP3   OH256089   1.776   4.782   0.615 -0.4779  0.5091  0.5616
11533TIP3    H156090   1.793   4.869   0.580  0.4755  0.7089  1.4598
11533TIP3    H256091   1.847   4.766   0.677  1.5044 -2.3823 -2.1328
11534TIP3   OH256092   3.604   3.832  12.963 -0.2614 -0.0449 -0.2919
11534TIP3    H156093   3.558   3.772  13.022 -0.1147  1.0802  1.0306
11534TIP3    H256094   3.548   3.839  12.886 -0.0046 -2.2875 -0.7357
11535TIP3   OH256095   0.696   2.735   1.655  1.2187  0.2720  0.3918
11535TIP3    H156096   0.758   2.723   1.583  0.5340  2.0034 -0.5442
11535TIP3    H256097   0.749   2.768   1.727  1.7539 -0.5828  0.4163
11536TIP3   OH256098   2.252   5.188  15.500 -0.3572 -0.5560  0.0405
11536TIP3    H156099   2.302   5.266  15.524 -2.6063  1.5731 -1.6101
11536TIP3    H256100   2.291   5.160  15.417 -0.9843  0.2858 -0.5591
11537TIP3   OH256101   1.556   0.805  11.401 -0.6656 -0.2376  0.2023
11537TIP3    H156102   1.514   0.817  11.486  0.3497 -0.1487  0.6987
11537TIP3    H256103   1.483   0.809  11.338 -1.5719 -1.3609  1.1204
11538TIP3   OH256104   4.118   0.508  14.128  0.4345  0.1702  0.1679
11538TIP3    H156105   4.191   0.446  14.128 -0.3535 -0.7747  0.6386
11538TIP3    H256106   4.049   0.464  14.079 -0.0459  0.7872  0.2828
11539TIP3   OH256107   2.485   2.411  15.995  0.1162 -0.6204  0.6493
11539TIP3    H156108   2.549   2.341  16.009  2.1902  0.5795 -2.0902
11539TIP3    H256109   2.513   2.481  16.054  0.4474 -0.6561  0.5389
11540TIP3   OH256110   3.799   3.254  14.664 -0.9804 -0.1978 -0.3174
11540TIP3    H156111   3.725   3.237  14.606 -0.5786  0.6143 -1.1031
11540TIP3    H256112   3.811   3.349  14.659  0.1911 -0.3332 -0.2979
11541TIP3   OH256113   5.003   6.173  11.351  0.6803  0.3038 -0.2235
11541TIP3    H156114   4.922   6.133  11.319  0.8571 -2.3528  2.2555
11541TIP3    H256115   4.975   6.233  11.420  0.7649 -1.1585  1.1434
11542TIP3   OH256116   6.482   4.080   0.843 -0.2623  0.9806  0.6304
11542TIP3    H156117   6.458   3.989   0.861  0.6088  0.8687  1.2706
11542TIP3    H256118   6.531   4.108   0.920  1.2419  1.3380 -0.3973
11543TIP3   OH256119   3.293   0.200   5.334 -0.1634 -0.0972 -0.4217
11543TIP3    H156120   3.299   0.160   5.421  0.3226 -0.7983 -0.7650
11543TIP3    H256121   3.201   0.223   5.324  0.0783  1.7758  1.0550
11544TIP3   OH256122   1.791   6.310   1.164 -0.4310  0.0541  0.1590
11544TIP3    H156123   1.720   6.245   1.170  1.3098 -1.8375  2.1835
11544TIP3    H256124   1.814   6.311   1.071 -1.9574 -0.5630 -0.2681
11545TIP3   OH256125   4.461   4.146  15.259  0.0012  0.3092 -0.3892
11545TIP3    H156126   4.482   4.238  15.243 -0.2223  0.7962  1.8219
11545TIP3    H256127   4.375   4.134  15.218 -0.3043  1.3005 -0.0645
11546TIP3   OH256128   5.695   0.959  16.325 -0.0163  0.4329 -0.1084
11546TIP3    H156129   5.726   0.970  16.415  0.4067  1.0771 -0.3283
11546TIP3    H256130   5.616   0.905  16.334  1.1033 -1.1785  0.4539
11547TIP3   OH256131   4.376   1.130   5.926  0.1408  0.1586 -0.4461
11547TIP3    H156132   4.426   1.212   5.928 -0.2619  0.4087  1.2576
11547TIP3    H256133   4.320   1.137   5.849  0.4895  1.2499 -0.6126
11548TIP3   OH256134   2.596   6.418  13.894  0.5646 -0.0305 -0.0997
11548TIP3    H156135   2.684   6.381  13.893 -0.3062 -2.2592 -1.1367
11548TIP3    H256136   2.561   6.393  13.980  0.2015 -1.1454 -0.5512
11549TIP3   OH256137   3.139   0.924   0.788  0.2560 -0.1316  0.1912
11549TIP3    H156138   3.127   0.989   0.857 -1.1454  1.2638 -1.2639
11549TIP3    H256139   3.050   0.905   0.759  0.8240 -0.4604 -1.4064
11550TIP3   OH256140   5.243   1.637   0.811  0.0920 -0.6001 -0.3827
11550TIP3    H156141   5.323   1.655   0.861  0.4683  0.4232 -1.3017
11550TIP3    H256142   5.183   1.599   0.875  0.1494  1.6927  1.1501
11551TIP3   OH256143   1.521   3.310  14.518 -0.2656  0.0255 -0.4363
11551TIP3    H156144   1.568   3.341  14.596  0.5388  0.0999 -0.9308
11551TIP3    H256145   1.471   3.235  14.549  1.0512 -0.7499 -0.1009
11552TIP3   OH256146   3.833   5.485  14.080  0.8169  0.0762  0.1044
11552TIP3    H156147   3.817   5.434  14.000  0.9135  1.4865 -0.8498
11552TIP3    H256148   3.839   5.419  14.149  0.9692 -1.2018 -1.0761
11553TIP3   OH256149   2.085   0.892  13.653 -0.3935 -0.4313 -0.1500
11553TIP3    H156150   2.058   0.959  13.590 -0.5904  0.9718  1.3724
11553TIP3    H256151   2.169   0.861  13.620 -1.2207 -0.8920 -1.9530
11554TIP3   OH256152   5.125   1.090   4.084 -0.2346 -0.0528 -0.1639
11554TIP3    H156153   5.154   1.169   4.130 -0.2636  0.3847 -0.8825
11554TIP3    H256154   5.141   1.108   3.992 -0.5812 -0.7475 -0.3714
11555TIP3   OH256155   3.454   6.248   4.471 -0.2032  0.6996  0.2192
11555TIP3    H156156   3.511   6.309   4.518  2.0747 -1.4307  0.4685
11555TIP3    H256157   3.481   6.256   4.380 -1.6885  1.8148 -0.1618
11556TIP3   OH256158   2.754   3.202  16.128 -0.0382  0.0212 -0.2786
11556TIP3    H156159   2.737   3.153  16.209 -0.0414 -0.8735 -0.8128
11556TIP3    H256160   2.848   3.194  16.115 -0.4797 -3.4679 -2.5725
11557TIP3   OH256161   6.267   4.291   4.137  0.2401  0.4121 -0.4688
11557TIP3    H156162   6.315   4.285   4.220 -0.1613  0.6898 -0.2144
11557TIP3    H256163   6.294   4.374   4.099  0.6669  0.1417 -0.7781
11558TIP3   OH256164   0.996   0.373   2.491  0.5324 -0.0751 -0.0047
11558TIP3    H156165   1.077   0.412   2.458  0.7116  0.0054  0.5299
11558TIP3    H256166   0.966   0.317   2.420  1.0406 -0.0807 -0.2153
11559TIP3   OH256167   4.893   1.097   6.423  0.1116  0.2034  0.4084
11559TIP3    H156168   4.802   1.087   6.451 -0.2413 -0.1291 -0.8131
11559TIP3    H256169   4.913   1.016   6.377  0.8005  0.5800  0.0278
11560TIP3   OH256170   2.383   3.601  11.093  0.2155 -0.0816 -0.4846
11560TIP3    H156171   2.375   3.679  11.037  0.7910 -1.1667 -2.1360
11560TIP3    H256172   2.332   3.534  11.048 -3.2660  0.0981  2.6498
11561TIP3   OH256173   5.610   3.613  16.012  0.5738 -0.4979 -0.2677
11561TIP3    H156174   5.666   3.691  16.015 -2.8235  2.1882  0.8818
11561TIP3    H256175   5.604   3.592  15.919 -0.4592  2.4138 -0.9768
11562TIP3   OH256176   0.083   2.766   2.431  0.4993  0.1686  0.5906
11562TIP3    H156177  -0.011   2.750   2.437  0.2202  1.5609  0.2417
11562TIP3    H256178   0.122   2.679   2.420 -0.9354 -0.2757 -1.5781
11563TIP3   OH256179   6.753   5.072  11.003  0.1773  0.4119  0.0288
11563TIP3    H156180   6.766   5.063  10.908 -1.9539 -0.4911 -0.2265
11563TIP3    H256181   6.711   4.990  11.029 -1.0451  1.4314  1.4138
11564TIP3   OH256182   0.421   4.082   2.457  0.1327  0.0916  0.5027
11564TIP3    H156183   0.412   4.067   2.552  1.6776  1.1653  0.8558
11564TIP3    H256184   0.334   4.112   2.430 -0.1457  0.4613  1.7273
11565TIP3   OH256185   6.026   0.059   4.003  0.0115 -0.6574  0.1204
11565TIP3    H156186   6.120   0.073   4.005 -0.2237  1.1101  0.4129
11565TIP3    H256187   5.993   0.122   3.938 -0.8423 -2.2331 -1.0521
11566TIP3   OH256188   6.294   4.815  13.017 -0.0381  0.2170  0.4936
11566TIP3    H156189   6.278   4.861  12.934 -1.9128 -0.4819  0.4190
11566TIP3    H256190   6.358   4.870  13.062  0.9921  0.6405 -1.3766
11567TIP3   OH256191   2.570   4.905   3.252 -0.3735 -0.0891 -0.3412
11567TIP3    H156192   2.635   4.909   3.322  0.9759  1.0508 -1.5856
11567TIP3    H256193   2.523   4.824   3.268  1.4384 -1.0414  0.5537
11568TIP3   OH256194   5.784   1.038   1.934  0.5013  0.3918 -0.1936
11568TIP3    H156195   5.851   1.094   1.973  0.4478  0.6323 -0.4463
11568TIP3    H256196   5.829   0.956   1.914  0.5906  0.3596  0.1388
11569TIP3   OH256197   5.508   5.218   0.913 -0.6486 -0.1530 -0.4357
11569TIP3    H156198   5.537   5.201   0.824  0.6824  0.1733 -0.0900
11569TIP3    H256199   5.475   5.133   0.944  0.1588 -0.6171 -0.7995
11570TIP3   OH256200   6.055   0.756  10.843 -0.3098  0.3986  0.1920
11570TIP3    H156201   6.104   0.693  10.789  1.7735  2.8437 -0.9505
11570TIP3    H256202   5.974   0.770  10.794  1.3034  2.1728 -2.2319
11571TIP3   OH256203   6.099   0.018  11.454  0.1625 -0.5210  0.6896
11571TIP3    H156204   6.189   0.031  11.424 -0.5152 -1.0031 -1.7325
11571TIP3    H256205   6.094  -0.076  11.474  0.0757 -0.5991  0.3151
11572TIP3   OH256206   1.833   0.294  12.811  0.1721 -0.6290  0.3562
11572TIP3    H156207   1.825   0.238  12.733  1.0420 -0.3821  0.0781
11572TIP3    H256208   1.884   0.242  12.872  1.6874  0.1510 -0.2075
11573TIP3   OH256209   2.621   2.643  15.321 -0.2916  0.3712 -0.6245
11573TIP3    H156210   2.604   2.665  15.412 -2.5096 -1.2424 -0.5835
11573TIP3    H256211   2.535   2.646  15.279  0.7261  1.5829 -2.8342
11574TIP3   OH256212   0.055   2.814  14.469  0.2366 -0.2331  0.0698
11574TIP3    H156213   0.145   2.817  14.438 -0.4376 -0.0851 -2.0624
11574TIP3    H256214   0.041   2.723  14.495 -0.1336 -1.3698 -3.5654
11575TIP3   OH256215   5.782   1.311   5.541  0.8396  0.7295  0.2563
11575TIP3    H156216   5.734   1.338   5.463  0.1511  1.0916  0.7909
11575TIP3    H256217   5.868   1.352   5.531  1.9529 -1.7849 -1.8396
11576TIP3   OH256218   5.569   0.604  16.986  0.2603  0.2437 -0.6018
11576TIP3    H156219   5.491   0.571  16.941  0.5246 -0.8381 -0.2838
11576TIP3    H256220   5.572   0.554  17.068  1.3609  0.1864 -0.6685
11577TIP3   OH256221   0.723   2.415   2.415 -0.4861  0.5934  0.1448
11577TIP3    H156222   0.736   2.510   2.410 -1.2365  0.6330 -1.7487
11577TIP3    H256223   0.635   2.400   2.381 -0.9590 -0.6910  1.7673
11578TIP3   OH256224   0.830   1.849  14.845 -0.3044 -0.1888  0.1517
11578TIP3    H156225   0.907   1.902  14.864  0.2034 -0.9183  0.1390
11578TIP3    H256226   0.818   1.858  14.750 -0.5629  0.3511  0.2270
11579TIP3   OH256227   5.526   4.194   4.894  0.1923  0.1394  0.3292
11579TIP3    H156228   5.462   4.234   4.835  0.9247  0.8750  0.0086
11579TIP3    H256229   5.478   4.178   4.975 -0.6850 -0.3801 -0.2815
11580TIP3   OH256230   6.250   4.615   2.310 -0.2415  0.5519 -0.1328
11580TIP3    H156231   6.311   4.542   2.321 -1.3844 -0.5281 -0.6708
11580TIP3    H256232   6.239   4.622   2.215 -3.0496 -1.1497 -0.0472
11581TIP3   OH256233   1.281   6.388   5.813 -0.4774 -0.6677 -0.0280
11581TIP3    H156234   1.286   6.448   5.888  2.4247 -1.4178  0.5146
11581TIP3    H256235   1.237   6.310   5.848 -0.4722 -0.4417  0.4992
11582TIP3   OH256236   5.605   3.299  11.708  0.0422 -0.4231  0.5154
11582TIP3    H156237   5.588   3.374  11.652 -1.2727 -1.2660 -0.2720
11582TIP3    H256238   5.660   3.241  11.655  1.9312  0.3902  1.4935
11583TIP3   OH256239   4.087   4.785  14.956 -0.9112 -0.3720  0.6412
11583TIP3    H156240   4.029   4.750  14.888  0.0345  0.9506 -0.9130
11583TIP3    H256241   4.171   4.741  14.940 -0.2531  1.0849 -0.0912
11584TIP3   OH256242   3.079   5.073   0.071 -0.3917 -0.3936  0.1866
11584TIP3    H156243   3.099   5.043  -0.017  0.3502  0.7263 -0.0477
11584TIP3    H256244   2.999   5.125   0.060  0.9593  1.7384 -0.3059
11585TIP3   OH256245   2.885   2.534   1.052 -0.0847  0.0659 -0.1048
11585TIP3    H156246   2.945   2.460   1.055  1.0035  0.9316  0.1741
11585TIP3    H256247   2.871   2.558   1.144 -1.8428 -0.8690 -0.0886
11586TIP3   OH256248   4.004   2.777  15.812 -0.1866 -0.1861  0.7436
11586TIP3    H156249   3.991   2.846  15.877 -0.4454  0.4933 -0.0126
11586TIP3    H256250   4.037   2.823  15.735  0.4425 -1.0253  0.4957
11587TIP3   OH256251   0.825   4.265   4.403  0.8452 -0.8846  0.0275
11587TIP3    H156252   0.736   4.276   4.434  0.5502 -1.6313 -0.5421
11587TIP3    H256253   0.867   4.349   4.421 -0.8984  0.7070 -2.7957
11588TIP3   OH256254   0.993   4.340   0.665 -0.2083 -0.3773 -0.6405
11588TIP3    H156255   1.069   4.326   0.609 -0.4008  1.4826 -1.4342
11588TIP3    H256256   1.024   4.321   0.753  1.6000  1.5634 -0.7740
11589TIP3   OH256257   4.213   0.158   5.185  0.2135 -0.2703  0.5170
11589TIP3    H156258   4.153   0.093   5.219 -1.1686 -0.1444 -1.5179
11589TIP3    H256259   4.273   0.109   5.129 -0.2655  0.0484 -0.2981
11590TIP3   OH256260   6.299   3.417  14.619  0.9392  0.3581  0.0501
11590TIP3    H156261   6.255   3.388  14.539 -0.1189  1.6227  0.1435
11590TIP3    H256262   6.368   3.476  14.588  0.9987  0.2768  0.0276
11591TIP3   OH256263   5.988   3.228   5.634 -0.1435  0.1842  0.1809
11591TIP3    H156264   6.046   3.159   5.666 -1.3220 -0.8064  0.2175
11591TIP3    H256265   5.914   3.182   5.595 -1.5078  1.4109  1.2160
11592TIP3   OH256266   1.938   2.865   5.160  0.8698 -0.5953  0.5299
11592TIP3    H156267   1.884   2.790   5.185  0.5143 -0.5857 -0.1681
11592TIP3    H256268   1.938   2.922   5.236 -1.3880  0.1402  0.0321
11593TIP3   OH256269   0.070   4.690   3.640 -0.8659 -0.3912 -0.3242
11593TIP3    H156270   0.137   4.623   3.655 -0.2347  0.4334  0.6178
11593TIP3    H256271   0.069   4.702   3.545  1.3517  0.5877 -0.2898
11594TIP3   OH256272   1.731   5.180  16.572  0.1169 -0.4782  0.6189
11594TIP3    H156273   1.762   5.092  16.594 -1.8525 -1.1837  0.8145
11594TIP3    H256274   1.764   5.236  16.643 -0.4137 -1.4742  1.6874
11595TIP3   OH256275   4.399   4.702  16.633 -0.4255  0.5867 -0.7397
11595TIP3    H156276   4.481   4.742  16.605  0.3594 -0.4240  0.0415
11595TIP3    H256277   4.419   4.609  16.639 -1.2458  0.4864  0.8037
11596TIP3   OH256278   5.191   1.196  11.305 -0.0984 -0.3546 -0.0574
11596TIP3    H156279   5.238   1.176  11.386 -1.1436 -0.8854  0.4416
11596TIP3    H256280   5.117   1.135  11.305 -0.1374 -0.3333 -1.3978
11597TIP3   OH256281   4.552   2.287   5.525  0.1771 -0.0573  0.1693
11597TIP3    H156282   4.629   2.334   5.492 -0.4986  1.4925  0.7132
11597TIP3    H256283   4.588   2.222   5.586  1.0236  1.0635  0.8941
11598TIP3   OH256284   0.649   6.065   1.820 -0.1117 -0.1652  0.0121
11598TIP3    H156285   0.718   6.041   1.757 -0.4853  0.8179 -0.7971
11598TIP3    H256286   0.649   5.993   1.883 -0.5368 -1.8049 -1.7609
11599TIP3   OH256287   2.549   6.331   6.023  0.1833 -0.9276  0.3369
11599TIP3    H156288   2.619   6.322   5.959  0.0950 -0.6049  0.1877
11599TIP3    H256289   2.588   6.306   6.107  0.8029  0.3296  0.4429
11600TIP3   OH256290   2.127   1.537  15.632  0.0000  0.1871  0.3692
11600TIP3    H156291   2.217   1.534  15.598 -0.2407 -0.6285 -0.2346
11600TIP3    H256292   2.122   1.620  15.679  0.7738  0.7226 -0.4479
11601TIP3   OH256293   6.436   1.699  14.132 -0.0092  0.2606 -0.1681
11601TIP3    H156294   6.477   1.658  14.208 -3.4630 -0.7101  1.3462
11601TIP3    H256295   6.462   1.791  14.138  0.3393  0.0799  1.8164
11602TIP3   OH256296   6.481   0.296  10.818 -0.3467  0.0131  0.8307
11602TIP3    H156297   6.551   0.244  10.781 -0.6470 -0.0917  0.3991
11602TIP3    H256298   6.404   0.240  10.814 -0.6737  0.4818  0.3585
11603TIP3   OH256299   1.335   5.551   2.669 -0.3523  0.0938 -0.3662
11603TIP3    H156300   1.298   5.635   2.642 -0.0592  0.4342  0.2761
11603TIP3    H256301   1.286   5.486   2.619 -0.1932  0.6746 -1.2999
11604TIP3   OH256302   2.594   2.300  14.547  0.1227  0.0374  0.4165
11604TIP3    H156303   2.648   2.265  14.476  1.2584  0.0080  1.2772
11604TIP3    H256304   2.590   2.230  14.612  2.0937  1.2642  1.9773
11605TIP3   OH256305   4.829   5.917  13.518 -0.1520  0.5169 -0.3271
11605TIP3    H156306   4.814   5.974  13.593  1.3754  1.5831 -0.7778
11605TIP3    H256307   4.775   5.954  13.449  0.4376  1.1426 -0.4687
11606TIP3   OH256308   0.241   5.664   2.433 -0.2771 -0.2324 -0.3841
11606TIP3    H156309   0.298   5.730   2.394  0.4192 -0.0120  0.9721
11606TIP3    H256310   0.258   5.585   2.382 -1.0789  0.5691 -1.9921
11607TIP3   OH256311   3.035   6.764   1.196  0.5008  1.1339 -0.2553
11607TIP3    H156312   3.083   6.686   1.222  0.4322  1.4546  0.8699
11607TIP3    H256313   2.944   6.734   1.184  0.4962  1.0223  0.0664
11608TIP3   OH256314   6.610   2.080   2.978 -0.1621 -0.4242 -0.3202
11608TIP3    H156315   6.634   2.016   3.045 -0.1645  1.4245  1.5844
11608TIP3    H256316   6.580   2.156   3.028 -0.3162  1.0172 -2.4652
11609TIP3   OH256317   2.544   1.271   2.059 -0.4486 -0.2982  0.1202
11609TIP3    H156318   2.485   1.345   2.044 -1.2221 -0.9350  0.0043
11609TIP3    H256319   2.518   1.206   1.995 -1.2772 -1.5618  1.6669
11610TIP3   OH256320   4.019   5.474   5.311  0.0506 -0.0461 -0.2272
11610TIP3    H156321   3.966   5.398   5.286 -0.8213  0.3480  0.3846
11610TIP3    H256322   4.104   5.436   5.335 -0.4995 -0.8903  0.4619
11611TIP3   OH256323   3.007   2.772  11.600  0.0726 -0.1273  0.0550
11611TIP3    H156324   3.042   2.858  11.578  0.6636 -0.7787 -1.6692
11611TIP3    H256325   2.912   2.782  11.591  0.1677  0.2132 -0.6256
11612TIP3   OH256326   3.719   4.230  13.948 -0.0926 -0.5187 -0.5700
11612TIP3    H156327   3.759   4.275  14.023  3.1591 -1.6817 -1.4355
11612TIP3    H256328   3.706   4.299  13.883  1.5914 -0.1901 -0.6219
11613TIP3   OH256329   4.182   2.699   2.726  0.1063 -0.3284  0.2825
11613TIP3    H156330   4.275   2.682   2.708  0.0576 -0.5630  0.2461
11613TIP3    H256331   4.169   2.790   2.701 -0.0592 -0.7677 -1.3358
11614TIP3   OH256332   3.924   2.312  14.624  0.4575 -0.1281 -0.1951
11614TIP3    H156333   4.015   2.298  14.598  0.1434  1.8393 -2.7253
11614TIP3    H256334   3.930   2.371  14.700  1.2842 -0.5718  0.1004
11615TIP3   OH256335   3.121   5.367  11.109  0.9458  0.2225 -0.0884
11615TIP3    H156336   3.143   5.403  11.195  1.3370 -1.5401  0.5907
11615TIP3    H256337   3.201   5.378  11.057  0.4312  2.1200 -0.5796
11616TIP3   OH256338   1.474   0.922   0.413 -0.5465  0.4167  0.2490
11616TIP3    H156339   1.558   0.965   0.431  0.4461 -1.3285 -0.0085
11616TIP3    H256340   1.410   0.974   0.461  1.0433  0.1350  2.8860
11617TIP3   OH256341   4.343   1.845  15.344  0.1336  0.3844 -0.2088
11617TIP3    H156342   4.353   1.895  15.425  3.0456 -0.7291  0.2408
11617TIP3    H256343   4.249   1.826  15.338 -0.2923  1.3817  2.3344
11618TIP3   OH256344   3.855   3.418  12.992  0.4073 -0.2486  0.2153
11618TIP3    H156345   3.804   3.490  13.030 -0.9476 -1.3368  0.5354
11618TIP3    H256346   3.881   3.365  13.067  2.2581  0.4074  0.0770
11619TIP3   OH256347   2.295   3.637   6.704 -0.0442  0.0740  0.3700
11619TIP3    H156348   2.353   3.609   6.633  1.2919 -0.6966  1.7027
11619TIP3    H256349   2.208   3.611   6.676  0.3328  0.4999 -1.3276
11620TIP3   OH256350   4.434   5.562  15.243 -0.5312 -0.3517 -0.4146
11620TIP3    H156351   4.462   5.573  15.334 -2.0776  0.2762  0.0192
11620TIP3    H256352   4.465   5.475  15.218  2.0994  0.4147 -0.1412
11621TIP3   OH256353   1.776   5.343   2.550  0.0177 -0.3834 -0.0609
11621TIP3    H156354   1.743   5.253   2.544 -0.8473 -0.0534 -0.3600
11621TIP3    H256355   1.708   5.390   2.599  0.2684  0.2008 -0.2692
11622TIP3   OH256356   3.735   2.168   1.798 -0.5188  0.0597  0.3464
11622TIP3    H156357   3.703   2.142   1.711  1.5240 -1.0872 -0.1105
11622TIP3    H256358   3.816   2.119   1.809  1.4842  3.2871  1.1496
11623TIP3   OH256359   3.853   4.622  16.945 -0.4830  0.0204  0.5797
11623TIP3    H156360   3.947   4.612  16.959 -0.3540 -0.5993 -0.5708
11623TIP3    H256361   3.842   4.712  16.915  0.0214 -0.4294 -1.1009
11624TIP3   OH256362   5.294   0.532   1.754  0.2325  0.0671  0.1444
11624TIP3    H156363   5.207   0.511   1.719  0.6813 -0.0124 -0.9593
11624TIP3    H256364   5.277   0.598   1.822 -1.0261 -2.3479  2.3643
11625TIP3   OH256365   0.884   6.247  16.465 -0.0677 -0.3610  0.3474
11625TIP3    H156366   0.794   6.241  16.496 -0.0682 -0.7301  0.2861
11625TIP3    H256367   0.910   6.156  16.451  1.0066 -0.4172  2.3700
11626TIP3   OH256368   2.032   4.861  15.716  0.1458  0.2209  0.0075
11626TIP3    H156369   2.082   4.797  15.666 -0.6910 -0.7008  0.3181
11626TIP3    H256370   2.097   4.920  15.753  1.1351 -1.7904  1.6157
11627TIP3   OH256371   5.827   6.497  16.619 -0.1636 -0.2022  0.2482
11627TIP3    H156372   5.860   6.526  16.534  0.5723 -0.5152  0.4130
11627TIP3    H256373   5.754   6.556  16.638 -0.5610 -0.3441 -0.7523
11628TIP3   OH256374   6.516   0.920  15.466 -0.2856  0.3254  0.2456
11628TIP3    H156375   6.469   0.923  15.549  0.0532  0.3377  0.4383
11628TIP3    H256376   6.447   0.926  15.400 -0.4939  1.2401  0.5265
11629TIP3   OH256377   1.869   0.778   4.498 -0.1315 -0.2168  0.0810
11629TIP3    H156378   1.847   0.863   4.537 -1.0605 -0.3079 -0.2194
11629TIP3    H256379   1.947   0.795   4.446  0.0227  0.3279  0.4888
11630TIP3   OH256380   2.652   1.916  16.843 -0.8898 -0.1963  0.3193
11630TIP3    H156381   2.616   2.005  16.838 -2.3918 -0.5968  2.4927
11630TIP3    H256382   2.578   1.862  16.872  0.4189 -1.8336  0.7548
11631TIP3   OH256383   5.726   0.802   2.365  0.4827  0.8187 -0.5054
11631TIP3    H156384   5.658   0.735   2.359  2.1276 -0.8353 -2.0182
11631TIP3    H256385   5.786   0.769   2.432  0.4161  1.6829 -0.0081
11632TIP3   OH256386   1.368   4.368   3.065  0.0809 -0.5224 -0.0074
11632TIP3    H156387   1.387   4.327   3.150 -0.5390  0.7404  0.7661
11632TIP3    H256388   1.444   4.425   3.050  1.0216 -1.9939 -1.1605
11633TIP3   OH256389   5.965   4.758   0.843  0.1923 -0.1003  0.1968
11633TIP3    H156390   5.936   4.713   0.923 -0.2854  2.2879  1.4780
11633TIP3    H256391   5.884   4.791   0.804  0.5143 -0.4341 -0.7599
11634TIP3   OH256392   1.504   0.713   0.636  0.4486 -0.4108  0.5126
11634TIP3    H156393   1.522   0.620   0.621 -0.5942 -0.6013  0.3493
11634TIP3    H256394   1.583   0.758   0.607 -0.0025 -1.0511 -1.9144
11635TIP3   OH256395   1.348   4.115  12.404 -0.5028  0.4369 -0.3894
11635TIP3    H156396   1.322   4.207  12.414 -0.9013  0.2976 -0.1252
11635TIP3    H256397   1.427   4.107  12.456 -0.3826  0.6672 -0.5329
11636TIP3   OH256398   3.590   0.760   1.088 -0.1641 -0.9515  0.2502
11636TIP3    H156399   3.557   0.679   1.050  0.0837 -0.9525  0.0331
11636TIP3    H256400   3.512   0.807   1.116 -0.2729 -1.7979  1.4828
11637TIP3   OH256401   4.114   3.151  11.234 -0.0168  0.3631  0.7585
11637TIP3    H156402   4.193   3.101  11.213 -0.0653  0.3299  0.6528
11637TIP3    H256403   4.048   3.119  11.172  0.0555  0.8267  0.4331
11638TIP3   OH256404   5.586   2.881   4.853 -0.2972  0.1771  0.0925
11638TIP3    H156405   5.529   2.807   4.873 -0.2394  0.0325 -0.2843
11638TIP3    H256406   5.663   2.867   4.909 -0.4822  0.1929  0.3518
11639TIP3   OH256407   2.934   6.288   2.889 -0.3651  0.1288 -0.0606
11639TIP3    H156408   2.916   6.206   2.935 -0.2316  1.1163  1.8347
11639TIP3    H256409   2.994   6.263   2.818 -1.7675 -1.6795 -0.6784
11640TIP3   OH256410   3.095   3.376   2.897  0.1946 -0.8099  0.2801
11640TIP3    H156411   3.057   3.422   2.972  0.9973 -0.7071  0.6443
11640TIP3    H256412   3.188   3.366   2.920  0.3014 -1.4402 -0.3761
11641TIP3   OH256413   1.013   1.582   0.382 -1.0418  0.0422  0.4882
11641TIP3    H156414   0.937   1.635   0.355 -0.8660  0.6277  1.1291
11641TIP3    H256415   1.086   1.644   0.385 -0.5674 -0.4868  0.0411
11642TIP3   OH256416   0.710   4.065  16.451 -0.2990  0.2106  0.3222
11642TIP3    H156417   0.705   4.152  16.491  0.3219 -0.8995  3.0307
11642TIP3    H256418   0.701   4.081  16.357  0.2078  3.2189  0.7029
11643TIP3   OH256419   6.575   2.234   0.536 -0.6117 -0.3822  0.4357
11643TIP3    H156420   6.586   2.318   0.492  0.9540 -0.7543  0.0586
11643TIP3    H256421   6.480   2.220   0.536 -1.0151  1.8290  1.4200
11644TIP3   OH256422   2.561   0.973   0.349  0.3065 -0.7027  0.2436
11644TIP3    H156423   2.468   0.994   0.359  0.3176 -0.8040  0.5792
11644TIP3    H256424   2.580   0.990   0.257  0.0658 -0.2353  0.2788
11645TIP3   OH256425   2.511   3.786  15.122  0.4469  0.0507  0.0843
11645TIP3    H156426   2.490   3.759  15.211 -2.3533 -0.6046 -0.6875
11645TIP3    H256427   2.583   3.848  15.133 -0.2254  0.5020  2.8566
11646TIP3   OH256428   0.045   4.021   5.302  0.3891  0.7724  0.0717
11646TIP3    H156429   0.090   4.005   5.386  0.4871 -1.2214 -0.2962
11646TIP3    H256430   0.110   4.065   5.248  1.9012 -1.6842 -0.3013
11647TIP3   OH256431   0.317   0.635   3.191 -0.3997 -0.0675  0.0540
11647TIP3    H156432   0.242   0.582   3.163 -0.5911  0.1035  0.2410
11647TIP3    H256433   0.353   0.587   3.266  0.6331 -0.9778 -1.0075
11648TIP3   OH256434   4.904   0.246  15.890  0.3673  0.7517  0.1807
11648TIP3    H156435   4.880   0.200  15.809  3.7216 -0.1781 -0.4432
11648TIP3    H256436   4.923   0.336  15.861  0.1823  0.8084  0.2291
11649TIP3   OH256437   1.731   6.387  14.973  0.7741 -0.6858 -0.4499
11649TIP3    H156438   1.696   6.351  15.055 -0.5946  0.1115 -0.6619
11649TIP3    H256439   1.664   6.367  14.908 -0.2417  2.4841 -0.5197
11650TIP3   OH256440   2.096   1.072  10.460 -0.5330 -0.0720 -0.4798
11650TIP3    H156441   2.028   1.121  10.506  0.0587  0.1770  0.1414
11650TIP3    H256442   2.066   0.981  10.465 -0.0382 -0.1780  1.2298
11651TIP3   OH256443   4.125   6.045   2.224 -0.0407 -0.5380 -0.0551
11651TIP3    H156444   4.146   5.952   2.232  2.9709 -0.0861 -1.5492
11651TIP3    H256445   4.196   6.090   2.270 -0.3097  1.0673 -1.1230
11652TIP3   OH256446   1.631   4.281   3.144  0.0125  0.4602 -0.0408
11652TIP3    H156447   1.606   4.341   3.074 -1.1615  1.0646  0.8545
11652TIP3    H256448   1.717   4.312   3.172 -0.3805  1.4837  0.1077
11653TIP3   OH256449   1.893   3.760   6.482 -0.0851  0.3941  0.1682
11653TIP3    H156450   1.952   3.741   6.556 -0.9669 -0.4539  0.6761
11653TIP3    H256451   1.840   3.681   6.473  0.4829  0.2033 -1.8614
11654TIP3   OH256452   2.014   3.103   1.833 -0.0871 -0.7023 -0.2728
11654TIP3    H156453   1.993   3.178   1.778  0.5533  0.9514  1.6091
11654TIP3    H256454   2.083   3.056   1.784 -0.0070  0.3192 -1.1732
11655TIP3   OH256455   4.594   6.166   1.905 -0.5046 -0.5873  0.1527
11655TIP3    H156456   4.599   6.101   1.975  1.4185 -0.5858  0.0905
11655TIP3    H256457   4.605   6.114   1.824  0.0593 -0.3081  0.0445
11656TIP3   OH256458   0.250   3.598   3.178 -0.2171  0.3283  0.1151
11656TIP3    H156459   0.280   3.507   3.180 -0.5573  0.2269  1.9334
11656TIP3    H256460   0.238   3.622   3.269 -0.8557  1.9823 -0.3589
11657TIP3   OH256461   3.816   4.573  14.932  0.4926  0.4692 -0.4292
11657TIP3    H156462   3.859   4.610  14.855  1.1941  0.6648  0.0512
11657TIP3    H256463   3.883   4.572  15.000  0.5044 -1.6379 -0.3883
11658TIP3   OH256464   3.077   3.313   3.290 -0.1189  0.0354  0.0902
11658TIP3    H156465   3.027   3.233   3.273 -1.4498  0.7151  0.6461
11658TIP3    H256466   3.157   3.303   3.238 -1.1621 -0.7739 -1.4392
11659TIP3   OH256467   5.388   2.976   3.507 -0.6081  0.0972  0.0093
11659TIP3    H156468   5.327   2.903   3.519 -0.3050  0.2179  3.2807
11659TIP3    H256469   5.342   3.036   3.447 -2.5547 -1.0213  0.2920
11660TIP3   OH256470   0.710   1.165   5.847  0.1223 -0.1956 -0.6654
11660TIP3    H156471   0.648   1.125   5.786  0.1028 -0.5393 -0.4255
11660TIP3    H256472   0.773   1.095   5.864 -0.8896 -0.7162  1.1398
11661TIP3   OH256473   0.248   0.952  16.463 -0.0623 -0.2611  0.6059
11661TIP3    H156474   0.265   0.858  16.456 -2.1488 -0.6559  0.0792
11661TIP3    H256475   0.216   0.964  16.552  0.2768 -0.0400  0.6974
11662TIP3   OH256476   4.665   5.054  13.372  0.2538  0.5048  0.3831
11662TIP3    H156477   4.696   5.059  13.282 -2.5708 -3.1493 -1.0407
11662TIP3    H256478   4.677   4.963  13.397  0.6050  1.3249  3.6437
11663TIP3   OH256479   2.782   5.515  16.303 -0.3062  0.4964  0.4062
11663TIP3    H156480   2.693   5.502  16.268 -0.3648 -0.6740  0.9527
11663TIP3    H256481   2.780   5.473  16.389  1.6343 -2.3911 -0.8157
11664TIP3   OH256482   5.857   4.040   2.661  0.2459  0.0836  0.1413
11664TIP3    H156483   5.941   4.038   2.615  0.2979 -0.2918  0.2464
11664TIP3    H256484   5.843   3.950   2.689  0.0542  0.2453  0.5762
11665TIP3   OH256485   1.422   0.947  11.593 -0.0411  0.4591 -0.0106
11665TIP3    H156486   1.378   1.018  11.639 -2.3660 -1.2038  0.4763
11665TIP3    H256487   1.403   0.963  11.500  0.7255  1.2444 -0.0523
11666TIP3   OH256488   1.832   3.819  14.792  0.5312  0.4759  0.0074
11666TIP3    H156489   1.741   3.838  14.773  0.3189 -0.7478 -0.2581
11666TIP3    H256490   1.881   3.890  14.750 -0.2707  1.0037 -0.0563
11667TIP3   OH256491   2.148   2.724   1.518 -0.1722 -0.7066  0.0138
11667TIP3    H156492   2.202   2.646   1.525 -0.2570 -0.7478  0.2245
11667TIP3    H256493   2.079   2.701   1.456  1.3568  0.1035 -2.0813
11668TIP3   OH256494   0.680   6.584   1.011 -0.2170  0.1509  0.2679
11668TIP3    H156495   0.757   6.576   1.068 -1.0559 -0.2684  1.3654
11668TIP3    H256496   0.617   6.522   1.047 -0.9666  0.2705 -0.8107
11669TIP3   OH256497   6.397   5.179   5.224 -0.2121  0.2777  0.6598
11669TIP3    H156498   6.353   5.249   5.272 -1.4137 -0.8153  1.1911
11669TIP3    H256499   6.362   5.098   5.261  0.4631 -0.6099 -0.5700
11670TIP3   OH256500   0.723   5.547  15.826 -0.1044 -0.4658 -0.2541
11670TIP3    H156501   0.813   5.566  15.852 -0.3340  0.3002 -0.0049
11670TIP3    H256502   0.693   5.482  15.889  0.7345 -1.8141 -1.1978
11671TIP3   OH256503   2.018   6.466   2.600  0.0591  0.5352 -0.1360
11671TIP3    H156504   2.032   6.541   2.657 -1.9446  1.6614 -0.9926
11671TIP3    H256505   1.928   6.438   2.618 -0.7225  1.0434 -2.7351
11672TIP3   OH256506   4.081   6.091   3.055 -0.3246 -0.1062  0.5253
11672TIP3    H156507   4.059   6.174   3.013 -2.0791 -0.7209  0.1415
11672TIP3    H256508   4.094   6.030   2.982  1.1578 -0.1533  0.7972
11673TIP3   OH256509   6.605   1.699  13.188  0.5869  0.2400  0.1212
11673TIP3    H156510   6.581   1.607  13.178  1.3243 -0.0002  0.4662
11673TIP3    H256511   6.545   1.746  13.131 -0.5323 -0.3485  0.7710
11674TIP3   OH256512   4.835   1.977  15.235 -0.3706 -0.4248  0.5100
11674TIP3    H156513   4.772   1.904  15.234 -1.7259  0.5501  3.2573
11674TIP3    H256514   4.887   1.961  15.314  0.5220  0.6138  0.1404
11675TIP3   OH256515   0.261   5.907  14.472  0.7401 -0.2362 -0.4330
11675TIP3    H156516   0.317   5.974  14.433 -0.7883  0.4205 -1.6025
11675TIP3    H256517   0.228   5.947  14.552  1.1471 -0.2661 -0.2430
11676TIP3   OH256518   4.355   5.835   1.287  0.0445 -0.5104 -0.1623
11676TIP3    H156519   4.369   5.881   1.204  1.3686  0.5136  0.5969
11676TIP3    H256520   4.296   5.763   1.264 -0.3857  0.3040 -1.7984
11677TIP3   OH256521   6.336   0.649   4.041  0.7173  0.0229  0.1592
11677TIP3    H156522   6.354   0.670   4.132 -1.9605  0.7147  0.6149
11677TIP3    H256523   6.381   0.717   3.990  0.2499  1.0485  1.0989
11678TIP3   OH256524   2.037   6.368  10.939 -0.3954 -0.0369 -0.2090
11678TIP3    H156525   2.085   6.285  10.944 -1.1050 -0.4739 -0.4752
11678TIP3    H256526   2.097   6.427  10.894  1.3908  0.5470  2.6716
11679TIP3   OH256527   5.805   0.806  10.731  0.2504 -0.4726 -0.2806
11679TIP3    H156528   5.841   0.865  10.665  0.9734 -0.2934  0.2588
11679TIP3    H256529   5.753   0.862  10.789  2.1647 -0.0463  1.1268
11680TIP3   OH256530   2.125   0.390  15.741  0.1049 -0.2014 -0.9796
11680TIP3    H156531   2.189   0.457  15.767  0.1694 -0.6254  0.0219
11680TIP3    H256532   2.041   0.434  15.750  0.1616 -0.1688 -0.5424
11681TIP3   OH256533   4.781   6.363  11.900 -0.2291  0.7679  0.4660
11681TIP3    H156534   4.708   6.369  11.961 -0.1206  0.3001  0.6480
11681TIP3    H256535   4.773   6.275  11.862  0.4551  0.5705  0.7647
11682TIP3   OH256536   5.549   4.098   0.647 -0.2585  0.1545 -0.2754
11682TIP3    H156537   5.628   4.086   0.699 -0.4276  0.3561  0.0256
11682TIP3    H256538   5.570   4.172   0.590 -0.1370  0.0414 -0.3809
11683TIP3   OH256539   6.552   5.365  10.518 -0.2725  0.0851  0.3987
11683TIP3    H156540   6.494   5.417  10.463 -0.0942 -0.4350 -0.3024
11683TIP3    H256541   6.640   5.391  10.491 -0.1844 -0.1409  0.4661
11684TIP3   OH256542   4.809   2.427  14.961  0.0707 -0.3171 -0.0226
11684TIP3    H156543   4.782   2.491  14.895  0.0827  2.5921  2.5773
11684TIP3    H256544   4.844   2.354  14.910 -1.6658  0.8826 -3.2351
11685TIP3   OH256545   1.829   4.228  13.741  0.0777 -0.0719 -0.9051
11685TIP3    H156546   1.756   4.185  13.697 -0.5685 -0.0432  0.1085
11685TIP3    H256547   1.907   4.184  13.706 -0.3579  0.3530 -2.5033
11686TIP3   OH256548   1.527   0.556   2.844  0.0915  0.5328  0.6524
11686TIP3    H156549   1.598   0.599   2.893  1.0892 -0.3563  0.0142
11686TIP3    H256550   1.447   0.598   2.877  0.9697  2.3955  0.5434
11687TIP3   OH256551   5.220   0.552   3.094 -0.3680  0.2238 -0.2454
11687TIP3    H156552   5.266   0.477   3.057 -1.1578  0.3338 -1.5434
11687TIP3    H256553   5.264   0.570   3.177 -0.0541 -1.5603  0.0128
11688TIP3   OH256554   1.085   4.989  16.631  0.6463 -0.2340 -0.5789
11688TIP3    H156555   1.004   5.029  16.660  0.8040 -1.3860  1.6875
11688TIP3    H256556   1.080   4.989  16.536 -1.8627 -0.0233 -0.4892
11689TIP3   OH256557   4.812   3.475  16.624 -0.4480  0.3947 -0.5926
11689TIP3    H156558   4.758   3.415  16.572 -0.4349  0.1576 -0.3335
11689TIP3    H256559   4.772   3.475  16.711 -0.2643  0.5235 -0.5075
11690TIP3   OH256560   2.213   0.670   0.513  0.3613 -0.0272 -0.1585
11690TIP3    H156561   2.305   0.686   0.493  0.4224  2.1050  1.4134
11690TIP3    H256562   2.214   0.626   0.599 -0.0474  1.9376  0.9209
11691TIP3   OH256563   2.566   6.107  17.027 -0.8003  0.1809 -0.6307
11691TIP3    H156564   2.596   6.100  17.118 -0.7696 -2.0155 -0.7609
11691TIP3    H256565   2.470   6.100  17.033 -0.6946 -2.9291 -0.8843
11692TIP3   OH256566   3.332   4.187   4.471  0.1821 -0.1547 -0.4623
11692TIP3    H156567   3.360   4.274   4.443  1.1515 -0.5869 -0.8978
11692TIP3    H256568   3.245   4.201   4.509  1.0506  1.2897  1.1441
11693TIP3   OH256569   6.043   5.806   1.723  0.1321  0.3656 -0.0363
11693TIP3    H156570   5.994   5.724   1.730  0.5382  0.0802 -0.5104
11693TIP3    H256571   6.116   5.796   1.784 -0.3979  0.8085  0.7031
11694TIP3   OH256572   3.049   3.078  12.555 -0.0350  0.2273  0.1469
11694TIP3    H156573   3.105   3.091  12.632 -0.7242  0.9279  0.5447
11694TIP3    H256574   2.980   3.020  12.586 -3.4337  4.5516  1.7955
11695TIP3   OH256575   2.111   5.842  12.672  0.2202  0.0032 -0.0467
11695TIP3    H156576   2.086   5.933  12.655 -0.5336 -0.3317 -0.8316
11695TIP3    H256577   2.047   5.811  12.736  1.3745  0.4390  1.3740
11696TIP3   OH256578   6.274   0.490  14.462 -0.1289 -0.0325 -0.4929
11696TIP3    H156579   6.189   0.470  14.501  0.1496 -0.0569  0.1096
11696TIP3    H256580   6.279   0.585  14.461 -0.5167 -0.0097 -1.3173
11697TIP3   OH256581   3.995   5.638   2.327 -0.6143 -0.0839  0.2949
11697TIP3    H156582   4.011   5.556   2.374 -0.0227  0.2480  0.6965
11697TIP3    H256583   4.081   5.679   2.320 -0.9274  0.5986  0.2896
11698TIP3   OH256584   4.131   1.244   4.979 -0.0638 -0.1900 -0.2147
11698TIP3    H156585   4.094   1.160   4.951  1.9503 -0.4645 -2.3985
11698TIP3    H256586   4.217   1.222   5.014 -0.4604  0.7705  1.4864
11699TIP3   OH256587   0.392   4.741   1.804  0.8482 -0.4169  0.8933
11699TIP3    H156588   0.433   4.658   1.782  1.1061  0.2054 -1.2430
11699TIP3    H256589   0.380   4.785   1.720  2.7246  2.6483  2.0235
11700TIP3   OH256590   0.140   4.537  17.173  0.4300  0.0506 -0.6579
11700TIP3    H156591   0.085   4.553  17.097  1.4307 -0.9356 -1.6354
11700TIP3    H256592   0.200   4.611  17.176 -1.4524  1.6013  0.9519
11701TIP3   OH256593   0.010   5.134   2.699  0.7280  0.1959  0.1843
11701TIP3    H156594   0.034   5.101   2.786 -0.2566 -0.8075  0.0940
11701TIP3    H256595  -0.064   5.079   2.672  0.0513  1.4686 -0.6494
11702TIP3   OH256596   6.505   0.846  17.108 -0.7737 -1.1255  0.0027
11702TIP3    H156597   6.580   0.885  17.063 -0.4906 -0.0125  1.3550
11702TIP3    H256598   6.521   0.752  17.104  1.3846 -0.8867  1.2888
11703TIP3   OH256599   4.800   4.204  12.485  1.0180 -0.3008 -0.1451
11703TIP3    H156600   4.747   4.159  12.551 -0.3833  0.3343 -0.8220
11703TIP3    H256601   4.877   4.234  12.534  0.9633 -1.5641  0.7685
11704TIP3   OH256602   6.354   6.095  12.920  0.2645 -0.2722 -0.3024
11704TIP3    H156603   6.339   6.051  13.004  0.1599  0.2479 -0.0434
11704TIP3    H256604   6.326   6.185  12.935  2.7564  0.5273 -0.0533
11705TIP3   OH256605   0.661   6.574   1.409 -0.2128  0.3274  0.5161
11705TIP3    H156606   0.644   6.485   1.380  0.6902  0.8079 -1.6114
11705TIP3    H256607   0.735   6.566   1.469  1.0615 -0.1731 -1.0837
11706TIP3   OH256608   3.876   4.327  17.164 -0.2662  0.6834 -0.8368
11706TIP3    H156609   3.849   4.406  17.210  0.1445  0.2730  0.1354
11706TIP3    H256610   3.919   4.274  17.231 -0.6051 -0.3997 -1.4559
11707TIP3   OH256611   0.351   5.431   2.634 -0.2229 -0.4986 -0.2253
11707TIP3    H156612   0.338   5.515   2.590  0.0145 -1.3945 -2.0777
11707TIP3    H256613   0.324   5.365   2.570 -1.1233 -1.8399  1.4578
11708TIP3   OH256614   2.320   5.279   0.272 -0.4009 -0.2221 -0.2350
11708TIP3    H156615   2.335   5.274   0.366  1.3100  1.1396 -0.3853
11708TIP3    H256616   2.407   5.286   0.234 -1.1026  0.3949 -1.8339
11709TIP3   OH256617   4.664   4.121   4.854 -0.4734 -0.2006  0.1330
11709TIP3    H156618   4.732   4.120   4.921 -0.1434 -2.0936 -0.1567
11709TIP3    H256619   4.583   4.140   4.901 -0.3788 -2.3330  1.2993
11710TIP3   OH256620   5.418   3.315   2.916  0.8574 -0.2158  0.0161
11710TIP3    H156621   5.440   3.365   2.837  1.4555  1.0642  0.9640
11710TIP3    H256622   5.384   3.380   2.977 -0.1133 -1.2774  0.6343
11711TIP3   OH256623   2.079   2.365   0.515 -0.4714 -0.0012  0.0979
11711TIP3    H156624   2.154   2.328   0.468 -0.0489 -0.2859  0.9862
11711TIP3    H256625   2.118   2.424   0.580 -0.9846 -0.5446  0.9124
11712TIP3   OH256626   3.178   1.081  16.000  0.2768  0.3167 -0.3334
11712TIP3    H156627   3.136   1.112  15.920  1.2868 -0.3995 -1.1759
11712TIP3    H256628   3.106   1.063  16.060 -0.6138 -0.5750 -1.6150
11713TIP3   OH256629   2.379   0.390  16.782 -0.5737  0.1343  0.0636
11713TIP3    H156630   2.424   0.416  16.701  0.7401  0.5913  0.8905
11713TIP3    H256631   2.315   0.324  16.755 -1.0449  1.1832 -1.5143
11714TIP3   OH256632   1.685   3.144  12.155  0.3533 -0.1545  0.4862
11714TIP3    H156633   1.612   3.116  12.099  1.3966  1.3442 -1.7634
11714TIP3    H256634   1.763   3.109  12.112  1.1652  0.6828  1.2366
11715TIP3   OH256635   4.600   5.214   4.289  0.4681  0.2774 -0.8271
11715TIP3    H156636   4.668   5.162   4.247 -0.7164 -2.3696  0.3043
11715TIP3    H256637   4.518   5.170   4.265 -0.5355  1.1179  0.8951
11716TIP3   OH256638   0.394   5.889   5.244 -0.1560 -0.0768 -0.9424
11716TIP3    H156639   0.416   5.852   5.158 -0.4986 -2.7227  0.0089
11716TIP3    H256640   0.475   5.931   5.273  0.2440  0.0493 -2.1577
11717TIP3   OH256641   0.206   1.709   3.516 -0.1525  1.2238  0.1079
11717TIP3    H156642   0.295   1.724   3.548  0.1552  0.2607 -0.2663
11717TIP3    H256643   0.159   1.673   3.591  0.0556  0.7704  0.0260
11718TIP3   OH256644   5.380   0.021   0.917  0.0197  0.6717 -0.1595
11718TIP3    H156645   5.375   0.076   0.839  1.0696 -1.0409 -1.5241
11718TIP3    H256646   5.464   0.043   0.957 -0.0671  0.8439 -0.0708
11719TIP3   OH256647   3.545   1.409   2.729  0.7064 -0.8597 -0.4673
11719TIP3    H156648   3.583   1.332   2.689  2.2852 -1.4081  1.8772
11719TIP3    H256649   3.583   1.483   2.681  1.7330 -1.5024 -0.6643
11720TIP3   OH256650   3.722   0.585   5.333  0.1761 -0.3013 -0.1483
11720TIP3    H156651   3.762   0.664   5.368 -0.9455 -0.8830  2.7891
11720TIP3    H256652   3.786   0.516   5.349  0.5935 -0.2382 -1.4470
11721TIP3   OH256653   3.360   6.032   3.738  0.4327  0.5758  0.5630
11721TIP3    H156654   3.297   6.040   3.809 -1.9398 -0.1113 -1.3526
11721TIP3    H256655   3.365   5.938   3.720 -1.2836  0.8758 -1.9946
11722TIP3   OH256656   1.202   0.339   6.836 -0.1018  0.0507 -0.0335
11722TIP3    H156657   1.287   0.379   6.852  0.5697 -0.3105 -2.3214
11722TIP3    H256658   1.220   0.245   6.831 -0.5467 -0.0031 -0.8802
11723TIP3   OH256659   3.356   3.761   4.450  0.2429  0.2003 -0.1615
11723TIP3    H156660   3.442   3.800   4.429  0.1666  1.0091  0.9246
11723TIP3    H256661   3.370   3.715   4.532 -0.9869  2.7334  1.5772
11724TIP3   OH256662   4.737   2.780  12.396  0.0106  0.2497 -0.0780
11724TIP3    H156663   4.754   2.863  12.351 -0.4935  0.8967  0.8840
11724TIP3    H256664   4.822   2.736  12.397  0.3963  0.9686 -0.1946
11725TIP3   OH256665   1.259   3.923  12.928  0.2335  0.1038  0.8200
11725TIP3    H156666   1.303   4.007  12.916  0.4246  0.1792  1.9576
11725TIP3    H256667   1.320   3.859  12.891 -0.8091  0.6023 -1.9652
11726TIP3   OH256668   2.899   3.375   0.410 -0.4184 -0.4209 -0.5894
11726TIP3    H156669   2.933   3.431   0.340 -0.1657 -0.2612 -0.3401
11726TIP3    H256670   2.978   3.341   0.454 -0.5322  1.7756  1.4729
11727TIP3   OH256671   2.895   0.791  14.649 -0.1366  0.3750 -0.1381
11727TIP3    H156672   2.971   0.818  14.701 -1.1916  0.9300  1.1673
11727TIP3    H256673   2.933   0.750  14.571  1.4968  0.7055  0.4423
11728TIP3   OH256674   4.930   6.367  11.550 -0.3772 -0.2845 -0.3050
11728TIP3    H156675   4.957   6.422  11.624 -1.2672 -0.0256 -0.1658
11728TIP3    H256676   4.869   6.420  11.501 -3.2859 -1.9403  1.2304
11729TIP3   OH256677   1.052   6.058  16.949  0.3231 -0.3859  0.8504
11729TIP3    H156678   1.139   6.023  16.968  0.2166 -1.2044 -0.0492
11729TIP3    H256679   0.995   6.022  17.017  0.6079 -0.1871  1.1953
11730TIP3   OH256680   1.446   0.845  13.534  0.1617  0.3655  0.4652
11730TIP3    H156681   1.422   0.907  13.465  1.5173  0.3300 -0.0500
11730TIP3    H256682   1.366   0.794  13.549 -0.2736  0.6681 -0.7605
11731TIP3   OH256683   0.042   2.417   0.058  0.1421  0.4917  0.0682
11731TIP3    H156684   0.056   2.510   0.041 -0.0481  0.9510  2.1821
11731TIP3    H256685  -0.053   2.406   0.057  0.1457  0.4270  0.2728
11732TIP3   OH256686   0.374   3.831  12.644  0.6924 -0.3037  0.1283
11732TIP3    H156687   0.319   3.781  12.585  0.2225 -1.9880  1.9052
11732TIP3    H256688   0.460   3.834  12.600  0.0823 -0.5249 -1.1239
11733TIP3   OH256689   5.931   0.847   4.889  0.2772 -0.1973 -0.5052
11733TIP3    H156690   6.003   0.798   4.929  0.1019  0.0504  0.1152
11733TIP3    H256691   5.975   0.909   4.830  0.5422 -0.4316 -0.5591
11734TIP3   OH256692   3.417   0.144  13.483  0.3337  0.1063 -0.4972
11734TIP3    H156693   3.443   0.111  13.397  1.8982  0.0458 -0.0270
11734TIP3    H256694   3.451   0.079  13.545  0.3286  0.7919  0.2368
11735TIP3   OH256695   0.699   3.909  14.792 -0.2225 -0.2174  0.3315
11735TIP3    H156696   0.713   3.989  14.741 -0.2323  0.4141  1.2987
11735TIP3    H256697   0.605   3.892  14.783 -0.1888 -0.2336 -0.0288
11736TIP3   OH256698   2.098   6.242   5.714 -0.1549 -0.6119 -0.1846
11736TIP3    H156699   2.016   6.197   5.736 -0.4326 -0.1211 -0.1758
11736TIP3    H256700   2.103   6.237   5.618 -0.4313 -0.2616 -0.2226
11737TIP3   OH256701   6.794   5.740   0.984 -0.1636  0.1535  0.0710
11737TIP3    H156702   6.762   5.702   1.066  2.7062  0.5144  1.4633
11737TIP3    H256703   6.742   5.819   0.972 -1.7861 -0.7783  0.5557
11738TIP3   OH256704   2.387   5.282  11.647 -0.2764 -0.3707 -0.1488
11738TIP3    H156705   2.370   5.273  11.553  0.1071 -0.8593 -0.1758
11738TIP3    H256706   2.465   5.229  11.662  0.2759  0.5416  0.2630
11739TIP3   OH256707   1.875   5.673   3.072  0.1187  0.5276  0.0042
11739TIP3    H156708   1.933   5.737   3.114 -0.2707  0.1717  1.1028
11739TIP3    H256709   1.788   5.691   3.108  0.2308 -1.5762  1.5525
11740TIP3   OH256710   4.703   0.504   2.341  0.0527  0.2946  0.1929
11740TIP3    H156711   4.672   0.536   2.426  0.6910 -0.3357  0.6729
11740TIP3    H256712   4.795   0.527   2.339  0.1344 -0.0562 -0.1647
11741TIP3   OH256713   3.736   3.488  13.709  0.3644 -0.4125  0.0575
11741TIP3    H156714   3.746   3.393  13.706  1.4004 -0.2901 -1.1401
11741TIP3    H256715   3.778   3.514  13.791 -2.6792 -1.2179  2.0261
11742TIP3   OH256716   3.979   6.329   0.073  0.2756  0.5226  0.0734
11742TIP3    H156717   4.016   6.373   0.150 -0.9931  0.7098  0.6015
11742TIP3    H256718   4.050   6.329   0.009  0.1935  3.9184 -0.1892
11743TIP3   OH256719   0.772   0.264   2.894  0.5930  0.2165  0.4787
11743TIP3    H156720   0.734   0.336   2.944  1.8337 -0.7771  3.0254
11743TIP3    H256721   0.856   0.298   2.863  0.1139  0.6095 -0.4533
11744TIP3   OH256722   6.574   1.939   2.266  0.6394 -0.4839  0.1944
11744TIP3    H156723   6.543   1.878   2.333 -1.2340  0.2393  0.0547
11744TIP3    H256724   6.595   2.019   2.314  0.1184 -0.2513  0.0520
11745TIP3   OH256725   0.453   5.360   1.993 -0.3698 -0.3349 -0.2032
11745TIP3    H156726   0.548   5.355   1.981 -0.4503  0.6273 -1.5260
11745TIP3    H256727   0.422   5.270   1.986  0.3139 -0.5061 -1.1351
11746TIP3   OH256728   3.237   5.231   4.302 -0.2735 -0.1991  0.2180
11746TIP3    H156729   3.302   5.161   4.302 -0.5012 -0.4270 -0.9242
11746TIP3    H256730   3.219   5.248   4.209 -1.2650  0.3962  0.4978
11747TIP3   OH256731   2.346   4.360  11.839  0.0654 -0.3483 -0.1155
11747TIP3    H156732   2.321   4.341  11.749 -0.6156 -0.6876  0.1381
11747TIP3    H256733   2.264   4.378  11.884  0.2167 -1.7968  0.8197
11748TIP3   OH256734   2.908   2.514  15.319 -0.4840 -0.3824  0.3959
11748TIP3    H156735   2.959   2.508  15.238 -1.0067  0.4762 -0.0127
11748TIP3    H256736   2.823   2.548  15.291 -0.1325  1.5675  1.4912
11749TIP3   OH256737   4.255   6.127   4.158 -0.4132  0.2190  0.2182
11749TIP3    H156738   4.244   6.072   4.235  1.0074  0.0597  0.3232
11749TIP3    H256739   4.299   6.206   4.191  2.1780 -0.7302 -0.7014
11750TIP3   OH256740   1.232   5.049   2.757  0.0651  0.0589 -0.5300
11750TIP3    H156741   1.209   4.988   2.686  2.6617 -0.0556 -1.3793
11750TIP3    H256742   1.278   4.994   2.821 -1.5510  0.3271  0.9440
11751TIP3   OH256743   3.496   5.268   1.977 -0.0875 -0.0795  0.5991
11751TIP3    H156744   3.589   5.247   1.984  0.1950 -1.5302 -4.0962
11751TIP3    H256745   3.494   5.349   1.925 -1.4400 -0.4009  0.1321
11752TIP3   OH256746   1.502   5.861   2.505 -0.2732 -0.1865  0.2934
11752TIP3    H156747   1.411   5.856   2.537 -0.5725  1.5165 -0.2063
11752TIP3    H256748   1.500   5.929   2.438  1.2464 -0.6445 -0.2518
11753TIP3   OH256749   4.948   0.108  16.118  0.0190 -0.5552 -0.0225
11753TIP3    H156750   4.909   0.173  16.060 -3.6873 -1.8071  0.8131
11753TIP3    H256751   4.940   0.025  16.070  1.0928 -0.9878  0.4974
11754TIP3   OH256752   2.720   2.016   1.659  0.5021  0.4503 -0.2563
11754TIP3    H156753   2.693   1.969   1.580  1.2274  2.1539 -1.5985
11754TIP3    H256754   2.769   1.952   1.710 -1.3098 -1.1315 -0.4045
11755TIP3   OH256755   4.318   1.590   4.627 -0.3906  0.6849 -0.4593
11755TIP3    H156756   4.234   1.551   4.652 -0.1488 -0.7236 -1.6964
11755TIP3    H256757   4.345   1.541   4.549  0.4517  2.6919 -1.5020
11756TIP3   OH256758   6.756   4.271  15.304 -0.0765 -0.4840 -0.2516
11756TIP3    H156759   6.710   4.347  15.269 -0.0901  0.5016  1.7674
11756TIP3    H256760   6.845   4.279  15.269 -0.2484  0.0900 -0.5767
11757TIP3   OH256761   3.220   6.509   5.215  0.3595  0.2035  0.1791
11757TIP3    H156762   3.139   6.484   5.261  1.3323 -0.0867  1.8294
11757TIP3    H256763   3.190   6.553   5.136 -1.4300  0.4969  0.9697
11758TIP3   OH256764   0.510   4.555   6.346  0.3565  0.0077 -0.2590
11758TIP3    H156765   0.556   4.639   6.354  0.2361 -0.0084  0.7788
11758TIP3    H256766   0.442   4.559   6.413 -0.0234 -0.6854 -0.6007
11759TIP3   OH256767   5.723   2.964  16.229  0.1388 -0.5612  0.3342
11759TIP3    H156768   5.689   3.022  16.297  1.1169  1.3096 -0.6949
11759TIP3    H256769   5.682   2.995  16.148 -1.1523 -2.8573  0.0217
11760TIP3   OH256770   1.136   2.554  12.531 -0.1633 -0.2739  0.2881
11760TIP3    H156771   1.093   2.469  12.540 -0.3253  0.0136  2.7952
11760TIP3    H256772   1.170   2.574  12.618  3.3473  0.4638 -1.0781
11761TIP3   OH256773   2.189   0.582   6.159 -0.5107  0.4492 -0.1569
11761TIP3    H156774   2.142   0.580   6.242 -0.4171 -1.1379 -0.1229
11761TIP3    H256775   2.248   0.658   6.166 -1.7915  1.4197  0.4770
11762TIP3   OH256776   6.418   3.348  14.926  0.5493 -0.0467 -0.5527
11762TIP3    H156777   6.408   3.442  14.915  1.6883  0.5693  2.6337
11762TIP3    H256778   6.511   3.336  14.948 -0.0649 -1.5245  1.6171
11763TIP3   OH256779   1.111   6.127   2.358  0.3767  0.0605 -0.0653
11763TIP3    H156780   1.121   6.111   2.264  1.6253 -1.3349  0.2625
11763TIP3    H256781   1.062   6.051   2.390 -0.6106  0.8449  0.3236
11764TIP3   OH256782   3.689   6.591  16.321  0.5925  0.2993 -0.5751
11764TIP3    H156783   3.772   6.599  16.367 -0.2233 -0.0618  1.0235
11764TIP3    H256784   3.655   6.681  16.318 -0.1024  0.1280  1.0481
11765TIP3   OH256785   2.214   6.268  12.544 -0.2016 -0.0277 -0.2503
11765TIP3    H156786   2.272   6.344  12.534 -1.2511  0.5936 -2.1299
11765TIP3    H256787   2.241   6.208  12.475 -1.8534  0.3456 -1.2769
11766TIP3   OH256788   1.760   3.753   3.953  0.2903 -0.4615  0.4798
11766TIP3    H156789   1.720   3.743   3.866  2.0437 -0.1497 -0.4085
11766TIP3    H256790   1.783   3.663   3.978 -0.5789 -0.5977  0.8195
11767TIP3   OH256791   5.600   5.454  11.007  0.0813  0.2683  0.1947
11767TIP3    H156792   5.519   5.448  11.057  0.5644 -1.3587  0.8556
11767TIP3    H256793   5.669   5.434  11.071  0.8934  0.2360 -0.6688
11768TIP3   OH256794   0.776   0.225  14.680  0.1865 -0.1565  0.2816
11768TIP3    H156795   0.766   0.284  14.606 -0.8201  0.4125  0.8422
11768TIP3    H256796   0.806   0.143  14.642 -0.0410  0.2174 -0.7189
11769TIP3   OH256797   2.886   1.643   3.324 -0.9868 -0.4287  0.3832
11769TIP3    H156798   2.975   1.639   3.287 -0.2525  0.5909  1.9485
11769TIP3    H256799   2.886   1.576   3.393 -2.3081 -2.2309 -1.2393
11770TIP3   OH256800   4.299   5.471   5.413  0.3324 -0.5683 -0.4044
11770TIP3    H156801   4.354   5.532   5.462  0.3789  0.8146 -2.0626
11770TIP3    H256802   4.308   5.499   5.322 -1.2712 -1.7957 -0.9940
11771TIP3   OH256803   5.623   5.644  11.344 -0.4553  0.0276  0.0858
11771TIP3    H156804   5.562   5.609  11.409  1.6690 -0.0576  2.1532
11771TIP3    H256805   5.682   5.571  11.325  1.5734  1.2484  1.3894
11772TIP3   OH256806   6.655   6.373   3.860 -0.0466 -0.3564 -0.3361
11772TIP3    H156807   6.719   6.444   3.858 -0.6780  0.1987 -1.4024
11772TIP3    H256808   6.579   6.409   3.905 -0.2713 -0.4297 -0.6487
11773TIP3   OH256809   5.292   1.261   2.152  0.3563  0.4417  0.4018
11773TIP3    H156810   5.277   1.195   2.221 -0.5042 -0.4839 -0.6247
11773TIP3    H256811   5.277   1.345   2.196  2.4932  0.0739  2.0161
11774TIP3   OH256812   4.515   2.387  14.233 -0.2018  0.1190 -0.3996
11774TIP3    H156813   4.545   2.296  14.235 -2.9657 -0.9130 -1.7527
11774TIP3    H256814   4.488   2.405  14.323  2.0520  0.3132  0.3116
11775TIP3   OH256815   1.479   3.721  12.901  0.1515  0.1512 -0.2582
11775TIP3    H156816   1.560   3.754  12.861  0.3831  0.7291  0.6762
11775TIP3    H256817   1.504   3.637  12.939  0.3362  0.3599  0.0881
11776TIP3   OH256818   0.967   0.084  15.901  0.0257 -0.1369  0.0591
11776TIP3    H156819   1.010   0.145  15.961  3.7296 -0.9021 -1.5010
11776TIP3    H256820   0.957   0.004  15.953  0.5992  0.0505  0.4753
11777TIP3   OH256821   5.947   3.879   3.821  0.0526 -0.4086 -0.2056
11777TIP3    H156822   6.038   3.899   3.798  0.4745 -1.2270  0.6469
11777TIP3    H256823   5.932   3.792   3.786 -0.4469 -0.2282 -0.4456
11778TIP3   OH256824   3.495   6.766  14.106  0.0390 -0.7862 -0.1154
11778TIP3    H156825   3.419   6.824  14.116 -0.4060 -1.6391  2.0113
11778TIP3    H256826   3.567   6.825  14.082 -0.5301  0.5994  1.3455
11779TIP3   OH256827   0.761   5.813   2.216 -0.4608  0.9620  0.2163
11779TIP3    H156828   0.847   5.819   2.258 -0.0949  0.7737 -0.4958
11779TIP3    H256829   0.704   5.868   2.270  0.3894  2.1390 -0.0425
11780TIP3   OH256830   5.985   3.571  15.209 -0.2283 -0.3419 -0.2271
11780TIP3    H156831   5.897   3.566  15.172 -0.0171 -2.4550 -0.6023
11780TIP3    H256832   6.036   3.507  15.159  0.5508 -1.9380  2.3707
11781TIP3   OH256833   4.168   6.422  13.445  0.1052 -0.3169 -0.3400
11781TIP3    H156834   4.127   6.341  13.416 -0.2087 -0.1083 -0.4831
11781TIP3    H256835   4.118   6.492  13.403  1.0004 -0.0626 -1.0359
11782TIP3   OH256836   3.967   4.129   1.270  0.1133  0.1936 -0.0688
11782TIP3    H156837   4.008   4.107   1.354  2.2449 -2.3677 -1.6159
11782TIP3    H256838   3.930   4.046   1.239  0.3245  0.8052 -2.0951
11783TIP3   OH256839   1.957   0.340  13.953 -0.4533 -0.8368  0.3346
11783TIP3    H156840   1.945   0.323  13.860 -0.3740 -1.4979  0.4387
11783TIP3    H256841   1.999   0.260  13.986 -0.0747 -0.4285  0.8477
11784TIP3   OH256842   1.700   1.639   1.221 -0.1323 -0.4221  0.3104
11784TIP3    H156843   1.773   1.659   1.163 -0.3413 -1.5507 -0.3705
11784TIP3    H256844   1.622   1.663   1.171 -0.4237 -3.2455 -0.7520
11785TIP3   OH256845   5.458   1.358  14.531 -0.2173  0.6259 -0.3108
11785TIP3    H156846   5.552   1.373  14.537 -0.1173  0.0986 -0.4547
11785TIP3    H256847   5.442   1.281  14.586 -0.9765  2.1981  1.8045
11786TIP3   OH256848   3.745   4.140  16.824  0.3693  0.0869  1.2591
11786TIP3    H156849   3.749   4.052  16.860 -2.2591 -0.5409  0.2510
11786TIP3    H256850   3.815   4.142  16.758  0.5050 -1.2196  1.3402
11787TIP3   OH256851   1.457   5.177  15.086 -0.3704 -0.0699  0.4313
11787TIP3    H156852   1.365   5.181  15.112 -0.3721 -0.5139  0.5122
11787TIP3    H256853   1.498   5.120  15.152 -0.3448 -1.0957 -0.4349
11788TIP3   OH256854   3.006   5.455   1.132 -0.4299  0.2975 -0.2061
11788TIP3    H156855   3.026   5.546   1.109 -1.1199  1.2466  2.4968
11788TIP3    H256856   2.911   5.449   1.127 -0.3163 -0.7846 -1.8262
11789TIP3   OH256857   6.683   3.688  13.393  0.4203  0.1553  0.2169
11789TIP3    H156858   6.753   3.634  13.431  1.0597 -2.0101 -3.5167
11789TIP3    H256859   6.621   3.624  13.358 -0.2421  1.8877 -1.9747
11790TIP3   OH256860   1.543   1.237  15.164  0.1300  0.4179 -0.7286
11790TIP3    H156861   1.584   1.184  15.095  3.2158  0.8116  0.6485
11790TIP3    H256862   1.519   1.173  15.231  0.4834  0.3739 -0.6388
11791TIP3   OH256863   4.873   2.572   6.193  0.6689  0.2933  0.0824
11791TIP3    H156864   4.862   2.581   6.288  1.0453 -2.7505  0.5247
11791TIP3    H256865   4.968   2.578   6.180  0.7340 -0.4718  0.1163
11792TIP3   OH256866   6.733   4.205  11.475 -0.2857 -0.1548  0.0005
11792TIP3    H156867   6.789   4.181  11.548 -1.1936  0.1638  0.8176
11792TIP3    H256868   6.783   4.179  11.397  2.8007  3.5357  0.4305
11793TIP3   OH256869   5.122   0.587   5.632  0.3882  0.4615 -1.3355
11793TIP3    H156870   5.141   0.494   5.646 -0.1618  0.3769 -1.0881
11793TIP3    H256871   5.122   0.598   5.537 -3.1608 -0.6459 -1.6208
11794TIP3   OH256872   1.564   5.734  15.569  0.2083 -0.4268  0.1692
11794TIP3    H156873   1.613   5.810  15.541 -1.3972  0.6911  0.2470
11794TIP3    H256874   1.589   5.665  15.507 -0.0651  0.8218 -1.4083
11795TIP3   OH256875   2.548   3.563  11.311  0.2916  0.1384  0.0676
11795TIP3    H156876   2.622   3.623  11.310  0.9476 -0.6335 -2.1837
11795TIP3    H256877   2.493   3.590  11.238  0.2489 -1.5062 -0.5621
11796TIP3   OH256878   1.904   4.457  16.565  0.1038 -0.3860  0.5525
11796TIP3    H156879   1.896   4.405  16.485  1.6777  0.5732 -0.2973
11796TIP3    H256880   1.962   4.406  16.621  0.7585 -0.0870  0.1653
11797TIP3   OH256881   3.466   1.573   1.648 -0.2742 -0.1909 -0.0922
11797TIP3    H156882   3.407   1.645   1.671 -0.2159 -0.4116  0.8064
11797TIP3    H256883   3.535   1.576   1.715  0.4381 -0.2783 -0.8045
11798TIP3   OH256884   2.261   3.261  13.835 -0.4714 -0.4220  0.2259
11798TIP3    H156885   2.255   3.329  13.767 -1.0195  0.7849  1.4425
11798TIP3    H256886   2.311   3.191  13.794 -0.0100  0.6524 -1.1273
11799TIP3   OH256887   2.170   4.550  16.230 -0.3325 -0.5133  0.3822
11799TIP3    H156888   2.251   4.500  16.245 -0.2327 -0.0584  1.4794
11799TIP3    H256889   2.134   4.564  16.318  0.1171  2.0847  0.2330
11800TIP3   OH256890   0.202   4.556  15.055  0.4869 -0.4049 -0.1223
11800TIP3    H156891   0.122   4.590  15.016  1.4735  0.8519 -1.1372
11800TIP3    H256892   0.226   4.482  15.000  2.6702  2.2296 -3.0620
11801TIP3   OH256893   3.773   4.730  13.610 -0.4666 -0.0133  0.0014
11801TIP3    H156894   3.850   4.677  13.632  0.3596  1.2114  0.1789
11801TIP3    H256895   3.741   4.692  13.528  0.3108 -0.5747 -0.0593
11802TIP3   OH256896   2.901   5.665  10.889  0.0161  0.0612 -0.1848
11802TIP3    H156897   2.847   5.638  10.963  0.8026  1.9530  1.1836
11802TIP3    H256898   2.842   5.714  10.833  0.1233  1.7826  1.1058
11803TIP3   OH256899   4.843   5.867   1.895  0.6713 -0.3904 -0.0639
11803TIP3    H156900   4.861   5.818   1.975 -0.8066 -0.1269  0.4574
11803TIP3    H256901   4.781   5.812   1.847 -0.4880  0.6393  0.2127
11804TIP3   OH256902   0.269   0.110   6.072 -0.2194 -0.3760 -0.0573
11804TIP3    H156903   0.352   0.152   6.096  0.7371 -1.6007 -1.0638
11804TIP3    H256904   0.267   0.114   5.977 -1.1555 -0.6733 -0.0561
11805TIP3   OH256905   2.784   3.693  11.307 -0.1071 -0.6761  0.4111
11805TIP3    H156906   2.844   3.698  11.382 -0.8255  0.2488  0.9555
11805TIP3    H256907   2.816   3.759  11.246 -0.9400  0.2863  0.9970
11806TIP3   OH256908   5.043   5.299   1.802  0.4832 -0.1452 -0.4448
11806TIP3    H156909   5.020   5.392   1.797  0.1815 -0.1918  0.0809
11806TIP3    H256910   5.031   5.267   1.712 -0.4344  0.0849 -0.4122
11807TIP3   OH256911   5.296   2.965   5.474 -0.3942 -0.3582 -0.4802
11807TIP3    H156912   5.243   2.917   5.539 -0.5361 -0.3385 -0.5803
11807TIP3    H256913   5.288   3.056   5.500 -1.1486 -0.2639 -1.0240
11808TIP3   OH256914   2.994   4.178   5.017  0.6599  0.0000 -0.3975
11808TIP3    H156915   2.931   4.178   4.945 -0.7087 -1.0142  0.7498
11808TIP3    H256916   2.954   4.123   5.084  1.8113  1.0474  1.2162
11809TIP3   OH256917   3.317   2.952  11.168  0.3249  0.0179 -0.3636
11809TIP3    H156918   3.403   2.964  11.128  0.3845  0.1988 -0.1808
11809TIP3    H256919   3.259   2.931  11.095  0.8276 -1.7023 -0.3109
11810TIP3   OH256920   1.601   6.608  12.216 -0.2463 -0.4862 -0.3302
11810TIP3    H156921   1.581   6.516  12.196  0.1769 -0.4311 -1.0546
11810TIP3    H256922   1.697   6.611  12.219 -0.2822 -0.3200  0.9643
11811TIP3   OH256923   6.092   1.381  16.090  0.2284  0.3121 -0.9477
11811TIP3    H156924   6.113   1.436  16.014  0.1926  1.3509 -0.2339
11811TIP3    H256925   5.997   1.376  16.091  0.2282  0.3135 -0.9652
11812TIP3   OH256926   3.520   4.404  11.666  0.2565 -0.0003  0.3882
11812TIP3    H156927   3.429   4.378  11.654  0.5604 -1.4947  1.1429
11812TIP3    H256928   3.521   4.451  11.749  0.1418  0.1915  0.2817
11813TIP3   OH256929   4.089   2.067  16.854 -0.0849 -0.1657  0.0097
11813TIP3    H156930   4.119   1.979  16.875  0.3220 -0.0935 -0.2550
11813TIP3    H256931   4.112   2.120  16.930 -0.4967 -0.3226  0.2466
11814TIP3   OH256932   1.222   4.524   4.967  0.7212 -0.0653  0.0922
11814TIP3    H156933   1.265   4.593   5.018  1.2142 -0.5501  0.3494
11814TIP3    H256934   1.283   4.450   4.970  0.3463 -0.4078 -0.4475
11815TIP3   OH256935   0.465   1.734   3.656  0.3885  0.0443 -0.0077
11815TIP3    H156936   0.526   1.727   3.729  1.4784 -1.1136 -0.9894
11815TIP3    H256937   0.520   1.724   3.578 -1.2843 -3.4053 -0.9063
11816TIP3   OH256938   1.555   5.526   3.907 -0.3691 -0.4117  0.4854
11816TIP3    H156939   1.546   5.445   3.956 -2.4875 -1.8989 -2.1192
11816TIP3    H256940   1.593   5.500   3.823  1.6419  1.7943  0.5936
11817TIP3   OH256941   3.183   3.739   5.336  0.2059  0.2193 -0.1238
11817TIP3    H156942   3.238   3.703   5.406  0.4880  0.6285 -0.1312
11817TIP3    H256943   3.245   3.770   5.271 -0.0186  1.0010  0.0235
11818TIP3   OH256944   4.459   3.907  12.196  0.3896  0.2900  0.3852
11818TIP3    H156945   4.531   3.937  12.251  2.2641 -1.1554 -1.1230
11818TIP3    H256946   4.498   3.895  12.109 -1.5840 -0.8400 -0.4243
11819TIP3   OH256947   4.530   2.715  13.503 -0.1541 -0.1510  0.3758
11819TIP3    H156948   4.448   2.764  13.495  0.2218  0.2842 -1.3636
11819TIP3    H256949   4.505   2.624  13.492 -0.6500 -0.2333  1.9779
11820TIP3   OH256950   5.429   0.817   1.515  0.1351  0.2238  0.3970
11820TIP3    H156951   5.474   0.736   1.492 -1.3229 -0.8038  1.1087
11820TIP3    H256952   5.436   0.822   1.611  2.2175  2.1713  0.2545
11821TIP3   OH256953   6.171   5.433   2.517  0.2742  0.4610 -0.0113
11821TIP3    H156954   6.108   5.500   2.489  1.4408  2.2821  1.4883
11821TIP3    H256955   6.116   5.359   2.544 -1.0333  0.5772 -2.1045
11822TIP3   OH256956   2.549   0.681   1.135  0.8352 -0.5107  0.5358
11822TIP3    H156957   2.499   0.708   1.212  0.9840 -1.0367  0.8264
11822TIP3    H256958   2.583   0.594   1.159 -0.4927 -1.4274 -0.7405
11823TIP3   OH256959   5.321   4.448   2.460  0.6001  0.1187 -0.1557
11823TIP3    H156960   5.333   4.413   2.372  0.4604 -1.2958  0.3599
11823TIP3    H256961   5.242   4.502   2.455  2.0260  2.2482 -1.4872
11824TIP3   OH256962   4.226   6.337   5.605 -0.3161 -0.2177  0.0105
11824TIP3    H156963   4.208   6.430   5.594 -0.6247 -0.4209 -1.3504
11824TIP3    H256964   4.237   6.326   5.699  0.6779  1.3583  0.1086
11825TIP3   OH256965   2.963   2.927   3.422 -0.4226 -0.0535 -0.3144
11825TIP3    H156966   2.945   2.979   3.343  0.0520  0.0126 -0.3820
11825TIP3    H256967   2.876   2.908   3.458 -0.5954  1.6922  0.3006
11826TIP3   OH256968   2.808   3.839  17.273  0.0767 -0.0725 -0.0789
11826TIP3    H156969   2.801   3.802  17.361  1.1028 -1.3581 -0.4905
11826TIP3    H256970   2.752   3.784  17.219 -1.4005  1.3682 -0.0856
11827TIP3   OH256971   2.706   6.631  14.118  0.0854 -0.4514  0.0817
11827TIP3    H156972   2.781   6.604  14.064  0.7607 -0.1302  0.8393
11827TIP3    H256973   2.706   6.726  14.112 -0.1738 -0.4437  0.2119
11828TIP3   OH256974   3.399   1.284   5.245 -0.4033 -0.3795  0.1675
11828TIP3    H156975   3.414   1.219   5.177  2.8870 -0.9239  1.2224
11828TIP3    H256976   3.344   1.239   5.309 -2.0789 -0.4408 -1.2526
11829TIP3   OH256977   0.710   1.340  12.987  0.6560 -0.0266  0.6296
11829TIP3    H156978   0.736   1.248  12.987  1.1900  0.1058 -0.4889
11829TIP3    H256979   0.759   1.379  12.915 -2.3034  0.3435 -1.3731
11830TIP3   OH256980   5.817   5.830   2.273  0.5431 -0.6511 -0.0714
11830TIP3    H156981   5.824   5.907   2.217  0.0574  0.2122  1.0337
11830TIP3    H256982   5.817   5.756   2.211 -0.2350  0.2757 -1.2206
11831TIP3   OH256983   2.633   4.175  13.385  0.7421 -0.2827 -0.1962
11831TIP3    H156984   2.575   4.205  13.315 -1.0896 -2.4037  0.3125
11831TIP3    H256985   2.663   4.089  13.358 -1.0420 -1.7463  2.0878
11832TIP3   OH256986   5.773   1.912   0.530  0.2753 -0.1576  0.2659
11832TIP3    H156987   5.849   1.971   0.531  0.3681 -0.2886  0.9045
11832TIP3    H256988   5.728   1.929   0.612  0.2582 -0.9246  0.4208
11833TIP3   OH256989   1.609   2.267  14.408 -0.0282  0.0402  0.6204
11833TIP3    H156990   1.648   2.352  14.428  2.9087 -1.4262  1.6855
11833TIP3    H256991   1.667   2.203  14.449 -1.3926 -2.5744 -1.1947
11834TIP3   OH256992   3.874   3.357   0.665 -0.1747  0.4169  0.0503
11834TIP3    H156993   3.805   3.327   0.724 -0.0010 -1.3379 -0.5914
11834TIP3    H256994   3.955   3.339   0.712 -0.0540 -0.5415 -0.5091
11835TIP3   OH256995   1.921   5.007   4.936 -0.4480  0.3586  0.3342
11835TIP3    H156996   1.898   4.922   4.972  1.8574 -0.9372 -0.9837
11835TIP3    H256997   1.852   5.026   4.871  0.2915 -1.7749 -1.1712
11836TIP3   OH256998   3.607   3.641  12.124 -0.0349  0.3864  0.2160
11836TIP3    H156999   3.564   3.594  12.196  1.0263  0.9306  1.2267
11836TIP3    H257000   3.558   3.723  12.117  0.0410  0.4546  0.4993
11837TIP3   OH257001   3.656   6.101  14.462 -0.0969 -0.1818 -0.2343
11837TIP3    H157002   3.677   6.187  14.427 -0.4911  0.4620  1.0752
11837TIP3    H257003   3.694   6.040  14.398  1.1703  0.9401 -0.6023
11838TIP3   OH257004   0.442   3.370   5.444 -0.0524  0.9583  0.0872
11838TIP3    H157005   0.516   3.430   5.457 -0.2352  1.0788  0.6007
11838TIP3    H257006   0.482   3.287   5.420  0.2605  0.9872  0.5030
11839TIP3   OH257007   3.453   3.183  12.889 -0.3141 -0.1558  0.5004
11839TIP3    H157008   3.510   3.192  12.966 -0.6943 -1.4850  0.9743
11839TIP3    H257009   3.483   3.251  12.829  0.0604  0.8518  1.7755
11840TIP3   OH257010   4.214   0.953   4.150 -0.2380 -0.0292 -0.1131
11840TIP3    H157011   4.274   1.013   4.105 -1.5553  0.5825 -1.1190
11840TIP3    H257012   4.218   0.872   4.099 -3.8472  1.4993 -3.3580
11841TIP3   OH257013   4.264   4.677  12.431  1.0353  0.2222  0.3349
11841TIP3    H157014   4.195   4.732  12.396 -0.5259 -0.7771  1.6563
11841TIP3    H257015   4.305   4.729  12.500 -2.1882 -0.9602  3.4557
11842TIP3   OH257016   2.089   4.398  12.805 -0.3037  0.2952 -0.3621
11842TIP3    H157017   2.027   4.436  12.743  0.5060  2.2729 -0.0166
11842TIP3    H257018   2.175   4.410  12.764  0.0397 -0.5723  0.0781
11843TIP3   OH257019   1.435   6.078   2.317 -0.1272 -0.0304 -0.2835
11843TIP3    H157020   1.359   6.134   2.330 -0.4171 -0.7326  1.1952
11843TIP3    H257021   1.414   6.027   2.239 -1.9189 -1.3712  0.9987
11844TIP3   OH257022   5.935   6.546   2.434 -0.5482  0.5265  0.2941
11844TIP3    H157023   5.932   6.642   2.437 -0.0765  0.5297  1.1812
11844TIP3    H257024   5.867   6.521   2.371  0.6031  1.5066 -1.3816
11845TIP3   OH257025   3.162   4.574  10.799 -0.2820 -0.0966  0.1024
11845TIP3    H157026   3.247   4.537  10.820 -0.5798 -0.5412  0.5597
11845TIP3    H257027   3.136   4.531  10.717 -1.1633 -1.8792  1.2370
11846TIP3   OH257028   0.967   5.872  15.015 -0.0808  0.0319 -0.0465
11846TIP3    H157029   0.984   5.967  15.017  1.6784 -0.2501  0.1245
11846TIP3    H257030   1.028   5.836  15.079  1.1098 -1.4495 -1.9188
11847TIP3   OH257031   2.709   0.071   3.509 -0.6187 -0.4580  0.0554
11847TIP3    H157032   2.684   0.004   3.445 -0.7316  0.2913 -0.7039
11847TIP3    H257033   2.780   0.120   3.466  0.7615 -1.2308  1.3364
11848TIP3   OH257034   2.096   0.307   2.617  0.5730  0.2559 -0.4782
11848TIP3    H157035   2.172   0.252   2.636  1.1318  0.0722 -2.9483
11848TIP3    H257036   2.071   0.285   2.527 -2.1658  0.6334  0.0901
11849TIP3   OH257037   2.566   4.538  14.412 -0.0823 -0.1767  0.3322
11849TIP3    H157038   2.591   4.630  14.410 -0.5687 -0.0503 -0.2684
11849TIP3    H257039   2.512   4.530  14.491 -2.7664  0.8141 -1.2672
11850TIP3   OH257040   1.378   4.688  13.087  0.2721  0.7635  0.5271
11850TIP3    H157041   1.283   4.701  13.081  0.3586  2.3180  1.8498
11850TIP3    H257042   1.415   4.752  13.027  0.4915 -1.4789 -1.8770
11851TIP3   OH257043   2.267   1.250  12.368  0.6986  0.6010  0.0228
11851TIP3    H157044   2.253   1.175  12.427  0.4041  1.6507  1.3254
11851TIP3    H257045   2.342   1.296  12.404  1.2893  0.6008 -1.1521
11852TIP3   OH257046   1.120   3.989   5.188  0.1959 -0.0650  0.0002
11852TIP3    H157047   1.162   4.075   5.181  0.8362 -0.3619  0.1429
11852TIP3    H257048   1.077   3.991   5.274  1.5764 -0.4765  0.7250
11853TIP3   OH257049   1.789   4.243   2.321 -0.0880 -0.3790 -0.1223
11853TIP3    H157050   1.837   4.164   2.346  0.8087 -0.0254 -0.6861
11853TIP3    H257051   1.829   4.270   2.238 -0.9428  0.2016 -0.3567
11854TIP3   OH257052   5.058   6.408   2.695 -0.2780 -0.3112 -0.0737
11854TIP3    H157053   5.073   6.317   2.672 -1.7443 -0.4811 -0.4180
11854TIP3    H257054   5.144   6.440   2.722  1.3083 -0.5336 -4.1269
11855TIP3   OH257055   2.660   0.227   2.565  0.2014 -0.0506  0.3984
11855TIP3    H157056   2.689   0.136   2.566 -1.1569 -0.5204 -0.0162
11855TIP3    H257057   2.725   0.272   2.511  0.6125 -0.8772  0.1798
11856TIP3   OH257058   3.167   5.091  15.591 -0.6924 -0.8094  0.3840
11856TIP3    H157059   3.243   5.108  15.536 -0.8732 -1.7943 -0.1973
11856TIP3    H257060   3.096   5.138  15.548 -0.1300  1.5870  1.8774
11857TIP3   OH257061   0.827   2.725   2.068 -0.4265 -0.2008  0.2678
11857TIP3    H157062   0.857   2.741   1.978  0.4961 -1.8359  0.2598
11857TIP3    H257063   0.896   2.763   2.123  0.2398 -1.3663  0.2588
11858TIP3   OH257064   4.059   5.788  11.437  0.4132  0.8544 -0.5369
11858TIP3    H157065   4.070   5.881  11.418 -0.3571  1.2600  0.8269
11858TIP3    H257066   4.143   5.748  11.416  1.7861  2.3609  1.6213
11859TIP3   OH257067   5.415   4.285  14.039  0.0155 -0.1850  0.1053
11859TIP3    H157068   5.403   4.197  14.074 -1.0489  0.2386  0.8448
11859TIP3    H257069   5.396   4.277  13.946 -2.2180 -0.3439  0.5249
11860TIP3   OH257070   3.009   5.259  15.192 -0.6016  0.5313  0.0588
11860TIP3    H157071   2.972   5.172  15.201 -0.5862  0.5823  0.6263
11860TIP3    H257072   3.101   5.249  15.218 -0.7689  0.8511  0.8029
11861TIP3   OH257073   6.147   3.227   5.222  0.3199  0.6243  0.2875
11861TIP3    H157074   6.196   3.269   5.152  0.3859  1.3412  0.7632
11861TIP3    H257075   6.182   3.264   5.303 -0.9517  1.1061  0.6415
11862TIP3   OH257076   0.458   5.877   2.027 -0.3683 -0.2852 -0.3351
11862TIP3    H157077   0.379   5.875   2.082 -1.4557  0.3862 -1.8098
11862TIP3    H257078   0.519   5.933   2.075 -0.5291 -1.2931  1.1148
11863TIP3   OH257079   0.234   5.013  14.720 -0.7631  0.5127  0.5495
11863TIP3    H157080   0.252   5.070  14.645 -0.1313 -0.2411  0.1209
11863TIP3    H257081   0.255   4.925  14.690 -0.2373  0.2209  1.6949
11864TIP3   OH257082   1.047   5.970  10.815 -0.3675 -0.4917  0.9463
11864TIP3    H157083   1.040   6.040  10.879 -0.1924 -0.7022  1.1955
11864TIP3    H257084   1.130   5.987  10.769 -0.9389  0.1978  0.1288
11865TIP3   OH257085   5.819   5.547   5.510  0.2978 -0.4676  0.0359
11865TIP3    H157086   5.755   5.509   5.451 -0.3983  0.1458  0.3846
11865TIP3    H257087   5.886   5.479   5.521 -0.9884 -1.6585  0.7649
11866TIP3   OH257088   6.106   6.546  14.811  0.2393  0.4263 -0.2596
11866TIP3    H157089   6.108   6.641  14.809  1.1717  0.5640  2.6125
11866TIP3    H257090   6.194   6.519  14.783 -0.1986  0.3399 -1.6225
11867TIP3   OH257091   3.137   0.418  12.860 -0.1305  0.4141  0.3206
11867TIP3    H157092   3.080   0.387  12.790  0.1186  0.5317  0.0663
11867TIP3    H257093   3.139   0.513  12.849  2.6282  0.2386 -1.6388
11868TIP3   OH257094   3.496   3.885   6.192  0.0387 -0.0437 -0.5388
11868TIP3    H157095   3.402   3.902   6.194 -0.3642 -2.0729 -0.5067
11868TIP3    H257096   3.535   3.960   6.238 -1.7938 -0.6701  2.2348
11869TIP3   OH257097   0.371   3.899   5.382 -0.8570 -0.0347  0.1793
11869TIP3    H157098   0.320   3.819   5.370 -3.3229  1.1573  1.9932
11869TIP3    H257099   0.342   3.957   5.311 -1.1237  0.2156  0.4909
11870TIP3   OH257100   2.065   4.555   6.112 -0.1110  0.5214  0.1417
11870TIP3    H157101   2.150   4.517   6.133 -0.4538 -1.2614 -1.4478
11870TIP3    H257102   2.006   4.520   6.179 -0.3191 -1.4332 -1.0006
11871TIP3   OH257103   2.453   2.608   4.570  0.8383  0.2752  0.5230
11871TIP3    H157104   2.386   2.579   4.632 -0.2972  0.2558 -0.6675
11871TIP3    H257105   2.472   2.698   4.595  0.5155  0.2158  1.0013
11872TIP3   OH257106   3.438   0.604   5.253  0.1726 -0.4094  0.2277
11872TIP3    H157107   3.523   0.633   5.286  0.2690  0.1764 -0.5258
11872TIP3    H257108   3.456   0.519   5.212  0.5509  0.0502 -0.5857
11873TIP3   OH257109   6.762   0.963   1.770 -0.2658 -0.1706 -0.1241
11873TIP3    H157110   6.788   1.055   1.757  2.0719 -0.3940  2.0911
11873TIP3    H257111   6.726   0.936   1.685 -0.2891  2.5360 -1.0850
11874TIP3   OH257112   3.531   1.070  12.722 -0.0289 -0.3846  0.0239
11874TIP3    H157113   3.452   1.112  12.689 -0.3946 -1.0624  0.0032
11874TIP3    H257114   3.508   1.042  12.811  0.2322 -0.4578  0.0695
11875TIP3   OH257115   1.867   1.911  14.356  0.8027  0.2017  0.1256
11875TIP3    H157116   1.947   1.935  14.309  0.4264  3.7756  1.0032
11875TIP3    H257117   1.863   1.815  14.350  3.2833  0.1243 -2.8654
11876TIP3   OH257118   0.271   3.795   4.954  0.0476  0.2193 -0.1317
11876TIP3    H157119   0.279   3.857   4.881  0.8224  2.0749  1.4489
11876TIP3    H257120   0.179   3.799   4.979  0.2005  1.2191  0.3209
11877TIP3   OH257121   3.382   3.981  14.093 -0.0464 -0.6360 -0.4056
11877TIP3    H157122   3.364   3.887  14.097  0.7332 -0.8185 -0.9816
11877TIP3    H257123   3.455   3.989  14.031 -0.4508  0.4003 -0.7666
11878TIP3   OH257124   3.747   6.300  11.763 -0.3207 -0.0374  0.2004
11878TIP3    H157125   3.784   6.243  11.695 -0.8555  1.4361 -1.4217
11878TIP3    H257126   3.786   6.269  11.844  1.4257 -1.0387 -0.9442
11879TIP3   OH257127   2.934   0.853   5.231 -0.2983  0.6404  0.4767
11879TIP3    H157128   2.947   0.914   5.159 -1.2185  0.6392  0.2949
11879TIP3    H257129   2.851   0.810   5.211  0.3239 -0.6695  0.6001
11880TIP3   OH257130   0.637   5.333  13.183 -0.1369  0.4287 -0.6233
11880TIP3    H157131   0.715   5.299  13.138 -1.0504  0.5385 -2.3906
11880TIP3    H257132   0.650   5.428  13.184 -0.6695  0.5323 -1.8217
11881TIP3   OH257133   6.715   3.711  12.552 -0.0362  0.0026 -0.7095
11881TIP3    H157134   6.676   3.677  12.632  0.3663  0.8908 -0.1339
11881TIP3    H257135   6.735   3.632  12.500 -2.4835 -0.4842 -0.9980
11882TIP3   OH257136   2.849   5.375   2.174  0.0061 -0.5425 -0.3902
11882TIP3    H157137   2.853   5.351   2.267  0.3495  0.1694 -0.2138
11882TIP3    H257138   2.909   5.449   2.166 -0.1522 -0.4906 -1.1488
11883TIP3   OH257139   4.385   1.618   2.001  0.2342 -0.1169 -0.3834
11883TIP3    H157140   4.310   1.581   2.047  1.9405 -0.3615  2.5014
11883TIP3    H257141   4.387   1.710   2.027  2.4180 -0.7173  2.0133
11884TIP3   OH257142   2.277   2.071  12.642  0.2974  0.0396 -0.3612
11884TIP3    H157143   2.278   2.164  12.665  0.1939 -0.1487  0.4450
11884TIP3    H257144   2.334   2.029  12.706  0.5637 -0.4194 -0.8901
11885TIP3   OH257145   0.750   5.963   1.492 -0.1614 -0.5349 -0.5432
11885TIP3    H157146   0.714   6.047   1.465 -2.6548 -0.8561  1.4003
11885TIP3    H257147   0.673   5.908   1.507  1.2921 -2.3580  0.6522
11886TIP3   OH257148   1.524   5.926   1.541  0.3097  0.4741  1.0796
11886TIP3    H157149   1.555   5.992   1.479  1.1436  0.7966  1.8086
11886TIP3    H257150   1.470   5.974   1.603  0.2231  0.3199  1.1246
11887TIP3   OH257151   0.741   4.828   3.626  0.1387  0.3570  0.0657
11887TIP3    H157152   0.687   4.804   3.701  1.3735  0.3571  0.9957
11887TIP3    H257153   0.731   4.755   3.564  0.1858 -0.3031  0.8288
11888TIP3   OH257154   0.978   3.063   2.579  0.6253  0.0759 -0.6425
11888TIP3    H157155   0.983   3.132   2.644  0.9725  0.0969 -0.6901
11888TIP3    H257156   0.963   3.109   2.496  0.6783  0.0822 -0.6486
11889TIP3   OH257157   3.363   0.522   4.963  0.2624  0.1972 -0.6900
11889TIP3    H157158   3.398   0.435   4.980  0.4816  0.1046 -1.5410
11889TIP3    H257159   3.438   0.581   4.969 -0.0507  0.4865  0.8602
11890TIP3   OH257160   4.004   3.987  12.143  0.5102  0.5167  0.0308
11890TIP3    H157161   3.973   3.933  12.069  1.2732 -0.0591  0.1192
11890TIP3    H257162   4.098   3.995  12.129  0.5591  0.9537  0.5921
11891TIP3   OH257163   3.695   1.071   4.797 -0.3848  0.2669 -0.1865
11891TIP3    H157164   3.714   1.147   4.742 -1.5987  0.2459 -0.6616
11891TIP3    H257165   3.781   1.041   4.827  0.0561  2.8244  1.4052
11892TIP3   OH257166   2.523   5.512   2.389 -0.2476 -0.6865 -0.1151
11892TIP3    H157167   2.586   5.462   2.441 -1.0589 -1.4435  0.1505
11892TIP3    H257168   2.518   5.466   2.306  0.3630  0.0033 -0.5453
11893TIP3   OH257169   1.092   5.761   3.463 -0.3991  0.1915  0.9414
11893TIP3    H157170   1.078   5.795   3.374 -0.2774  0.7012  1.1147
11893TIP3    H257171   1.033   5.687   3.469 -0.2494  0.0111  0.3539
11894TIP3   OH257172   0.871   5.988  13.794  0.2323  0.1511  0.0550
11894TIP3    H157173   0.904   6.054  13.734  0.1181 -0.2355 -0.4394
11894TIP3    H257174   0.813   6.036  13.853 -0.9161  0.2766 -1.1451
11895TIP3   OH257175   1.854   2.320  14.600  0.9807 -0.0944 -0.1129
11895TIP3    H157176   1.852   2.224  14.596  1.6089 -0.1242  0.1999
11895TIP3    H257177   1.937   2.344  14.558  1.0802  0.2843  0.2928
11896TIP3   OH257178   1.985   2.716  16.051 -0.3256  0.2305 -0.2622
11896TIP3    H157179   2.017   2.805  16.040 -1.7186  0.9854  1.3902
11896TIP3    H257180   2.023   2.686  16.134 -0.8121 -0.2707 -0.2112
11897TIP3   OH257181   4.646   1.576  15.685  0.0034  0.2329  0.2338
11897TIP3    H157182   4.660   1.510  15.617 -0.2736 -1.1051  1.4162
11897TIP3    H257183   4.677   1.658  15.646 -0.8471 -0.3371 -1.7624
11898TIP3   OH257184   4.629   1.355  16.908  0.1478 -0.0813 -0.0636
11898TIP3    H157185   4.693   1.407  16.957  0.7253  0.0247 -0.9049
11898TIP3    H257186   4.652   1.369  16.816 -1.4217  0.4029 -0.4334
11899TIP3   OH257187   2.293   2.198  13.617  0.4668 -0.0778 -0.5687
11899TIP3    H157188   2.218   2.169  13.566  0.6055 -0.1316 -0.7415
11899TIP3    H257189   2.359   2.129  13.604 -0.2260 -1.2002  1.3699
11900TIP3   OH257190   2.611   2.871   1.432  0.6509 -0.1824 -0.1145
11900TIP3    H157191   2.541   2.924   1.472  1.9163 -0.3051  2.4417
11900TIP3    H257192   2.659   2.933   1.377  0.2864  0.5939  0.4237
11901TIP3   OH257193   0.894   2.145   4.993  0.2440  0.0786  0.4739
11901TIP3    H157194   0.912   2.203   4.919  0.9379 -0.8751 -0.1420
11901TIP3    H257195   0.926   2.059   4.964 -1.1226 -0.7046  1.1933
11902TIP3   OH257196   1.105   3.805   5.558 -0.5216 -0.2522 -0.2197
11902TIP3    H157197   1.156   3.874   5.600 -1.8492 -0.0975  1.2525
11902TIP3    H257198   1.170   3.748   5.517  0.7603  0.4211  0.8133
11903TIP3   OH257199   4.665   3.540   3.135 -0.4677  0.7029 -0.0719
11903TIP3    H157200   4.609   3.534   3.213  0.2106 -1.3534  0.3223
11903TIP3    H257201   4.753   3.555   3.171 -0.1136 -0.4907 -0.3803
11904TIP3   OH257202   0.933   2.643   0.824  0.3113 -0.2660  0.2715
11904TIP3    H157203   0.975   2.715   0.777 -0.2590  1.3146  2.0501
11904TIP3    H257204   0.840   2.655   0.808  0.2874 -1.9392 -1.1538
11905TIP3   OH257205   2.901   3.308   2.221 -0.5278  0.1258  0.6188
11905TIP3    H157206   2.899   3.329   2.128  0.5345  0.2919  0.6206
11905TIP3    H257207   2.862   3.220   2.227  0.6364 -0.4585 -0.1540
11906TIP3   OH257208   6.689   1.965  16.725 -0.3747  0.5856  0.4220
11906TIP3    H157209   6.604   1.931  16.753 -0.5458 -0.1626 -0.9536
11906TIP3    H257210   6.743   1.961  16.804 -1.1817 -0.3175  0.9530
11907TIP3   OH257211   4.031   4.479  11.323 -0.6042 -0.0367  0.5077
11907TIP3    H157212   3.987   4.491  11.407 -0.5707 -0.5605  0.6007
11907TIP3    H257213   4.096   4.411  11.339 -1.6844 -1.3259 -0.3302
11908TIP3   OH257214   1.827   2.621   5.247 -0.3733  0.2131  0.3445
11908TIP3    H157215   1.735   2.597   5.238 -0.4634 -0.6879  2.7913
11908TIP3    H257216   1.869   2.543   5.283  1.2415  0.7895 -0.1967
11909TIP3   OH257217   1.521   5.289   4.354  0.2387 -0.1421 -0.4612
11909TIP3    H157218   1.473   5.209   4.372  0.9639 -0.4172  0.3057
11909TIP3    H257219   1.480   5.355   4.410  0.4611 -0.2751 -0.1386
11910TIP3   OH257220   5.455   4.054   1.877  0.4795 -0.1845  0.2331
11910TIP3    H157221   5.452   3.982   1.814  1.3052  0.4234 -0.5199
11910TIP3    H257222   5.529   4.033   1.935  0.0475 -0.4768  0.6889
11911TIP3   OH257223   6.019   3.219   1.595  0.4438 -0.2241 -0.2696
11911TIP3    H157224   6.081   3.157   1.555  0.2763 -0.8726  0.4567
11911TIP3    H257225   6.027   3.204   1.689 -1.2367 -0.7639 -0.1725
11912TIP3   OH257226   4.488   1.823  13.025 -0.0876  0.1779  0.2390
11912TIP3    H157227   4.469   1.804  12.933  0.8276  1.0001 -0.1477
11912TIP3    H257228   4.569   1.874  13.022 -0.4443  0.8531  1.4559
11913TIP3   OH257229   5.949   1.052   2.912 -0.0362  0.1232  1.0375
11913TIP3    H157230   5.924   1.126   2.857  0.5998 -0.5377 -0.1977
11913TIP3    H257231   5.884   1.050   2.982  0.5872  2.5262  1.7595
11914TIP3   OH257232   0.309   5.268  10.896  0.1230  0.2358 -0.2058
11914TIP3    H157233   0.288   5.297  10.807  1.0256 -1.5272 -1.0543
11914TIP3    H257234   0.394   5.224  10.887  0.4014  0.3298  1.6080
11915TIP3   OH257235   3.310   2.080  11.538 -0.1314 -0.4459 -0.2902
11915TIP3    H157236   3.279   2.158  11.491 -1.3432 -1.2701 -0.9062
11915TIP3    H257237   3.235   2.021  11.538  1.3123 -2.3789 -1.4540
11916TIP3   OH257238   1.529   0.229   6.668 -0.5852 -0.0271  0.0941
11916TIP3    H157239   1.570   0.311   6.638 -1.5607 -0.1886 -1.8752
11916TIP3    H257240   1.602   0.171   6.687  0.1265  0.3497 -1.3546
11917TIP3   OH257241   4.082   0.577  11.850  0.3564  0.4151  0.1939
11917TIP3    H157242   4.167   0.620  11.844  0.2725  0.5543 -0.0072
11917TIP3    H257243   4.019   0.648  11.837  0.2153 -0.0637 -2.1361
11918TIP3   OH257244   1.274   3.553   4.361  0.2266  0.0164  0.4304
11918TIP3    H157245   1.352   3.595   4.324  0.6588 -0.9533  0.2203
11918TIP3    H257246   1.201   3.608   4.331  0.8135  0.9360  0.6350
11919TIP3   OH257247   1.742   0.740  15.643 -0.6649 -0.4612 -0.1008
11919TIP3    H157248   1.734   0.828  15.679 -0.9989 -0.1506 -0.8955
11919TIP3    H257249   1.651   0.712  15.628 -0.5416 -0.5049 -0.8393
11920TIP3   OH257250   4.854   1.771   0.926 -0.2205 -0.0770 -0.4621
11920TIP3    H157251   4.846   1.853   0.877  0.8415 -0.6017 -1.5507
11920TIP3    H257252   4.878   1.706   0.861  1.2392 -0.8100  0.7412
11921TIP3   OH257253   5.237   3.859  11.889  0.0674 -0.2525  0.4800
11921TIP3    H157254   5.285   3.935  11.855 -1.1282  0.8573  1.1697
11921TIP3    H257255   5.147   3.873  11.861 -0.1911 -1.4107  0.6653
11922TIP3   OH257256   2.879   1.329  13.335 -0.1630  0.0176  0.1994
11922TIP3    H157257   2.868   1.376  13.252 -0.5950 -0.2558  0.0977
11922TIP3    H257258   2.835   1.245  13.321  0.4069 -0.3296  0.4549
11923TIP3   OH257259   2.166   3.874  16.025 -0.5600 -0.2189 -0.3475
11923TIP3    H157260   2.136   3.905  16.111  2.0485  0.3448  0.4401
11923TIP3    H257261   2.189   3.782  16.039 -0.3063 -0.1772 -0.4804
11924TIP3   OH257262   3.559   1.578  11.105  0.3167 -0.3064 -0.2809
11924TIP3    H157263   3.568   1.577  11.200  0.2454  0.1068 -0.2666
11924TIP3    H257264   3.505   1.501  11.085  0.7536 -0.6805 -0.0359
11925TIP3   OH257265   4.779   1.212   2.717  0.1898 -0.3531 -0.0036
11925TIP3    H157266   4.693   1.185   2.685  0.4769  0.2535 -1.3896
11925TIP3    H257267   4.803   1.146   2.781 -2.0592  0.4160  1.7573
11926TIP3   OH257268   4.311   3.337   2.161  0.6093  0.3234  0.4730
11926TIP3    H157269   4.364   3.339   2.081 -0.1028 -0.2686 -0.0253
11926TIP3    H257270   4.333   3.254   2.203  0.2171  0.1559  0.3532
11927TIP3   OH257271   3.884   1.064   2.271  0.0897  0.3092 -0.0286
11927TIP3    H157272   3.821   1.070   2.199  0.2183  1.1367 -0.0876
11927TIP3    H257273   3.851   0.993   2.325 -1.6361  1.5239  0.6177
11928TIP3   OH257274   3.176   6.292  15.764  0.1967  0.5587  0.0142
11928TIP3    H157275   3.232   6.324  15.694 -0.7755  0.6225 -0.7584
11928TIP3    H257276   3.194   6.198  15.767  2.0584  0.8989  1.3809
11929TIP3   OH257277   5.625   5.255   3.161  0.3270  0.3573 -0.1787
11929TIP3    H157278   5.544   5.210   3.135 -0.3971  0.6610  1.4355
11929TIP3    H257279   5.688   5.231   3.093 -0.6654 -1.2343 -0.5994
11930TIP3   OH257280   5.096   3.252  14.639  0.8837  0.2664  0.3075
11930TIP3    H157281   5.059   3.165  14.656  2.5355 -0.8453 -1.3743
11930TIP3    H257282   5.020   3.311  14.638 -0.1116 -0.6986  3.5867
11931TIP3   OH257283   5.447   2.050  10.738  0.2033  0.6647  0.6706
11931TIP3    H157284   5.511   2.121  10.745 -1.1641  2.3289 -2.0086
11931TIP3    H257285   5.392   2.075  10.664 -1.5237 -2.3174  0.7984
11932TIP3   OH257286   3.948   1.682   3.123  0.2454 -0.3591  0.3890
11932TIP3    H157287   3.968   1.773   3.103 -2.0023 -0.0955 -0.9451
11932TIP3    H257288   4.007   1.632   3.066  0.3388  0.2834 -0.0931
11933TIP3   OH257289   4.608   3.394   0.865 -0.0502 -0.0614  0.0490
11933TIP3    H157290   4.571   3.481   0.854  0.1847 -0.1033 -1.2618
11933TIP3    H257291   4.534   3.339   0.891 -0.7825  0.0203 -1.6956
11934TIP3   OH257292   3.506   3.079  12.146 -0.4427  0.4604 -0.3067
11934TIP3    H157293   3.458   3.161  12.131  2.4400  2.2789 -0.3304
11934TIP3    H257294   3.597   3.106  12.156  0.8670 -2.9262 -1.6993
11935TIP3   OH257295   4.309   1.123  11.243 -0.6079  0.2272 -0.6540
11935TIP3    H157296   4.219   1.102  11.216 -0.7078 -0.0002 -0.1675
11935TIP3    H257297   4.341   1.183  11.176 -0.1345 -1.8525 -2.3673
11936TIP3   OH257298   5.153   2.634   2.290  0.1374 -0.0068  0.3514
11936TIP3    H157299   5.163   2.566   2.223 -0.5450  1.6387 -1.5165
11936TIP3    H257300   5.171   2.589   2.372  0.3574 -2.2839 -0.8552
11937TIP3   OH257301   3.066   4.594  15.374  0.3674  0.1363  0.5458
11937TIP3    H157302   2.976   4.571  15.397  0.8672 -1.6846  0.8082
11937TIP3    H257303   3.071   4.688  15.391 -1.5122  0.3064  0.3917
11938TIP3   OH257304   2.075   2.887  12.623 -0.5121  0.1038  0.4737
11938TIP3    H157305   2.156   2.854  12.662 -1.3858 -2.0611  0.6039
11938TIP3    H257306   2.042   2.814  12.570 -2.5332  0.8132  0.6473
11939TIP3   OH257307   1.323   0.985  15.666 -0.2589  0.1439  0.3653
11939TIP3    H157308   1.257   1.053  15.649 -0.6238 -0.4164 -0.5837
11939TIP3    H257309   1.281   0.904  15.639  0.7072 -0.2665  0.0372
11940TIP3   OH257310   1.174   4.620  12.600 -0.1992  0.9087 -0.5189
11940TIP3    H157311   1.209   4.532  12.605 -1.7837  0.0820 -2.4865
11940TIP3    H257312   1.172   4.640  12.506 -0.6620  2.6972 -0.1683
11941TIP3   OH257313   0.363   2.845  15.647 -1.1476  0.0398  0.5823
11941TIP3    H157314   0.334   2.753  15.646 -1.3186  0.0356  2.3404
11941TIP3    H257315   0.293   2.891  15.693 -0.1769  0.7227  1.4139
11942TIP3   OH257316   4.925   6.059  15.171  0.0382  0.2398  0.0046
11942TIP3    H157317   4.931   6.015  15.255  0.9270 -0.7407 -0.5496
11942TIP3    H257318   4.951   6.149  15.189  0.0058  0.0905  0.8189
11943TIP3   OH257319   1.789   1.536   2.668 -0.4151 -0.4915  0.0400
11943TIP3    H157320   1.794   1.631   2.654 -0.7712  0.1867  3.6273
11943TIP3    H257321   1.836   1.498   2.593 -2.7841  2.2769 -3.1681
11944TIP3   OH257322   2.263   6.564   1.508  0.0457 -0.5273  0.4063
11944TIP3    H157323   2.303   6.483   1.538  1.3912 -0.1730 -0.3120
11944TIP3    H257324   2.302   6.632   1.564  0.0805 -0.2310  0.0345
11945TIP3   OH257325   4.173   4.264   4.698 -0.3305  0.3719 -0.8023
11945TIP3    H157326   4.193   4.181   4.741 -0.1012 -0.4548 -2.4136
11945TIP3    H257327   4.089   4.291   4.735  1.6658  1.9008  3.2071
11946TIP3   OH257328   6.745   6.173  10.775  0.0023 -0.1015 -0.2956
11946TIP3    H157329   6.807   6.153  10.704 -0.5597 -1.7476 -0.3719
11946TIP3    H257330   6.771   6.115  10.846  0.0255  0.9263  0.5543
11947TIP3   OH257331   4.573   1.201  10.609  0.1206 -0.3582  0.1457
11947TIP3    H157332   4.579   1.227  10.517  0.6105  2.1382  0.8005
11947TIP3    H257333   4.664   1.192  10.637 -0.0235 -0.9499  0.4293
11948TIP3   OH257334   6.257   0.879   4.715 -0.2580  0.3387  0.3661
11948TIP3    H157335   6.328   0.865   4.654  0.5760 -0.0488  1.4003
11948TIP3    H257336   6.298   0.878   4.802 -1.3867  0.9493  0.9422
11949TIP3   OH257337   3.063   5.353   0.235  0.1016 -0.0219  0.0646
11949TIP3    H157338   3.102   5.283   0.288  0.2128 -0.3477 -0.4476
11949TIP3    H257339   3.040   5.420   0.299 -1.0063 -0.9750  0.7108
11950TIP3   OH257340   4.213   5.872  16.628  0.5079 -0.2940  0.0714
11950TIP3    H157341   4.234   5.837  16.715  0.4598 -2.2203 -0.6331
11950TIP3    H257342   4.121   5.897  16.634  0.3927 -0.7879  0.4691
11951TIP3   OH257343   6.337   2.050  14.682 -0.3892  0.4700 -0.6584
11951TIP3    H157344   6.410   2.072  14.740 -0.0412  0.3768 -1.0517
11951TIP3    H257345   6.379   2.029  14.599 -0.5479 -2.7249 -0.0673
11952TIP3   OH257346   6.292   6.434   4.373 -0.3250 -0.3461 -0.3110
11952TIP3    H157347   6.249   6.360   4.329 -1.5897 -0.1773  0.5881
11952TIP3    H257348   6.251   6.511   4.333 -0.7535 -0.1772  0.4489
11953TIP3   OH257349   6.397   6.363  12.045 -0.1423  0.1956 -0.3377
11953TIP3    H157350   6.399   6.339  11.953  0.0460  1.2186 -0.6160
11953TIP3    H257351   6.488   6.350  12.075 -0.0323  0.5825 -0.4970
11954TIP3   OH257352   4.261   4.641   0.175  0.0037 -0.6511  0.4336
11954TIP3    H157353   4.176   4.604   0.151 -0.2543 -0.9165  1.7269
11954TIP3    H257354   4.257   4.654   0.269  0.8509  0.7822  0.3025
11955TIP3   OH257355   4.925   1.403   0.429 -0.3124  0.3934  0.1844
11955TIP3    H157356   4.933   1.320   0.382  0.0690 -0.4418  1.6736
11955TIP3    H257357   4.987   1.396   0.501 -0.6217  1.7931  0.6198
11956TIP3   OH257358   6.548   1.315   1.456  0.0763  0.1781 -0.2679
11956TIP3    H157359   6.550   1.222   1.434 -1.4118 -0.1249  0.7114
11956TIP3    H257360   6.579   1.320   1.546  2.0376  0.9004 -0.9324
11957TIP3   OH257361   0.200   2.045  16.663  1.0524 -0.3683  0.2004
11957TIP3    H157362   0.251   1.964  16.654  0.1397 -0.8336 -1.1302
11957TIP3    H257363   0.111   2.015  16.680  1.1386  0.4329  2.4531
11958TIP3   OH257364   3.104   5.044   4.775 -0.0171 -0.2872 -0.6072
11958TIP3    H157365   3.110   5.120   4.832 -0.9696 -1.3556  0.9892
11958TIP3    H257366   3.087   5.081   4.688  1.2450  1.3675 -0.2134
11959TIP3   OH257367   3.493   1.904   2.625  0.0080 -0.2244 -0.3583
11959TIP3    H157368   3.559   1.968   2.596  0.7221 -0.4308  0.7453
11959TIP3    H257369   3.430   1.901   2.553 -0.1820  1.9027 -0.3492
11960TIP3   OH257370   1.348   0.942   1.733 -0.1676 -0.1266 -0.1215
11960TIP3    H157371   1.333   1.032   1.762  1.8405  0.4152 -0.6271
11960TIP3    H257372   1.266   0.917   1.691 -0.7962  1.4351  0.1099
11961TIP3   OH257373   6.263   4.496  10.684 -0.0699 -0.1167 -0.1392
11961TIP3    H157374   6.173   4.501  10.652 -0.0568 -1.8135 -0.5467
11961TIP3    H257375   6.258   4.442  10.763  0.6384 -0.7129 -0.4822
11962TIP3   OH257376   2.807   1.695   0.865  0.4350  0.3641  0.3253
11962TIP3    H157377   2.825   1.742   0.947 -0.4066  1.3212 -0.0242
11962TIP3    H257378   2.722   1.654   0.878  0.6722 -0.1702  0.2243
11963TIP3   OH257379   0.061   4.844  16.867  0.0269  1.1806  0.2286
11963TIP3    H157380   0.058   4.765  16.813  0.5298  1.3240 -0.0181
11963TIP3    H257381  -0.028   4.853  16.902 -0.5650  1.5445 -1.2552
11964TIP3   OH257382   1.060   1.192   5.717 -0.7926 -0.2832 -0.2503
11964TIP3    H157383   1.101   1.270   5.756  0.2786 -0.4952 -0.9231
11964TIP3    H257384   1.014   1.150   5.790 -2.6610  1.7412 -0.1485
11965TIP3   OH257385   5.841   2.625  13.848 -0.1252 -0.3550  0.1038
11965TIP3    H157386   5.854   2.719  13.837  0.4408 -0.6152 -1.9934
11965TIP3    H257387   5.749   2.615  13.870  0.2407  0.7723  2.5439
11966TIP3   OH257388   5.716   0.446   5.094  0.2604 -0.7902 -0.5046
11966TIP3    H157389   5.669   0.372   5.055  0.1013 -0.0804 -1.7013
11966TIP3    H257390   5.805   0.437   5.062  0.1804 -0.3186 -0.8663
11967TIP3   OH257391   5.434   0.035  15.514  0.1345 -0.0923  0.1943
11967TIP3    H157392   5.365   0.059  15.575 -0.4040  0.1694 -0.5036
11967TIP3    H257393   5.460   0.118  15.474 -0.8877 -0.4622 -1.3436
11968TIP3   OH257394   4.609   0.017   0.977  0.2189  0.1342 -0.0921
11968TIP3    H157395   4.592   0.106   0.947  0.4780  0.2358  0.0607
11968TIP3    H257396   4.523  -0.019   0.996 -0.0342 -0.1788 -1.6625
11969TIP3   OH257397   3.728   4.324   6.197 -0.3430 -0.2815 -0.0465
11969TIP3    H157398   3.817   4.341   6.166  0.1166 -1.3286  0.6555
11969TIP3    H257399   3.674   4.388   6.150  0.9261  1.2678  0.4862
11970TIP3   OH257400   0.036   0.811   4.869 -0.2857  0.5705 -0.3565
11970TIP3    H157401   0.070   0.722   4.861 -1.3463  0.2954 -2.1699
11970TIP3    H257402  -0.014   0.810   4.951 -1.1833 -0.8383 -0.8912
11971TIP3   OH257403   2.246   0.129  10.287 -0.3015  0.2354 -0.6392
11971TIP3    H157404   2.300   0.122  10.366 -0.0773  1.3655 -0.6850
11971TIP3    H257405   2.284   0.065  10.226  0.9712  0.9855 -0.6603
11972TIP3   OH257406   5.100   0.815  15.881  0.3539 -1.1906  0.1484
11972TIP3    H157407   5.050   0.845  15.958 -1.8453 -1.1699 -1.1821
11972TIP3    H257408   5.076   0.723  15.872  0.8588 -1.2769 -0.3371
11973TIP3   OH257409   5.918   2.560   2.642  0.4587 -0.1967 -0.5448
11973TIP3    H157410   5.878   2.485   2.598 -0.6246 -0.5233  0.9634
11973TIP3    H257411   5.988   2.522   2.695 -0.2337 -0.1894  0.3938
11974TIP3   OH257412   3.562   0.542  15.290 -0.3081 -0.1401  0.1054
11974TIP3    H157413   3.483   0.535  15.236 -1.6376  0.7319  1.8019
11974TIP3    H257414   3.632   0.561  15.229 -0.7022 -4.0876 -1.9278
11975TIP3   OH257415   6.716   2.333   0.967 -0.3568  0.2058  0.2826
11975TIP3    H157416   6.773   2.332   1.044 -0.1256 -0.8762  0.1217
11975TIP3    H257417   6.633   2.297   0.998 -0.3291 -0.0330  0.0897
11976TIP3   OH257418   2.306   0.327  14.092 -0.4580  0.1459  0.7482
11976TIP3    H157419   2.299   0.412  14.049  0.2993  0.2188  0.7545
11976TIP3    H257420   2.376   0.338  14.156  0.0614 -0.6505  0.3324
11977TIP3   OH257421   3.695   0.126   4.625  0.0194  0.6103 -0.4649
11977TIP3    H157422   3.706   0.211   4.666 -2.0076  1.0760 -0.7814
11977TIP3    H257423   3.684   0.144   4.532  4.0972 -0.4040 -1.3300
11978TIP3   OH257424   3.256   6.406  11.928 -0.5772  0.6876 -0.3517
11978TIP3    H157425   3.314   6.365  11.992  0.2781 -0.2079 -1.6471
11978TIP3    H257426   3.173   6.361  11.939 -1.1967  2.1963  1.7365
11979TIP3   OH257427   5.271   6.042  15.287  0.2856 -0.4737  0.3692
11979TIP3    H157428   5.272   6.116  15.227 -0.0625 -0.7349  0.0321
11979TIP3    H257429   5.275   6.080  15.374  4.0303 -0.1102  0.2212
11980TIP3   OH257430   6.632   1.749   1.196 -0.0082  0.0855  0.1549
11980TIP3    H157431   6.547   1.704   1.193  0.1799 -0.3797  1.3807
11980TIP3    H257432   6.682   1.701   1.262  0.5674  1.4834  0.7632
11981TIP3   OH257433   3.758   0.867   0.808 -0.2728  0.0594  0.2800
11981TIP3    H157434   3.735   0.823   0.727 -0.9702  2.5045 -0.9524
11981TIP3    H257435   3.680   0.858   0.863 -0.3640 -0.3190  0.0918
11982TIP3   OH257436   0.571   6.084   0.775  0.4202 -0.0328  0.1408
11982TIP3    H157437   0.499   6.136   0.810  0.3719 -1.6038  2.7127
11982TIP3    H257438   0.544   5.993   0.791  2.4800 -0.6958  0.1650
11983TIP3   OH257439   0.794   4.429  16.265  0.4219  0.3229 -0.0746
11983TIP3    H157440   0.846   4.384  16.198  0.6112  1.0427 -0.4218
11983TIP3    H257441   0.712   4.380  16.269  0.7396 -0.2235 -0.2366
11984TIP3   OH257442   1.075   0.169   6.398 -0.0374 -0.1465  0.2648
11984TIP3    H157443   0.985   0.194   6.422 -0.0262  0.6216 -0.4757
11984TIP3    H257444   1.130   0.210   6.465 -0.2389 -0.9332  0.9469
11985TIP3   OH257445   3.716   1.946   2.294 -0.5010  0.3558  0.0722
11985TIP3    H157446   3.652   1.920   2.228 -0.4040  0.8058 -0.1987
11985TIP3    H257447   3.714   1.875   2.358 -0.1506 -0.3802 -0.7218
11986TIP3   OH257448   3.508   5.395  15.685 -0.1642  0.2494  0.1417
11986TIP3    H157449   3.570   5.337  15.729 -0.7866 -0.5485 -0.0239
11986TIP3    H257450   3.424   5.375  15.725 -0.7455 -0.4876 -1.3907
11987TIP3   OH257451   4.440   4.578   3.285  0.1533  0.2327  0.3627
11987TIP3    H157452   4.478   4.492   3.268  0.9415  0.2579  1.7933
11987TIP3    H257453   4.516   4.634   3.303 -0.4499  0.6805  1.6454
11988TIP3   OH257454   3.244   5.047   0.655  0.6502 -0.1166 -0.0637
11988TIP3    H157455   3.273   5.024   0.567 -0.4692  1.4875 -0.9090
11988TIP3    H257456   3.305   5.114   0.685  1.8819 -1.6301  1.0223
11989TIP3   OH257457   0.178   3.236   2.217 -0.0973  0.1838 -0.7484
11989TIP3    H157458   0.133   3.190   2.288  0.7334 -1.3432 -1.1846
11989TIP3    H257459   0.113   3.299   2.185  0.1106  2.3849  2.6162
11990TIP3   OH257460   3.631   2.572   5.429  0.3999  0.0793 -0.0956
11990TIP3    H157461   3.585   2.495   5.463  0.1232  0.3551  0.1570
11990TIP3    H257462   3.566   2.642   5.431  0.0782 -0.0969 -2.0700
11991TIP3   OH257463   5.567   1.980   1.033  0.0510  0.2780 -0.2050
11991TIP3    H157464   5.640   1.938   1.076 -0.0995  0.1199 -0.1042
11991TIP3    H257465   5.513   2.014   1.105 -0.9834 -1.2803 -0.1957
11992TIP3   OH257466   0.739   5.990  16.251 -0.7007  0.1918  0.8609
11992TIP3    H157467   0.714   5.924  16.186 -0.8195 -1.9094  2.9282
11992TIP3    H257468   0.815   6.034  16.212 -1.8640  0.3148 -1.4699
11993TIP3   OH257469   2.655   5.238  11.775 -0.0176 -0.2669  0.3577
11993TIP3    H157470   2.595   5.190  11.832 -2.2334  1.2935 -0.5188
11993TIP3    H257471   2.669   5.322  11.819 -2.2688  1.2293 -1.4831
11994TIP3   OH257472   6.504   4.111   4.628  0.1518  0.1485 -0.4159
11994TIP3    H157473   6.436   4.176   4.613 -1.2499 -1.3026 -0.5741
11994TIP3    H257474   6.460   4.039   4.674  1.7441 -0.5118  0.1487
11995TIP3   OH257475   3.253   0.967   3.328 -0.9899  0.0717 -0.6373
11995TIP3    H157476   3.306   0.993   3.403 -2.0220 -1.1174  0.5510
11995TIP3    H257477   3.273   1.033   3.261  1.2541  0.1751  0.0536
11996TIP3   OH257478   4.953   2.486  13.763  0.4920 -0.8335  0.0365
11996TIP3    H157479   4.929   2.531  13.683  0.0098 -2.1971 -0.6192
11996TIP3    H257480   5.045   2.509  13.777  0.7943 -1.1368 -1.3116
11997TIP3   OH257481   6.329   1.982   2.563  0.0817  0.0690  0.9390
11997TIP3    H157482   6.284   1.901   2.538 -0.7636  0.5883  0.7376
11997TIP3    H257483   6.371   1.961   2.647  1.9205 -1.3197 -0.2485
11998TIP3   OH257484   6.804   2.855  11.381 -0.0218 -0.6928  0.3274
11998TIP3    H157485   6.797   2.932  11.438  1.5224 -1.4086  1.5418
11998TIP3    H257486   6.713   2.828  11.367 -0.8244  2.4223 -1.7317
11999TIP3   OH257487   6.725   2.777  11.022  0.1059 -0.0564 -0.0081
11999TIP3    H157488   6.666   2.703  11.035  0.2525 -0.2648 -0.5212
11999TIP3    H257489   6.813   2.740  11.027  0.1770  0.0282 -0.5638
12000TIP3   OH257490   5.392   1.426  15.980  0.1390  0.4797 -0.1064
12000TIP3    H157491   5.404   1.493  15.913 -0.6444  0.1886 -0.5574
12000TIP3    H257492   5.422   1.467  16.061  5.0766 -0.4670 -1.1330
12001TIP3   OH257493   5.000   1.658   2.980 -0.1932  0.4377 -0.2923
12001TIP3    H157494   5.070   1.665   3.044 -0.0057 -1.4909 -0.2251
12001TIP3    H257495   4.947   1.736   2.994  0.1854  0.3818  1.7926
12002TIP3   OH257496   2.472   0.534   5.773 -0.1312  0.5159  0.2160
12002TIP3    H157497   2.415   0.490   5.711 -0.3417 -0.1616  0.8745
12002TIP3    H257498   2.414   0.557   5.846  0.0569  1.5282  0.0588
12003TIP3   OH257499   6.192   1.087   0.756 -0.5496 -0.9347 -0.1216
12003TIP3    H157500   6.286   1.086   0.773 -0.8065 -0.8120  1.4751
12003TIP3    H257501   6.184   1.068   0.663  1.1979  2.0777 -1.0152
12004TIP3   OH257502   1.231   4.941   1.454  0.3025 -0.6948  0.3135
12004TIP3    H157503   1.234   5.033   1.430 -1.0830 -0.7091  0.0001
12004TIP3    H257504   1.316   4.923   1.493  0.8186  0.5525 -0.2088
12005TIP3   OH257505   1.788   3.783  14.411  0.2896 -0.1840  0.7772
12005TIP3    H157506   1.866   3.735  14.440  1.1257  1.4027  1.2919
12005TIP3    H257507   1.802   3.872  14.443 -1.6491  0.1941  0.6726
12006TIP3   OH257508   1.702   3.205   1.823  0.2428  0.8486 -0.3897
12006TIP3    H157509   1.755   3.160   1.758  0.4130  1.1916 -0.4952
12006TIP3    H257510   1.679   3.138   1.887  0.6343  0.6510 -0.4550
12007TIP3   OH257511   4.071   3.997  14.293  0.5191  0.2997  0.3955
12007TIP3    H157512   4.085   4.080  14.248 -0.5371 -0.1266 -0.7609
12007TIP3    H257513   4.098   4.015  14.383  1.2229  1.6108 -0.0410
12008TIP3   OH257514   5.760   1.092   3.093 -0.0500 -0.8702 -0.1152
12008TIP3    H157515   5.692   1.131   3.039 -0.5109  0.9459  1.6695
12008TIP3    H257516   5.714   1.055   3.168  0.8535  0.3684  1.1093
12009TIP3   OH257517   4.968   0.422  16.422 -0.3355  0.1533 -0.6394
12009TIP3    H157518   5.039   0.358  16.427 -0.6325 -0.1419 -0.0690
12009TIP3    H257519   5.012   0.507  16.412  0.1908  0.1897  1.5465
12010TIP3   OH257520   4.865   5.280  16.151  0.1811  0.1439  0.4659
12010TIP3    H157521   4.776   5.247  16.165 -0.6478  1.5137 -1.2714
12010TIP3    H257522   4.911   5.208  16.107  0.4595 -1.1348  2.6544
12011TIP3   OH257523   5.159   4.536  14.607  0.4288 -0.3826  0.3869
12011TIP3    H157524   5.233   4.597  14.601  0.4410 -0.5208 -2.7433
12011TIP3    H257525   5.198   4.450  14.596  0.0100 -0.6192  0.7541
12012TIP3   OH257526   3.592   5.865   4.039 -0.7722  0.0199  0.1686
12012TIP3    H157527   3.644   5.857   4.118 -1.1968 -0.5340  0.4011
12012TIP3    H257528   3.506   5.831   4.063 -1.1484  0.6162 -0.3006
12013TIP3   OH257529   5.578   5.439   3.400  0.3902  0.2739  0.8333
12013TIP3    H157530   5.667   5.455   3.430  0.9637  1.6425 -1.3572
12013TIP3    H257531   5.584   5.363   3.343  0.4511  1.1575 -0.3750
12014TIP3   OH257532   5.430   5.301   1.731  0.3598 -0.4190  0.0751
12014TIP3    H157533   5.398   5.286   1.642  0.1919  0.8453 -0.0867
12014TIP3    H257534   5.514   5.255   1.734  0.4235 -0.3692 -0.7739
12015TIP3   OH257535   4.595   5.006   2.144  0.4300 -0.6374  0.0191
12015TIP3    H157536   4.513   5.053   2.156  0.0410 -0.1459 -3.5592
12015TIP3    H257537   4.592   4.936   2.210 -2.5291 -0.2206  0.4652
12016TIP3   OH257538   1.653   2.913  15.621 -0.8576  0.6266  0.0076
12016TIP3    H157539   1.644   2.829  15.665 -3.1273  0.0195 -1.4482
12016TIP3    H257540   1.683   2.973  15.689 -1.5855 -0.8409  1.6745
12017TIP3   OH257541   6.482   5.316  14.527 -0.2102  0.2761 -0.4406
12017TIP3    H157542   6.427   5.301  14.604  2.6793 -1.8071  1.4042
12017TIP3    H257543   6.440   5.267  14.457 -2.0706  0.9370  0.1614
12018TIP3   OH257544   6.145   4.015   4.611 -0.1472 -0.2060  0.3007
12018TIP3    H157545   6.153   4.109   4.591 -0.3625 -0.1687  0.3899
12018TIP3    H257546   6.183   3.972   4.535  0.2777 -0.0405  0.4178
12019TIP3   OH257547   6.489   3.360   2.901 -0.7075 -0.0035  0.2019
12019TIP3    H157548   6.401   3.385   2.873 -1.2129 -1.5092  0.3593
12019TIP3    H257549   6.475   3.291   2.966  0.5386  1.1981  1.8309
12020TIP3   OH257550   5.866   0.704  16.788  0.5080  0.5892 -0.8452
12020TIP3    H157551   5.885   0.727  16.697 -1.4615  1.0990 -1.1734
12020TIP3    H257552   5.785   0.654  16.784  0.1789  0.9480  0.6624
12021TIP3   OH257553   3.949   2.860   2.993  0.2710 -0.1489  0.3968
12021TIP3    H157554   4.021   2.904   3.039  4.0784 -3.9209 -1.3181
12021TIP3    H257555   3.962   2.883   2.901 -1.5964  0.0963  0.1590
12022TIP3   OH257556   3.379   4.733  16.242 -1.4620 -0.5004 -0.6398
12022TIP3    H157557   3.348   4.687  16.320 -2.6185 -0.2649 -0.9413
12022TIP3    H257558   3.382   4.665  16.174  0.2338 -0.8619 -0.2457
12023TIP3   OH257559   0.087   3.348  16.596 -0.0038 -0.0228  0.0485
12023TIP3    H157560   0.151   3.381  16.659 -2.0106  1.2161  1.5524
12023TIP3    H257561   0.027   3.295  16.648  0.0795 -1.6258 -1.4241
12024TIP3   OH257562   1.566   1.506   1.949 -0.3457  0.0101 -0.2490
12024TIP3    H157563   1.508   1.524   1.875 -1.6217  0.7100  0.8804
12024TIP3    H257564   1.524   1.549   2.024  1.0960 -0.3591  0.8216
12025TIP3   OH257565   2.817   4.947  12.196  0.5902  0.9283  0.3860
12025TIP3    H157566   2.732   4.986  12.217 -0.9002 -2.4339  1.3407
12025TIP3    H257567   2.823   4.953  12.100  0.3329  3.0587  0.4528
12026TIP3   OH257568   4.230   6.606  12.954  0.1892 -0.6063  0.2518
12026TIP3    H157569   4.183   6.685  12.982  0.6834 -0.8315  1.7986
12026TIP3    H257570   4.184   6.534  12.998 -2.1132 -1.6221 -3.3585
12027TIP3   OH257571   1.040   0.413  14.338 -0.0860  0.7767  0.1710
12027TIP3    H157572   1.081   0.394  14.423 -0.9168  1.3784  0.7298
12027TIP3    H257573   1.003   0.501  14.349 -0.5476  0.6984 -0.6842
12028TIP3   OH257574   2.073   6.546   3.904  0.7814  0.2190 -0.8972
12028TIP3    H157575   2.119   6.577   3.982  1.0205  0.0290 -0.9633
12028TIP3    H257576   2.019   6.620   3.877  1.6586  0.7302 -1.2913
12029TIP3   OH257577   0.375   5.336   4.064  0.4908  0.2404 -0.2438
12029TIP3    H157578   0.321   5.377   3.997  0.9632  0.0865 -0.7211
12029TIP3    H257579   0.362   5.242   4.051  1.7627  0.1617 -1.1199
12030TIP3   OH257580   1.072   6.629  13.688  0.2611  0.9599  0.1718
12030TIP3    H157581   1.059   6.610  13.595  0.8625 -0.2232  0.3010
12030TIP3    H257582   0.985   6.654  13.721  0.0394  1.3416 -0.6891
12031TIP3   OH257583   0.978   1.450   4.617 -0.1915  0.2609 -0.3671
12031TIP3    H157584   0.883   1.452   4.615 -0.1824  0.5328 -2.2868
12031TIP3    H257585   0.999   1.390   4.689 -1.8451 -1.2980 -1.1023
12032TIP3   OH257586   2.331   1.540  13.788 -0.1375  0.0689  0.3214
12032TIP3    H157587   2.346   1.604  13.857 -0.2363 -1.5462  1.9009
12032TIP3    H257588   2.341   1.590  13.707 -2.5115  2.6122  1.4343
12033TIP3   OH257589   6.225   5.295  10.720  0.1033  0.2685  0.3749
12033TIP3    H157590   6.199   5.275  10.631 -0.2867 -0.6648  0.6847
12033TIP3    H257591   6.175   5.234  10.774  1.4134 -0.1982  1.1188
12034TIP3   OH257592   6.730   3.094  17.066  0.5480 -0.0074  0.2327
12034TIP3    H157593   6.778   3.164  17.111 -0.4104  0.6874  0.2185
12034TIP3    H257594   6.780   3.078  16.986  0.0395  1.6928 -0.4887
12035TIP3   OH257595   1.125   4.988   0.797  0.2192  0.6830  0.3787
12035TIP3    H157596   1.209   4.947   0.817 -0.0443  0.4080  0.9420
12035TIP3    H257597   1.075   4.918   0.754  0.6280  1.1416 -0.8798
12036TIP3   OH257598   1.031   3.589  11.516  0.0661 -0.9103  0.1330
12036TIP3    H157599   1.080   3.510  11.538 -0.6840 -1.6546 -0.7642
12036TIP3    H257600   0.955   3.558  11.466 -0.0649  0.3963 -0.5494
12037TIP3   OH257601   3.952   0.715   4.306 -0.0080  0.3264 -0.5862
12037TIP3    H157602   3.914   0.664   4.234 -1.1727 -0.9841  0.8854
12037TIP3    H257603   4.016   0.655   4.345 -0.5330  0.4241  0.4378
12038TIP3   OH257604   4.846   0.390  16.869 -0.6750 -0.0513 -0.2768
12038TIP3    H157605   4.832   0.371  16.776 -2.4457  0.6448 -0.1867
12038TIP3    H257606   4.870   0.482  16.872 -0.6580 -0.0619 -0.0454
12039TIP3   OH257607   3.303   6.230   5.407  0.5383 -0.3988  0.5943
12039TIP3    H157608   3.219   6.267   5.376  0.2219 -0.0329  1.8126
12039TIP3    H257609   3.343   6.302   5.456  0.7351 -1.1124  1.5178
12040TIP3   OH257610   3.418   4.806   3.408  0.5444  0.2067 -0.3685
12040TIP3    H157611   3.389   4.729   3.456  2.5620 -1.0624 -1.0909
12040TIP3    H257612   3.509   4.819   3.435  0.9959  0.8605 -2.0655
12041TIP3   OH257613   2.288   5.140   2.122  0.5737 -0.1110 -0.0306
12041TIP3    H157614   2.354   5.182   2.065  0.4235 -0.9545 -0.8438
12041TIP3    H257615   2.307   5.047   2.115 -0.9511 -0.3977 -0.5904
12042TIP3   OH257616   3.696   1.827   1.277  0.0120  0.0355  0.2023
12042TIP3    H157617   3.705   1.847   1.183  2.6338 -0.7066  0.2214
12042TIP3    H257618   3.758   1.886   1.320 -2.3073  1.5331  1.7298
12043TIP3   OH257619   3.589   1.036   5.137  0.1827  0.1235 -0.5143
12043TIP3    H157620   3.604   0.971   5.205 -2.3355  0.0923  0.1212
12043TIP3    H257621   3.540   0.989   5.069 -0.5271  1.0006 -0.6443
12044TIP3   OH257622   1.598   5.924  14.937 -0.6286 -0.0109 -0.2195
12044TIP3    H157623   1.692   5.936  14.952  0.0810 -2.4986 -1.9701
12044TIP3    H257624   1.565   5.888  15.020  0.0268  0.5457  0.2950
12045TIP3   OH257625   0.660   5.652   3.397 -0.1310 -0.6489 -0.3808
12045TIP3    H157626   0.663   5.589   3.324  2.2553  0.7646 -1.6235
12045TIP3    H257627   0.740   5.636   3.445 -2.7669 -3.3611  3.7988
12046TIP3   OH257628   1.618   1.206  10.909 -0.1611  0.0941  0.2570
12046TIP3    H157629   1.523   1.203  10.908 -0.1842  0.7224  0.3160
12046TIP3    H257630   1.642   1.259  10.833  0.1336  0.0748  0.3335
12047TIP3   OH257631   6.779   1.034  15.639  0.1365 -0.1431  0.2673
12047TIP3    H157632   6.819   0.957  15.680 -1.1106  0.0850  2.0235
12047TIP3    H257633   6.684   1.018  15.646 -0.1418  1.5019  0.6052
12048TIP3   OH257634   5.457   4.510  12.407  0.6497 -0.2209  0.2007
12048TIP3    H157635   5.456   4.452  12.483 -0.9285 -0.0999  0.3007
12048TIP3    H257636   5.469   4.451  12.332  3.1663 -0.2625  0.5330
12049TIP3   OH257637   4.058   1.354   6.676 -0.0006  0.2434 -0.1089
12049TIP3    H157638   4.131   1.415   6.667  1.4342 -1.2758  0.6645
12049TIP3    H257639   4.083   1.278   6.623  0.1871 -1.3119  2.0647
12050TIP3   OH257640   4.392   0.352  11.718  0.0913 -0.0114  0.6902
12050TIP3    H157641   4.365   0.282  11.657 -0.9856  0.0923  1.0131
12050TIP3    H257642   4.390   0.310  11.804 -0.4821  0.3788  0.8762
12051TIP3   OH257643   4.816   1.093  13.702  0.4664  0.1865 -0.4346
12051TIP3    H157644   4.828   1.050  13.788  2.5682  1.9576  0.2512
12051TIP3    H257645   4.865   1.037  13.641 -1.2113 -1.1978 -0.5757
12052TIP3   OH257646   4.731   6.575  13.912  0.1455 -0.0390 -0.7567
12052TIP3    H157647   4.727   6.664  13.879 -3.0496  0.6421  1.0329
12052TIP3    H257648   4.743   6.584  14.007  2.6483 -1.6935 -0.8084
12053TIP3   OH257649   1.768   2.137  12.264  0.2904 -0.3121 -0.6353
12053TIP3    H157650   1.702   2.159  12.198 -0.8207  0.9823  0.8288
12053TIP3    H257651   1.719   2.130  12.346  1.9922  0.8682  0.5437
12054TIP3   OH257652   1.865   2.144   3.853 -0.2494  0.1597  0.1066
12054TIP3    H157653   1.841   2.236   3.845  2.7656  1.2625  1.9552
12054TIP3    H257654   1.800   2.108   3.914 -0.8413  1.3356  0.1985
12055TIP3   OH257655   5.984   0.300  11.445 -0.2930 -0.5211 -0.3214
12055TIP3    H157656   6.016   0.218  11.483 -1.4045 -1.5868 -1.6302
12055TIP3    H257657   5.915   0.329  11.505  1.7244  0.8529  1.5283
12056TIP3   OH257658   2.934   4.091   4.663 -0.4062  0.2015  0.5154
12056TIP3    H157659   2.886   4.026   4.612  0.5789 -1.2078  1.3162
12056TIP3    H257660   2.876   4.112   4.737 -0.4375 -0.3047  0.6361
12057TIP3   OH257661   2.445   0.012   2.496 -0.2897 -0.0021  0.0326
12057TIP3    H157662   2.359   0.020   2.454  0.3178  0.6119 -1.1384
12057TIP3    H257663   2.475   0.102   2.507  0.1144 -0.2069  0.6493
12058TIP3   OH257664   3.968   2.383   4.786 -0.1838  0.1390  0.7614
12058TIP3    H157665   3.984   2.457   4.727 -1.1641  0.3975  0.8060
12058TIP3    H257666   3.995   2.414   4.872 -2.2893  1.1466  1.1292
12059TIP3   OH257667   0.462   3.412  13.136 -0.0761 -0.1545  0.3472
12059TIP3    H157668   0.513   3.459  13.069 -0.5762 -2.4617 -1.8433
12059TIP3    H257669   0.508   3.328  13.145 -1.0104 -0.5452  1.6660
12060TIP3   OH257670   0.198   1.533   5.194  0.4933 -0.0055 -0.0061
12060TIP3    H157671   0.193   1.628   5.205 -1.5854 -0.0190 -0.5264
12060TIP3    H257672   0.223   1.500   5.280  1.2701  0.9953  0.1731
12061TIP3   OH257673   5.177   2.552   4.969 -0.4344 -0.2261  0.3061
12061TIP3    H157674   5.101   2.610   4.963  1.6237  2.7181  0.3469
12061TIP3    H257675   5.182   2.510   4.883 -0.4184  1.9542 -0.8263
12062TIP3   OH257676   3.146   5.040   5.914 -0.6454  0.3047 -0.6005
12062TIP3    H157677   3.206   5.114   5.922  0.7531 -0.8102 -0.4268
12062TIP3    H257678   3.187   4.970   5.966 -0.4801 -1.4661 -2.9392
12063TIP3   OH257679   2.378   6.575  14.573  0.5124  0.0829  0.2530
12063TIP3    H157680   2.454   6.591  14.517  1.1435  0.2412  1.1423
12063TIP3    H257681   2.405   6.604  14.660 -0.3645 -0.3992  0.7014
12064TIP3   OH257682   5.490   0.837  17.105  0.1771 -0.4088  0.1773
12064TIP3    H157683   5.503   0.754  17.059 -1.2943 -1.2927  1.2643
12064TIP3    H257684   5.402   0.831  17.141  0.5072  1.1119  1.3530
12065TIP3   OH257685   5.943   2.581   0.706 -0.2988 -0.5075 -0.6295
12065TIP3    H157686   5.923   2.663   0.662 -1.8088  0.8083  2.2887
12065TIP3    H257687   5.884   2.578   0.781  2.3201 -2.4223  1.5514
12066TIP3   OH257688   3.415   0.714   5.966 -0.1033 -0.1778  0.1104
12066TIP3    H157689   3.373   0.746   5.886  0.9315  1.1132  0.0344
12066TIP3    H257690   3.357   0.741   6.036  0.9444  2.4310  0.0832
12067TIP3   OH257691   4.379   1.654   5.070 -0.1801 -0.6474 -0.2099
12067TIP3    H157692   4.428   1.601   5.133  0.1833 -1.2865 -1.0014
12067TIP3    H257693   4.301   1.681   5.117 -0.3944 -1.9366  0.2204
12068TIP3   OH257694   5.391   6.300   5.280 -0.2597  0.6058  0.6907
12068TIP3    H157695   5.372   6.278   5.189 -0.5558  1.1559  0.6132
12068TIP3    H257696   5.308   6.288   5.326  0.6139 -3.0300  1.6104
12069TIP3   OH257697   4.076   2.284   2.888  0.1116  0.0324 -0.2481
12069TIP3    H157698   4.068   2.361   2.945 -1.6128 -0.0366 -0.3297
12069TIP3    H257699   4.077   2.320   2.800  0.7852  0.0325 -0.2430
12070TIP3   OH257700   6.400   3.290  14.006  0.1566  0.1359  0.6610
12070TIP3    H157701   6.328   3.255  14.059  0.1158  0.4729  0.8302
12070TIP3    H257702   6.385   3.255  13.918  0.0282 -0.1443  0.7946
12071TIP3   OH257703   1.295   2.372   1.947 -0.3693  0.8173 -0.2478
12071TIP3    H157704   1.245   2.332   1.875 -0.6229  0.2266  0.2398
12071TIP3    H257705   1.387   2.358   1.923 -0.4422  1.1910 -0.7615
12072TIP3   OH257706   1.616   6.165  16.763 -0.6517 -0.0253  1.0646
12072TIP3    H157707   1.580   6.236  16.711  0.2904 -0.5815 -0.4147
12072TIP3    H257708   1.585   6.085  16.720  0.5918 -0.4956  0.9866
12073TIP3   OH257709   5.759   1.284  14.295  0.4138  0.0159  0.1305
12073TIP3    H157710   5.752   1.371  14.256 -0.5811  0.0890  0.4476
12073TIP3    H257711   5.669   1.251  14.296  0.8892 -1.4496 -0.9613
12074TIP3   OH257712   5.746   3.416   0.048  0.0453 -0.3790 -0.6632
12074TIP3    H157713   5.758   3.505   0.013  0.0298 -0.3397 -0.5695
12074TIP3    H257714   5.667   3.384   0.005 -0.4768 -0.0023 -0.0031
12075TIP3   OH257715   4.828   5.202  11.986 -0.3176 -0.2198 -0.3310
12075TIP3    H157716   4.865   5.118  11.959 -0.7320 -0.2497 -0.8146
12075TIP3    H257717   4.896   5.242  12.040  0.1529 -0.5652 -0.6630
12076TIP3   OH257718   4.097   2.080  14.809 -0.3492 -0.0366  0.4705
12076TIP3    H157719   4.168   2.117  14.862 -0.3673 -0.3881  0.7426
12076TIP3    H257720   4.020   2.087  14.865 -0.5025  0.2124  0.2305
12077TIP3   OH257721   1.569   1.730  15.269 -0.2142  0.0755 -0.3958
12077TIP3    H157722   1.529   1.759  15.187 -0.6544  0.1340 -0.1654
12077TIP3    H257723   1.600   1.641  15.250 -3.5364 -1.4182  0.3544
12078TIP3   OH257724   1.611   5.726   4.074  0.4065  0.8319 -0.0039
12078TIP3    H157725   1.587   5.653   4.016 -0.2354  1.9953 -1.2575
12078TIP3    H257726   1.615   5.686   4.161  0.5340 -0.7908 -0.7042
12079TIP3   OH257727   1.518   3.966   5.549  0.5327  0.1688  0.5123
12079TIP3    H157728   1.524   3.925   5.463  0.8148 -0.5965  0.8832
12079TIP3    H257729   1.425   3.985   5.561  0.5692  0.9118 -0.2338
12080TIP3   OH257730   5.404   5.498   0.268  0.1721  0.3333  0.6292
12080TIP3    H157731   5.497   5.480   0.275  0.3782  0.9622 -0.2896
12080TIP3    H257732   5.384   5.555   0.342  0.7033  0.8838  0.3600
12081TIP3   OH257733   2.595   1.391  11.386  0.2886 -0.4690  0.0374
12081TIP3    H157734   2.573   1.382  11.293  0.5569  1.4373 -0.2451
12081TIP3    H257735   2.517   1.430  11.425  0.1956 -1.2220  0.6358
12082TIP3   OH257736   6.327   0.715   0.078  0.1184  0.0711  0.5564
12082TIP3    H157737   6.246   0.705   0.127  0.1064 -0.1375  0.4930
12082TIP3    H257738   6.300   0.720  -0.013  0.3059 -2.0111  0.3389
12083TIP3   OH257739   3.430   6.027  16.779  0.6388  0.0957 -0.0354
12083TIP3    H157740   3.450   5.999  16.868  0.5079  0.5176  0.1271
12083TIP3    H257741   3.516   6.041  16.738  0.7206  1.6306  0.5753
12084TIP3   OH257742   2.228   1.259   3.201  0.3670 -0.3649 -0.1817
12084TIP3    H157743   2.134   1.270   3.215  0.4867 -0.3093  0.5968
12084TIP3    H257744   2.248   1.317   3.127 -0.1065  0.0321 -0.0060
12085TIP3   OH257745   0.512   3.951  16.652 -0.2021  0.7658 -0.4051
12085TIP3    H157746   0.501   4.004  16.731 -1.5618  1.5077 -1.0643
12085TIP3    H257747   0.561   4.007  16.592 -0.6527  0.8549 -0.6940
12086TIP3   OH257748   5.788   4.325   4.705 -0.0001  0.1266 -0.1698
12086TIP3    H157749   5.815   4.278   4.784 -0.5257  1.5127  0.8762
12086TIP3    H257750   5.836   4.408   4.709  1.5116 -0.5443 -2.3745
12087TIP3   OH257751   4.037   3.586   2.393 -0.4437  0.2523  0.3329
12087TIP3    H157752   4.087   3.632   2.461 -0.3902 -0.0374  0.4893
12087TIP3    H257753   4.013   3.502   2.433 -0.6882  0.2138  0.1067
12088TIP3   OH257754   5.618   0.840   3.501  0.3564 -0.1429 -0.3377
12088TIP3    H157755   5.605   0.934   3.512 -0.5957 -0.1657 -1.1843
12088TIP3    H257756   5.567   0.799   3.571  1.8918 -0.0223  0.9219
12089TIP3   OH257757   5.051   3.770   4.346 -0.2134 -0.4056 -0.7002
12089TIP3    H157758   5.011   3.699   4.295 -0.1951 -1.6747  0.9912
12089TIP3    H257759   4.977   3.827   4.367 -0.6448 -1.1385 -0.1617
12090TIP3   OH257760   2.457   2.496  15.709 -0.1598 -0.0123 -0.1859
12090TIP3    H157761   2.461   2.458  15.796 -0.5646  0.5296  0.0762
12090TIP3    H257762   2.444   2.422  15.650 -2.4086 -0.1765  0.4392
12091TIP3   OH257763   6.185   5.946  15.020  0.0143  0.3128  0.1547
12091TIP3    H157764   6.159   5.940  14.928 -0.7203  0.2986  0.3564
12091TIP3    H257765   6.179   5.856  15.052 -1.0307  0.5111  0.5509
12092TIP3   OH257766   4.933   3.641  11.784 -0.0777 -0.8570 -0.3462
12092TIP3    H157767   4.938   3.577  11.855  0.7260  0.5527  0.9254
12092TIP3    H257768   4.840   3.664  11.778 -0.1990 -1.2586 -0.0037
12093TIP3   OH257769   4.301   0.844   0.350  0.4251  0.6551 -0.1092
12093TIP3    H157770   4.249   0.788   0.408  1.2654  0.2574  0.2659
12093TIP3    H257771   4.253   0.927   0.349  0.1047  0.4903  0.7202
12094TIP3   OH257772   3.210   6.221  15.078  0.0195 -0.3114 -0.2898
12094TIP3    H157773   3.208   6.308  15.038  2.4159 -0.0518  0.0206
12094TIP3    H257774   3.277   6.227  15.145  1.0130 -2.6830 -0.9640
12095TIP3   OH257775   2.259   1.034  13.936  0.3585  0.2300 -0.6711
12095TIP3    H157776   2.253   1.119  13.891  1.1424  0.4191 -0.4297
12095TIP3    H257777   2.321   0.984  13.884 -0.1569 -0.2341 -0.8518
12096TIP3   OH257778   4.227   0.524  11.549 -0.4639  0.3707 -0.7969
12096TIP3    H157779   4.238   0.487  11.636  0.2070  3.0564  0.3762
12096TIP3    H257780   4.293   0.481  11.495 -0.9765 -1.4252 -0.0620
12097TIP3   OH257781   2.102   4.939  15.147  0.0907 -0.7748 -0.3594
12097TIP3    H157782   2.099   4.939  15.051 -0.9623 -0.7342 -0.3476
12097TIP3    H257783   2.013   4.915  15.173  0.1320  0.0469  0.6074
12098TIP3   OH257784   5.238   5.278  16.439 -0.5375  0.9922  0.1734
12098TIP3    H157785   5.220   5.350  16.379  1.3303  1.7808  0.4746
12098TIP3    H257786   5.214   5.312  16.525  1.2858  1.7284  0.4584
12099TIP3   OH257787   2.530   4.049   4.107  0.5474  0.1195  0.0257
12099TIP3    H157788   2.559   4.115   4.044  1.5990  0.0058  0.3795
12099TIP3    H257789   2.581   4.067   4.186  1.0381 -1.2738  0.0481
12100TIP3   OH257790   1.005   4.011   0.009  0.8550 -0.3759 -0.2779
12100TIP3    H157791   1.071   3.967  -0.044  1.0529  0.9279 -1.1592
12100TIP3    H257792   0.922   3.975  -0.022  0.9955  0.0551 -1.1811
12101TIP3   OH257793   0.364   1.366   2.825 -0.0308 -0.0479 -0.1917
12101TIP3    H157794   0.278   1.338   2.795  1.0322 -0.5117 -3.1482
12101TIP3    H257795   0.426   1.311   2.777  1.9597  0.8731  1.1573
12102TIP3   OH257796   1.245   4.196  17.138 -0.4580 -0.9668  0.0652
12102TIP3    H157797   1.150   4.202  17.136 -0.5144 -1.2831  0.9895
12102TIP3    H257798   1.276   4.275  17.094 -1.1313 -1.6399 -1.7120
12103TIP3   OH257799   1.619   1.883  13.990 -0.1926 -0.3305  0.2766
12103TIP3    H157800   1.613   1.977  13.971  0.4959 -0.1766  0.7966
12103TIP3    H257801   1.661   1.846  13.912  0.6320 -0.0236  0.5620
12104TIP3   OH257802   3.132   3.275   4.584  0.1456  0.1498 -0.2243
12104TIP3    H157803   3.187   3.220   4.528 -0.1446 -2.5233  1.9299
12104TIP3    H257804   3.191   3.343   4.616  1.2746 -0.5633 -0.7237
12105TIP3   OH257805   1.420   1.749   4.572  0.0351  0.2744  0.0379
12105TIP3    H157806   1.350   1.702   4.618 -0.1967  1.3162  0.8048
12105TIP3    H257807   1.402   1.735   4.480 -0.6835 -0.1894  0.2417
12106TIP3   OH257808   2.732   4.108   4.863 -0.0822 -0.3669  0.3591
12106TIP3    H157809   2.685   4.188   4.886 -1.3196 -1.0464  0.2735
12106TIP3    H257810   2.726   4.053   4.941  0.9615 -0.2965  0.4980
12107TIP3   OH257811   0.962   6.231  12.481 -0.2264  0.2265  0.3909
12107TIP3    H157812   1.000   6.167  12.541  0.7530  0.4659  0.0434
12107TIP3    H257813   0.897   6.278  12.533  2.1896  2.0096  1.9796
12108TIP3   OH257814   6.652   0.523  15.965  0.5686 -0.0495  0.2594
12108TIP3    H157815   6.618   0.457  15.905  2.8221 -0.5048 -0.5890
12108TIP3    H257816   6.623   0.493  16.052 -2.0870  0.2243 -0.4462
12109TIP3   OH257817   0.632   1.398  12.612  0.1619 -0.0187  0.6766
12109TIP3    H157818   0.703   1.340  12.584 -0.6363 -0.3700 -0.7547
12109TIP3    H257819   0.588   1.351  12.682  0.9578 -0.0724  1.1452
12110TIP3   OH257820   1.959   6.027   1.144 -0.5592 -0.3773  0.3448
12110TIP3    H157821   2.007   6.098   1.103  1.6440 -1.4747  0.8655
12110TIP3    H257822   1.994   6.022   1.233  0.8750 -3.3196 -0.2437
12111TIP3   OH257823   1.119   3.616   3.789 -0.5514  0.1862  0.0054
12111TIP3    H157824   1.099   3.646   3.700  1.3411 -1.1424 -0.9188
12111TIP3    H257825   1.124   3.696   3.840 -1.1992  1.0170 -1.1683
12112TIP3   OH257826   6.282   4.896  14.736 -0.1754  0.0430  0.5226
12112TIP3    H157827   6.224   4.930  14.804 -0.2768  0.6946  0.1152
12112TIP3    H257828   6.264   4.802  14.733 -1.4991  0.3029  0.1155
12113TIP3   OH257829   5.523   6.730  11.811  0.9495  0.5250 -0.1308
12113TIP3    H157830   5.476   6.721  11.727 -0.6242 -0.8628  0.8406
12113TIP3    H257831   5.579   6.653  11.816  2.2806  1.4283 -0.6025
12114TIP3   OH257832   2.391   0.201   2.207  0.0846 -0.5997 -0.0410
12114TIP3    H157833   2.330   0.185   2.280  0.5775 -0.5575  0.3889
12114TIP3    H257834   2.384   0.124   2.152  0.5258 -1.1412  0.6443
12115TIP3   OH257835   6.554   5.929   4.900  0.2560  0.6024 -0.3129
12115TIP3    H157836   6.493   5.886   4.961 -1.4018  2.5179 -0.4854
12115TIP3    H257837   6.630   5.951   4.954 -0.4164  0.6603  0.6461
12116TIP3   OH257838   0.714   4.154   6.375  0.3872 -0.4538  0.8124
12116TIP3    H157839   0.624   4.185   6.369  0.5568 -0.2194 -1.3053
12116TIP3    H257840   0.708   4.059   6.366  0.4187 -0.3168 -1.0745
12117TIP3   OH257841   5.732   2.076  13.035 -0.3071  0.0755 -0.5638
12117TIP3    H157842   5.766   2.105  13.120 -1.5199  1.5108 -0.5243
12117TIP3    H257843   5.638   2.093  13.040 -0.6858 -1.5250 -1.5525
12118TIP3   OH257844   2.171   2.174  16.792  0.3286 -0.1811  0.0046
12118TIP3    H157845   2.237   2.179  16.723  1.4282 -2.2369  0.8327
12118TIP3    H257846   2.093   2.215  16.753  1.0942 -0.6635 -2.2111
12119TIP3   OH257847   2.970   2.603   5.926 -0.2946  0.3705  0.3330
12119TIP3    H157848   2.980   2.698   5.919 -0.2058  0.3504  0.1841
12119TIP3    H257849   3.036   2.576   5.990 -0.9812  0.5323  1.1311
12120TIP3   OH257850   2.546   6.676  14.378  0.5759  0.3239 -0.3117
12120TIP3    H157851   2.472   6.724  14.342 -0.6388 -1.3694 -0.1898
12120TIP3    H257852   2.582   6.627  14.305 -0.1965 -1.0117  0.1735
12121TIP3   OH257853   1.192   0.834  13.081  0.2390  0.1121 -0.0066
12121TIP3    H157854   1.273   0.840  13.031  1.0612 -0.3907  1.2094
12121TIP3    H257855   1.185   0.741  13.105 -0.1262  0.3298  0.7797
12122TIP3   OH257856   6.335   1.302  15.540  0.1663 -0.3986 -0.5940
12122TIP3    H157857   6.263   1.353  15.504  0.5155  1.2730  0.9293
12122TIP3    H257858   6.389   1.278  15.464 -0.3595  0.9571 -1.4271
12123TIP3   OH257859   3.358   1.530   6.085  0.3092  0.1413 -0.4302
12123TIP3    H157860   3.311   1.483   6.016  0.4299  0.2070 -0.5568
12123TIP3    H257861   3.297   1.529   6.159  0.2164 -0.0097 -0.5066
12124TIP3   OH257862   6.762   3.537   4.654 -0.4860 -0.0455  0.6379
12124TIP3    H157863   6.736   3.536   4.746 -0.5503  0.2936  0.6254
12124TIP3    H257864   6.763   3.629   4.631  0.8728 -0.0305  0.6714
12125TIP3   OH257865   6.471   4.509  15.667 -0.3703 -0.5670 -0.2590
12125TIP3    H157866   6.496   4.535  15.756  2.8304  0.2792 -1.2568
12125TIP3    H257867   6.463   4.592  15.619 -2.6356 -0.9777 -0.6981
12126TIP3   OH257868   1.538   2.288   1.885  0.1170  0.3055  0.1063
12126TIP3    H157869   1.563   2.198   1.864 -0.6222  0.0650  0.2302
12126TIP3    H257870   1.587   2.309   1.965  1.2048  0.4374 -0.5776
12127TIP3   OH257871   2.342   3.578   2.492  0.1383 -0.1078 -0.0580
12127TIP3    H157872   2.289   3.504   2.522 -0.5750  0.0922 -0.7904
12127TIP3    H257873   2.418   3.538   2.451  0.0124 -0.4206  0.0108
12128TIP3   OH257874   3.622   5.615   5.083 -0.0298  0.5656 -0.0242
12128TIP3    H157875   3.680   5.671   5.031  0.0639  0.4909 -0.0023
12128TIP3    H257876   3.534   5.644   5.062  0.0187  0.7270 -0.0070
12129TIP3   OH257877   1.324   3.552   6.093  0.2009 -0.0549  0.1317
12129TIP3    H157878   1.253   3.524   6.035 -1.3830  0.9861  1.5112
12129TIP3    H257879   1.391   3.585   6.033 -2.1748  2.9089 -1.1981
12130TIP3   OH257880   2.309   1.937  14.517 -0.1970 -0.1271  0.6036
12130TIP3    H157881   2.236   1.958  14.575  0.9331 -0.8420  2.3639
12130TIP3    H257882   2.291   1.986  14.436 -1.8239  0.8899  1.5382
12131TIP3   OH257883   3.707   0.464   2.214  0.0148  0.1797 -0.2017
12131TIP3    H157884   3.783   0.478   2.271  0.3062 -1.1057 -0.2412
12131TIP3    H257885   3.686   0.371   2.225 -1.1950  0.3933 -0.6442
12132TIP3   OH257886   0.638   5.936   7.078 -0.0473 -0.4880 -0.0644
12132TIP3    H157887   0.659   6.026   7.052  1.0160 -0.8984 -0.6830
12132TIP3    H257888   0.671   5.882   7.006 -0.0780 -1.4246  0.6134
12133TIP3   OH257889   3.492   3.697  10.667  0.2427  0.2283  0.1164
12133TIP3    H157890   3.425   3.760  10.690  1.6250  2.0564 -0.5850
12133TIP3    H257891   3.445   3.614  10.656 -1.6274  1.0969  1.0845
12134TIP3   OH257892   2.800   6.257  16.921 -0.1580  0.0321 -0.3367
12134TIP3    H157893   2.721   6.207  16.941  1.1008 -1.5126  0.9851
12134TIP3    H257894   2.844   6.208  16.852  0.8188 -0.4319  0.5922
12135TIP3   OH257895   2.200   2.893  13.689  0.6060 -0.2944 -0.5423
12135TIP3    H157896   2.208   2.934  13.602  2.1833  0.1429 -0.2413
12135TIP3    H257897   2.179   2.802  13.671 -1.2295  0.2466 -1.2993
12136TIP3   OH257898   2.652   2.419  12.995 -0.0766 -0.2514  0.1135
12136TIP3    H157899   2.600   2.436  13.074  0.9848  0.6964  0.6481
12136TIP3    H257900   2.619   2.481  12.931  0.7810  0.7850  0.6481
12137TIP3   OH257901   6.420   3.241   0.059 -0.1879 -0.0983 -0.5080
12137TIP3    H157902   6.480   3.197   0.120 -0.8226  0.5597  0.6420
12137TIP3    H257903   6.453   3.331   0.056 -0.1366 -0.1369 -1.1943
12138TIP3   OH257904   6.793   0.398  11.941 -0.4606 -0.8495  0.1009
12138TIP3    H157905   6.832   0.425  11.858  1.4803  0.8459  1.4573
12138TIP3    H257906   6.699   0.389  11.922 -0.2048  0.3818 -2.0417
12139TIP3   OH257907   5.554   1.331   1.620  0.4642 -0.2585 -0.3928
12139TIP3    H157908   5.646   1.349   1.601  0.3197 -0.8932 -1.8198
12139TIP3    H257909   5.554   1.246   1.664  0.5929 -0.0825 -0.0562
12140TIP3   OH257910   3.276   6.634   0.627 -0.2518  0.0863  0.1694
12140TIP3    H157911   3.298   6.586   0.706 -2.3652  0.5510  1.1359
12140TIP3    H257912   3.249   6.567   0.564 -2.3453 -0.1449  1.2195
12141TIP3   OH257913   2.722   4.020   0.964 -0.0409 -0.2463 -0.0132
12141TIP3    H157914   2.634   4.029   0.928  0.5977  1.0562 -1.3395
12141TIP3    H257915   2.766   4.102   0.942  1.3643 -0.6693  1.0606
12142TIP3   OH257916   4.864   3.588   0.468 -0.0296  0.2120 -0.2273
12142TIP3    H157917   4.915   3.658   0.509  0.2730  0.5046 -1.0714
12142TIP3    H257918   4.841   3.529   0.539 -1.8394  2.0811  0.8792
12143TIP3   OH257919   4.179   1.525   2.166 -0.0249 -0.0004 -0.0232
12143TIP3    H157920   4.097   1.543   2.212 -0.9645 -1.2708 -1.1250
12143TIP3    H257921   4.223   1.460   2.221  0.8314  1.4694  1.1413
12144TIP3   OH257922   3.333   6.460  14.640 -0.1358  0.1705  1.2966
12144TIP3    H157923   3.385   6.392  14.596 -1.1636  0.5209 -0.5323
12144TIP3    H257924   3.242   6.432  14.629 -0.7294  2.6122 -1.0085
12145TIP3   OH257925   3.447   1.168   4.063 -0.0450  0.1601  0.1047
12145TIP3    H157926   3.361   1.126   4.054  0.1256 -0.1511 -0.0914
12145TIP3    H257927   3.428   1.254   4.098 -0.3299 -0.4368  1.4878
12146TIP3   OH257928   1.503   3.640  16.419 -0.2842 -0.1390  0.3958
12146TIP3    H157929   1.529   3.663  16.330  2.1346 -2.3600  0.4111
12146TIP3    H257930   1.501   3.723  16.467  0.8610  0.8045 -1.1252
12147TIP3   OH257931   6.757   2.546  13.209  0.0234  0.0030  0.3534
12147TIP3    H157932   6.765   2.473  13.270  1.2433 -0.3262 -0.1728
12147TIP3    H257933   6.775   2.508  13.123  0.8974  0.9551  0.0955
12148TIP3   OH257934   5.904   6.569   1.361 -0.2287 -0.6504 -0.1670
12148TIP3    H157935   5.837   6.501   1.366  0.2858 -1.2026 -0.6566
12148TIP3    H257936   5.889   6.612   1.277 -0.9014  0.2199  0.3854
12149TIP3   OH257937   1.739   2.019  11.718 -0.0802 -0.1283  0.3714
12149TIP3    H157938   1.732   2.113  11.735 -0.5185 -0.2770  1.0372
12149TIP3    H257939   1.832   2.001  11.722 -0.0738  0.0863  1.3214
12150TIP3   OH257940   3.146   2.830   0.264 -0.1372  0.1293 -0.4051
12150TIP3    H157941   3.154   2.774   0.342 -0.5657 -1.3499 -1.3824
12150TIP3    H257942   3.234   2.833   0.228 -0.4010 -1.2765 -1.2287
12151TIP3   OH257943   0.642   6.208  17.160  0.3096 -0.5346  0.1716
12151TIP3    H157944   0.650   6.288  17.211 -0.5829  0.0709 -0.5913
12151TIP3    H257945   0.704   6.219  17.088  0.8971 -0.9777  0.6009
12152TIP3   OH257946   0.601   1.850  13.631  0.6918  0.1413  0.5111
12152TIP3    H157947   0.638   1.927  13.675 -1.0437  2.1994 -1.3481
12152TIP3    H257948   0.675   1.791  13.619  1.9150  1.0677  2.8749
12153TIP3   OH257949   5.995   3.909   0.128  0.7318 -0.2302  0.2909
12153TIP3    H157950   6.006   3.962   0.207 -1.7152  0.8840 -0.0434
12153TIP3    H257951   5.990   3.819   0.160  2.0807 -0.0423  1.1280
12154TIP3   OH257952   3.479   3.882  11.588 -0.0903  0.0942  0.6032
12154TIP3    H157953   3.492   3.845  11.675 -3.6312  1.3282  1.8401
12154TIP3    H257954   3.517   3.969  11.593 -2.5302  1.1740  1.9238
12155TIP3   OH257955   5.711   1.845  14.536  0.3072 -0.3090  0.5280
12155TIP3    H157956   5.708   1.820  14.628 -2.1378  0.6158  0.7711
12155TIP3    H257957   5.742   1.936  14.537  0.7151 -0.4440  0.3868
12156TIP3   OH257958   1.373   3.426  14.910  0.3397  0.2410  0.1590
12156TIP3    H157959   1.335   3.339  14.924  2.7642 -0.8923  0.1747
12156TIP3    H257960   1.389   3.459  14.998 -0.8926  0.8878  0.1590
12157TIP3   OH257961   5.676   5.092   1.729 -0.5406  0.2406 -0.5349
12157TIP3    H157962   5.674   5.122   1.820 -0.3844  0.4865 -0.6112
12157TIP3    H257963   5.741   5.147   1.687  0.7993 -1.1524 -0.3625
12158TIP3   OH257964   1.394   4.821  13.728  0.0009  0.2326  0.2479
12158TIP3    H157965   1.479   4.787  13.699 -0.6299  0.0812 -1.5685
12158TIP3    H257966   1.405   4.916  13.725 -0.3928  0.2721 -1.8408
12159TIP3   OH257967   4.739   3.651   4.846  0.1216  0.4759  0.2904
12159TIP3    H157968   4.659   3.599   4.832  0.6393 -0.2000 -0.2412
12159TIP3    H257969   4.726   3.730   4.795 -0.1493  0.2986  0.0813
12160TIP3   OH257970   3.475   3.852  12.597 -0.4668 -0.1270 -0.0958
12160TIP3    H157971   3.564   3.822  12.582 -0.1661 -0.0769  1.4248
12160TIP3    H257972   3.429   3.776  12.631 -0.7139  0.1414  0.1765
12161TIP3   OH257973   5.354   5.664   6.594  0.4006 -0.4798 -0.3046
12161TIP3    H157974   5.362   5.588   6.536  0.5179  0.5689 -1.7185
12161TIP3    H257975   5.402   5.733   6.549  1.5642  0.0776  1.6592
12162TIP3   OH257976   3.429   0.528   0.992  0.1065  0.1322 -0.5150
12162TIP3    H157977   3.396   0.512   1.081  3.2880  3.1670  1.4602
12162TIP3    H257978   3.367   0.590   0.954 -0.9910 -0.7805 -0.2745
12163TIP3   OH257979   5.929   1.973  17.058  0.1345 -0.4732  0.4763
12163TIP3    H157980   5.926   1.931  16.972 -0.9852 -0.9525  0.7328
12163TIP3    H257981   6.022   1.988  17.074  0.3242  0.4671 -1.2211
12164TIP3   OH257982   1.559   0.853   6.561  0.2995  0.3233 -0.3298
12164TIP3    H157983   1.649   0.847   6.529 -0.0584  0.1627 -1.3562
12164TIP3    H257984   1.537   0.945   6.554  0.9223  0.6540  1.5244
12165TIP3   OH257985   6.411   5.002  16.676  0.4980  0.3434 -0.5196
12165TIP3    H157986   6.362   5.076  16.640  0.8804 -0.4668 -2.9204
12165TIP3    H257987   6.480   5.043  16.728 -1.5256  1.5353  1.4329
12166TIP3   OH257988   6.361   1.124  12.308  0.0471  0.4793 -1.0219
12166TIP3    H157989   6.349   1.078  12.390  1.0424  1.2274 -0.4222
12166TIP3    H257990   6.332   1.063  12.241 -3.5651  0.8742 -0.0175
12167TIP3   OH257991   2.660   3.108  17.008 -0.4271  0.2415  0.6089
12167TIP3    H157992   2.620   3.096  17.094  0.9899 -0.5826  1.1759
12167TIP3    H257993   2.603   3.059  16.948 -0.8785  0.0102  1.2184
12168TIP3   OH257994   1.393   2.724   4.136 -0.0872  0.0229 -0.1587
12168TIP3    H157995   1.390   2.642   4.185  1.5953  0.5957  1.0023
12168TIP3    H257996   1.331   2.782   4.181  0.9764  0.3362  0.9792
12169TIP3   OH257997   5.427   0.532   5.251 -0.7238  0.7037 -0.0847
12169TIP3    H157998   5.396   0.557   5.164  1.0547 -1.8062 -1.5826
12169TIP3    H257999   5.455   0.441   5.241 -1.1678  0.0572  3.3482
12170TIP3   OH258000   0.026   0.494   2.826  0.2032  0.6998  0.7007
12170TIP3    H158001   0.090   0.425   2.809 -0.7615  0.0058 -0.2432
12170TIP3    H258002   0.076   0.575   2.816  1.0915  0.1541  0.6491
12171TIP3   OH258003   4.283   5.084   1.074  0.1883 -0.2572 -0.5376
12171TIP3    H158004   4.291   4.992   1.101  1.1176 -0.5946 -1.8538
12171TIP3    H258005   4.191   5.095   1.051  0.4984 -1.5993 -2.7435
12172TIP3   OH258006   5.067   6.008   3.430  0.3516 -0.6786  0.5757
12172TIP3    H158007   5.113   6.043   3.506  0.8626  0.1348 -0.0859
12172TIP3    H258008   5.113   5.926   3.410  0.9599 -0.3120  0.4479
12173TIP3   OH258009   6.217   2.685   3.290 -0.3281 -0.2222  0.3381
12173TIP3    H158010   6.277   2.666   3.362  0.5369 -1.4513 -0.6579
12173TIP3    H258011   6.134   2.707   3.333  0.8751  1.9459  1.7694
12174TIP3   OH258012   4.161   4.820   2.233  0.4889 -0.1603 -0.5043
12174TIP3    H158013   4.214   4.829   2.154  1.1946 -0.5736 -0.0901
12174TIP3    H258014   4.222   4.787   2.300  0.2857  1.6195  0.6306
12175TIP3   OH258015   3.710   4.450   5.728 -0.0062 -0.5054 -0.7327
12175TIP3    H158016   3.634   4.467   5.785  1.1760  0.3516  0.6722
12175TIP3    H258017   3.785   4.474   5.782  1.2714 -1.3099 -2.1054
12176TIP3   OH258018   0.019   1.612  15.608 -0.4125  0.0219 -0.2765
12176TIP3    H158019   0.035   1.604  15.514 -0.1803  1.3225 -0.3715
12176TIP3    H258020  -0.016   1.527  15.634  2.9211 -1.6972 -0.8435
12177TIP3   OH258021   0.035   5.536  15.960  0.0986 -0.2362  0.1904
12177TIP3    H158022   0.039   5.625  15.924 -0.9979  0.1318  0.9172
12177TIP3    H258023   0.054   5.547  16.053 -1.3582 -0.5442  0.5609
12178TIP3   OH258024   2.629   0.376  12.208 -0.3038 -0.0810  0.0763
12178TIP3    H158025   2.710   0.390  12.256 -0.4005  1.6214 -0.1869
12178TIP3    H258026   2.561   0.371  12.275 -0.2547  0.8352  0.2092
12179TIP3   OH258027   4.887   4.956  14.805 -0.2803  0.2369  0.1190
12179TIP3    H158028   4.890   4.869  14.844 -0.3377  0.9017  1.6858
12179TIP3    H258029   4.897   4.941  14.712 -0.1084 -1.4337  0.3798
12180TIP3   OH258030   5.900   6.685   1.114 -0.3837 -0.1840  0.2078
12180TIP3    H158031   5.985   6.662   1.077 -0.3913  1.1704 -0.7716
12180TIP3    H258032   5.836   6.648   1.053 -0.4106  1.3978 -0.7788
12181TIP3   OH258033   5.234   4.194   5.390 -0.6853 -0.1415  0.2101
12181TIP3    H158034   5.191   4.214   5.473 -0.5676  0.1628  0.1982
12181TIP3    H258035   5.197   4.109   5.364 -3.1553  1.1599 -0.9944
12182TIP3   OH258036   4.151   4.709   3.688 -0.1670  0.3931 -0.0244
12182TIP3    H158037   4.179   4.795   3.658  0.1015 -0.1903 -1.5278
12182TIP3    H258038   4.084   4.682   3.625 -0.6028 -0.2994  0.7145
12183TIP3   OH258039   1.750   4.391  14.977  0.3105 -0.0960 -0.3068
12183TIP3    H158040   1.714   4.444  14.906 -2.9473  1.3709  2.2221
12183TIP3    H258041   1.765   4.452  15.049 -0.8945 -2.1325  1.7939
12184TIP3   OH258042   3.304   0.118   5.053 -0.4511 -0.2069 -0.2914
12184TIP3    H158043   3.304   0.144   5.146 -0.6068  0.5092 -0.4885
12184TIP3    H258044   3.354   0.036   5.052  1.6855  1.0153  0.0815
12185TIP3   OH258045   6.579   5.032  11.396 -0.3924 -0.1744 -0.0743
12185TIP3    H158046   6.499   5.028  11.447 -1.0073  2.9574 -0.6305
12185TIP3    H258047   6.562   4.975  11.320 -2.0438  0.3116 -0.1040
12186TIP3   OH258048   2.792   4.981  16.493  0.7665  0.4205  0.4216
12186TIP3    H158049   2.785   5.022  16.579  2.5730 -1.4467  1.5375
12186TIP3    H258050   2.779   4.888  16.508  0.6491  0.0863 -1.4256
12187TIP3   OH258051   2.334   0.247   3.714 -0.2883 -0.3911 -0.4510
12187TIP3    H158052   2.399   0.300   3.761 -0.8644  0.6498 -0.7891
12187TIP3    H258053   2.267   0.228   3.780  0.2796 -1.3610 -0.1342
12188TIP3   OH258054   1.105   2.290  15.201  0.5638  0.0988  0.0911
12188TIP3    H158055   1.079   2.198  15.202  3.1134 -0.7331 -0.7897
12188TIP3    H258056   1.070   2.324  15.118 -1.4407  0.3350  0.9751
12189TIP3   OH258057   0.780   4.175  16.918 -0.2082  0.6502  0.4017
12189TIP3    H158058   0.797   4.084  16.939  0.7979  0.6274 -0.4389
12189TIP3    H258059   0.839   4.225  16.975 -1.3674  0.8479  1.4899
12190TIP3   OH258060   4.935   5.047  13.209 -0.0717  0.0508 -0.0201
12190TIP3    H158061   4.934   5.052  13.114 -0.7497  3.3751  0.0314
12190TIP3    H258062   5.015   5.092  13.235 -0.5374  0.3297  0.9880
12191TIP3   OH258063   2.724   0.264  12.635  0.2539  0.2251  0.1325
12191TIP3    H158064   2.691   0.328  12.572 -1.5338  0.5381  1.2925
12191TIP3    H258065   2.685   0.291  12.719  0.7955 -1.4152  0.9555
12192TIP3   OH258066   6.247   0.145   1.262  0.2101 -0.3913 -0.0390
12192TIP3    H158067   6.338   0.147   1.292  1.2875 -0.2360 -2.9737
12192TIP3    H258068   6.196   0.169   1.339  2.7006  0.3786  1.5023
12193TIP3   OH258069   3.737   4.996   1.278  0.4801 -0.3567 -0.7359
12193TIP3    H158070   3.656   4.992   1.226  0.4331 -1.0431 -0.6251
12193TIP3    H258071   3.759   5.088   1.281 -1.7241  0.2291  1.3831
12194TIP3   OH258072   2.692   1.582  13.956  0.4592  0.2350 -0.0394
12194TIP3    H158073   2.626   1.636  13.999 -1.2869 -2.5866  1.1071
12194TIP3    H258074   2.772   1.595  14.007  0.2884  2.1311 -0.1886
12195TIP3   OH258075   5.547   4.541  14.010  0.2797  0.3049 -0.1869
12195TIP3    H158076   5.512   4.543  13.921 -0.1158  1.3162 -0.0299
12195TIP3    H258077   5.521   4.456  14.044 -0.0207  0.1183 -0.8629
12196TIP3   OH258078   4.849   5.781  16.583  0.2974 -0.0805 -0.2074
12196TIP3    H158079   4.782   5.713  16.591  0.9365 -0.6272  0.6389
12196TIP3    H258080   4.808   5.858  16.623 -0.2575 -0.0782 -0.7584
12197TIP3   OH258081   2.892   2.854  11.284  0.0286 -0.2222  0.7368
12197TIP3    H158082   2.922   2.838  11.194  0.5599 -1.6252  1.1445
12197TIP3    H258083   2.967   2.891  11.329 -0.3058  0.6926  0.5602
12198TIP3   OH258084   6.579   2.347  13.664  0.0629  0.2374  0.5614
12198TIP3    H158085   6.547   2.274  13.612 -1.7371  1.2623  0.1440
12198TIP3    H258086   6.663   2.317  13.698  0.2210 -1.3242 -1.0563
12199TIP3   OH258087   5.626   1.536   1.112 -0.4815  0.0621 -0.1627
12199TIP3    H158088   5.664   1.449   1.100  0.8320  0.1659  2.5690
12199TIP3    H258089   5.551   1.522   1.170 -0.4185  0.7179  0.0878
12200TIP3   OH258090   0.128   1.874   1.537 -0.4752  0.0413  0.4149
12200TIP3    H158091   0.090   1.802   1.488 -1.0123  0.5606  0.0560
12200TIP3    H258092   0.212   1.840   1.569 -0.5434 -0.6042 -0.0798
12201TIP3   OH258093   5.853   5.205   3.996 -0.9236  0.1184  0.2152
12201TIP3    H158094   5.764   5.174   4.010 -0.4402 -1.1622  0.6297
12201TIP3    H258095   5.863   5.277   4.059 -1.7036  0.3747  0.0584
12202TIP3   OH258096   1.278   6.313  14.087  0.9022  0.1928 -0.7260
12202TIP3    H158097   1.336   6.388  14.068  1.5925 -0.4985 -1.4389
12202TIP3    H258098   1.338   6.241  14.105  0.2416 -0.0745  0.5346
12203TIP3   OH258099   3.867   5.584   1.182 -0.1545 -0.0688  0.0732
12203TIP3    H158100   3.863   5.501   1.231 -1.3210 -0.1625 -0.1550
12203TIP3    H258101   3.789   5.583   1.127  0.7577  0.3687 -1.2848
12204TIP3   OH258102   2.768   2.692  12.686  0.1848 -0.5839 -0.1517
12204TIP3    H158103   2.838   2.628  12.700  0.5280 -0.0920  0.4707
12204TIP3    H258104   2.694   2.660  12.737  0.5250 -0.2309  0.5792
12205TIP3   OH258105   4.277   3.623   4.117  1.0554  0.6696  0.3188
12205TIP3    H158106   4.327   3.701   4.094  0.7604  0.0529 -2.8726
12205TIP3    H258107   4.186   3.653   4.122  0.7035  0.3777 -2.5945
12206TIP3   OH258108   2.252   1.590   5.533  0.3309 -0.1159 -0.2713
12206TIP3    H158109   2.187   1.636   5.587  1.8892  1.1429  0.6027
12206TIP3    H258110   2.252   1.638   5.450 -0.9896 -1.1324 -0.8944
12207TIP3   OH258111   1.765   6.206  16.453 -0.2515 -0.1133 -0.1495
12207TIP3    H158112   1.682   6.221  16.498  0.7751  1.0774  1.4707
12207TIP3    H258113   1.794   6.120  16.484 -0.7494 -0.4055 -0.4975
12208TIP3   OH258114   4.991   6.089  16.841  0.5499  0.3142  0.3807
12208TIP3    H158115   4.943   6.172  16.833 -0.4507 -0.3668 -1.2922
12208TIP3    H258116   4.923   6.023  16.853  1.2562 -0.4123  0.4872
12209TIP3   OH258117   3.213   1.151   4.397  0.4064 -0.0714 -0.2172
12209TIP3    H158118   3.145   1.140   4.330  1.1619  1.2231 -1.2334
12209TIP3    H258119   3.174   1.209   4.462  0.6603  0.9954 -1.0013
12210TIP3   OH258120   6.130   6.387  12.185 -0.3158 -0.0852  0.3690
12210TIP3    H158121   6.129   6.397  12.281  1.1234  1.5362  0.2662
12210TIP3    H258122   6.223   6.384  12.163 -0.5748  1.6958 -1.1445
12211TIP3   OH258123   3.889   0.432   2.712 -0.4661 -0.2935 -0.2057
12211TIP3    H158124   3.815   0.440   2.652 -0.6784 -0.4300  0.0341
12211TIP3    H258125   3.930   0.349   2.689  0.2037  0.2440 -0.9910
12212TIP3   OH258126   5.316   5.922  16.469  0.3327  0.1320 -0.6711
12212TIP3    H158127   5.243   5.945  16.525 -0.3800  0.8182 -1.8385
12212TIP3    H258128   5.390   5.974  16.502  0.0501  0.1595 -0.0813
12213TIP3   OH258129   3.489   4.456   4.310 -0.3448 -0.0499  0.0665
12213TIP3    H158130   3.412   4.466   4.366 -1.0046 -1.7326 -0.4941
12213TIP3    H258131   3.472   4.513   4.235 -0.2119  0.9330  0.7564
12214TIP3   OH258132   6.523   5.635   4.355  0.7450 -0.3024  0.1748
12214TIP3    H158133   6.451   5.579   4.385  0.0518  0.7584  0.5434
12214TIP3    H258134   6.495   5.665   4.269  1.7560 -1.6143 -0.6466
12215TIP3   OH258135   2.995   6.393   1.547 -0.1315 -0.0710 -0.5235
12215TIP3    H158136   3.051   6.402   1.470  0.8168 -2.4742 -0.2096
12215TIP3    H258137   2.913   6.357   1.514 -0.2043  0.1254 -0.5581
12216TIP3   OH258138   3.171   0.717   2.842 -0.4427  0.0691 -0.0240
12216TIP3    H158139   3.230   0.674   2.780 -0.9177 -1.1022  0.2994
12216TIP3    H258140   3.084   0.708   2.802 -0.7598 -0.7483  0.8026
12217TIP3   OH258141   0.104   2.862  17.074 -0.2071  0.5925 -0.7484
12217TIP3    H158142   0.177   2.857  17.013  1.4474  3.2527  0.8194
12217TIP3    H258143   0.100   2.954  17.100 -2.8870  0.1670  0.7522
12218TIP3   OH258144   1.839   5.210  13.718  0.1131 -0.2869  0.0975
12218TIP3    H158145   1.778   5.249  13.656 -0.9351 -1.6335  0.2391
12218TIP3    H258146   1.853   5.121  13.686  0.2850 -0.6983  1.2687
12219TIP3   OH258147   3.928   2.685  11.829 -0.7377 -0.2098  0.2878
12219TIP3    H158148   4.017   2.657  11.808 -0.9551 -2.2691  1.8743
12219TIP3    H258149   3.886   2.697  11.744  0.3569 -1.5705 -0.4793
12220TIP3   OH258150   1.682   4.331  11.033  0.0883  0.2255  0.2979
12220TIP3    H158151   1.621   4.374  11.093  0.8005 -0.4904  1.5681
12220TIP3    H258152   1.716   4.402  10.979 -0.7841  0.8426  0.5250
12221TIP3   OH258153   4.536   4.700  17.103 -0.1846 -0.2870  0.1898
12221TIP3    H158154   4.572   4.612  17.115  0.3046 -0.4311 -1.9046
12221TIP3    H258155   4.464   4.688  17.042 -0.3576  0.7186  0.1898
12222TIP3   OH258156   5.113   3.384  13.173  0.0328  0.2291 -0.0470
12222TIP3    H158157   5.160   3.374  13.256 -2.3843  0.4567  1.4309
12222TIP3    H258158   5.089   3.477  13.169 -2.4612 -0.3123  0.5667
12223TIP3   OH258159   6.461   5.660  12.454  0.3021  0.1977  0.0166
12223TIP3    H158160   6.447   5.695  12.542  0.5925 -1.1277  0.6248
12223TIP3    H258161   6.556   5.644  12.450 -0.0282 -2.3903  0.5681
12224TIP3   OH258162   6.106   2.304  16.383  0.2041  0.2111  0.6927
12224TIP3    H158163   6.111   2.325  16.289  0.4049  1.0722  0.8909
12224TIP3    H258164   6.129   2.211  16.387 -1.6359 -0.3417 -0.3091
12225TIP3   OH258165   3.991   2.337   6.054 -0.0415 -0.1522 -0.2786
12225TIP3    H158166   3.933   2.383   6.115 -0.7771 -1.6337  0.1755
12225TIP3    H258167   3.939   2.265   6.021  0.6553  0.0949 -2.0124
12226TIP3   OH258168   2.486   2.750   6.158  0.0578 -0.1170  0.1702
12226TIP3    H158169   2.569   2.753   6.110  0.4273  0.6973  0.8137
12226TIP3    H258170   2.508   2.786   6.244 -0.7359 -0.8878  0.7142
12227TIP3   OH258171   3.151   5.666  11.151  0.6850  0.3390 -0.5079
12227TIP3    H158172   3.057   5.672  11.138  0.7399  0.1963 -1.0130
12227TIP3    H258173   3.164   5.675  11.245 -0.1494 -3.4875  0.1053
12228TIP3   OH258174   1.045   1.240  11.395  0.0350 -0.4531  0.2639
12228TIP3    H158175   1.107   1.214  11.463  1.4522  1.1295 -0.3650
12228TIP3    H258176   1.006   1.321  11.428  0.7972  0.3761 -0.8185
12229TIP3   OH258177   4.787   1.735   5.397  0.0410  0.0644  0.7948
12229TIP3    H158178   4.743   1.813   5.432 -0.1332 -0.5216  1.9202
12229TIP3    H258179   4.865   1.725   5.451  0.5144 -0.0667  0.1063
12230TIP3   OH258180   0.031   6.239   4.510  0.5608  0.0769  0.3481
12230TIP3    H158181  -0.003   6.256   4.598  1.4568  0.0096  0.7227
12230TIP3    H258182   0.078   6.320   4.487  0.0080  0.2337 -0.2248
12231TIP3   OH258183   2.268   0.098  15.325  0.5222  0.1422  0.0515
12231TIP3    H158184   2.219   0.120  15.405  0.7652  0.4348  0.1246
12231TIP3    H258185   2.342   0.159  15.325  1.2961 -0.7676  0.3248
12232TIP3   OH258186   0.811   5.086  16.570  0.1032 -0.2028  0.3161
12232TIP3    H158187   0.869   5.082  16.494  0.8173  0.0740  0.8360
12232TIP3    H258188   0.775   4.998  16.577  1.3934 -0.7214  0.6906
12233TIP3   OH258189   5.183   6.641   1.730 -0.2715 -0.6122 -0.1447
12233TIP3    H158190   5.179   6.684   1.644  0.8450 -1.5265 -0.6876
12233TIP3    H258191   5.276   6.641   1.752 -0.4331 -1.3166  0.5837
12234TIP3   OH258192   5.696   6.297   5.752 -0.5614  0.0399  0.1590
12234TIP3    H158193   5.634   6.233   5.786  0.1086  0.7899  3.1863
12234TIP3    H258194   5.741   6.253   5.680 -1.9800 -1.8582  0.3748
12235TIP3   OH258195   5.785   2.772   0.483 -0.0401 -0.2143 -0.0601
12235TIP3    H158196   5.721   2.812   0.425  0.1694 -1.2595 -1.0472
12235TIP3    H258197   5.867   2.774   0.434  0.2620 -0.5983  0.4189
12236TIP3   OH258198   1.884   3.554   4.582 -0.1178  0.1541  0.0249
12236TIP3    H158199   1.898   3.609   4.505  0.9031 -0.1671 -0.0440
12236TIP3    H258200   1.945   3.589   4.647 -1.2201  0.6393  0.8132
12237TIP3   OH258201   3.058   5.111  11.384 -0.2809  0.2131  0.1847
12237TIP3    H158202   3.115   5.160  11.325 -1.3537  0.2234 -0.8813
12237TIP3    H258203   3.053   5.024  11.345 -0.3748 -0.0078  0.6895
12238TIP3   OH258204   4.279   3.621  12.926  0.0835  0.0892 -0.1828
12238TIP3    H158205   4.292   3.716  12.919 -0.8558  0.2788  0.5615
12238TIP3    H258206   4.362   3.588  12.959 -0.0952  0.8521  1.0837
12239TIP3   OH258207   1.626   5.070  16.999  0.4977  0.0336  0.7503
12239TIP3    H158208   1.673   5.055  17.081 -0.4985 -2.3004  0.9580
12239TIP3    H258209   1.636   4.989  16.950  0.1649  1.0053 -1.0132
12240TIP3   OH258210   2.130   1.781   1.812 -0.1128  0.0611  0.0295
12240TIP3    H158211   2.073   1.757   1.885 -0.5030  1.0752  0.0713
12240TIP3    H258212   2.184   1.853   1.844 -0.4091  0.6380 -0.7131
12241TIP3   OH258213   5.196   1.818  16.440 -0.0957  0.2471 -0.2765
12241TIP3    H158214   5.181   1.761  16.516 -0.6323  1.3299  0.4468
12241TIP3    H258215   5.122   1.800  16.382 -0.2140  0.1454 -0.0964
12242TIP3   OH258216   1.940   1.084   0.145  0.3352  0.0738 -0.2075
12242TIP3    H158217   1.933   0.991   0.164 -2.0094  0.5153  1.4749
12242TIP3    H258218   1.972   1.124   0.226  0.9770  0.7933 -0.7937
12243TIP3   OH258219   5.984   5.899  13.105  0.0516 -0.1933  0.8353
12243TIP3    H158220   5.905   5.888  13.157  0.0331  0.2976  0.9130
12243TIP3    H258221   5.996   5.814  13.063  0.8363 -1.0588  2.6903
12244TIP3   OH258222   0.951   2.064   6.611 -0.2194  0.0907 -0.3365
12244TIP3    H158223   0.899   2.094   6.686  0.2488 -0.1514  0.0953
12244TIP3    H258224   0.907   2.100   6.535 -0.3646  0.8510  0.0965
12245TIP3   OH258225   3.132   0.975  14.245 -0.0573  0.2074 -0.3942
12245TIP3    H158226   3.116   1.018  14.329  0.8967  1.1260 -0.6615
12245TIP3    H258227   3.058   0.915  14.234  0.1072 -0.3696  1.3713
12246TIP3   OH258228   4.104   2.666   3.152 -0.1518 -0.7445  0.2661
12246TIP3    H158229   4.106   2.742   3.210 -3.3645 -0.9426  0.8598
12246TIP3    H258230   4.172   2.608   3.185  0.6331  0.7807  1.4285
12247TIP3   OH258231   1.516   4.320   2.669  0.5544 -0.4630 -0.0571
12247TIP3    H158232   1.585   4.256   2.684  0.2105 -1.0744 -1.0058
12247TIP3    H258233   1.542   4.365   2.588 -0.2058 -0.7758 -0.4867
12248TIP3   OH258234   5.445   2.055  13.662 -0.0025  0.8563 -0.0401
12248TIP3    H158235   5.357   2.092  13.668 -0.3557  0.0100  0.1536
12248TIP3    H258236   5.439   1.970  13.705  0.1731 -0.5183 -2.5109
12249TIP3   OH258237   3.951   6.205  14.229  0.3051  0.1158 -0.1202
12249TIP3    H158238   3.991   6.148  14.294  1.8182  0.8274 -0.3725
12249TIP3    H258239   3.963   6.293  14.264  0.6703  0.4677 -1.0950
12250TIP3   OH258240   6.136   1.369   3.002  0.1110 -0.0237 -0.0115
12250TIP3    H158241   6.170   1.352   3.090  1.5193  0.0766 -0.5098
12250TIP3    H258242   6.053   1.322   2.999 -0.9132  1.5095  1.9967
12251TIP3   OH258243   4.365   3.298  10.465  0.0641 -0.0981 -0.4476
12251TIP3    H158244   4.417   3.257  10.534 -0.0673  0.6892  0.1406
12251TIP3    H258245   4.370   3.392  10.484 -1.0558  0.0327 -0.7431
12252TIP3   OH258246   4.852   3.395  14.608 -0.2951 -0.6995  0.1449
12252TIP3    H158247   4.767   3.351  14.609  0.3914 -2.2872 -1.9379
12252TIP3    H258248   4.854   3.440  14.523  0.8088 -0.4208  0.3075
12253TIP3   OH258249   4.274   2.042  12.075  0.1210 -0.6391 -0.0314
12253TIP3    H158250   4.256   1.997  12.157  0.2492 -0.9193 -0.1567
12253TIP3    H258251   4.192   2.036  12.026 -0.6772  1.4252  0.9426
12254TIP3   OH258252   1.572   1.900   2.004 -0.1991  0.0729  0.4706
12254TIP3    H158253   1.482   1.926   2.023 -0.7400 -0.5870 -1.0605
12254TIP3    H258254   1.597   1.952   1.927  0.5871 -0.0566  0.6240
12255TIP3   OH258255   3.031   5.139  13.470 -0.5864 -0.4957 -0.2523
12255TIP3    H158256   3.051   5.207  13.534 -0.5584 -1.5929  0.9316
12255TIP3    H258257   2.954   5.171  13.424 -1.0307 -0.0035  0.8194
12256TIP3   OH258258   4.089   6.541  14.126 -0.0041 -0.3003  0.3236
12256TIP3    H158259   4.173   6.579  14.101 -0.4283  0.2816 -0.2415
12256TIP3    H258260   4.111   6.455  14.163  0.7926 -0.3556 -0.2692
12257TIP3   OH258261   1.354   4.389  13.093  0.6452 -0.0084 -0.4867
12257TIP3    H158262   1.420   4.346  13.148  1.0946  0.0135 -0.9981
12257TIP3    H258263   1.380   4.481  13.091 -0.5691  0.4102  0.9686
12258TIP3   OH258264   3.278   6.279   1.581 -0.0084 -0.3180 -0.3489
12258TIP3    H158265   3.264   6.196   1.627 -0.1408  0.3193  0.7803
12258TIP3    H258266   3.220   6.273   1.505 -0.1585 -1.1770 -0.1843
12259TIP3   OH258267   4.687   6.076   2.916 -0.2500 -0.5695  0.8201
12259TIP3    H158268   4.738   6.082   2.836  0.4543 -0.4404  1.2646
12259TIP3    H258269   4.638   6.158   2.921 -0.9007 -0.9063  0.1345
12260TIP3   OH258270   0.739   5.786  14.644 -0.7184 -0.5822  0.3304
12260TIP3    H158271   0.665   5.764  14.700  0.7366 -0.2510  2.5377
12260TIP3    H258272   0.799   5.712  14.653  0.3507  0.2908  0.7297
12261TIP3   OH258273   2.959   1.895  12.455  0.1853 -0.3398 -0.1753
12261TIP3    H158274   2.964   1.878  12.361  0.3397 -0.4460 -0.1490
12261TIP3    H258275   2.873   1.935  12.468  0.3234  0.0401 -0.4182
12262TIP3   OH258276   4.185   6.102   1.544  0.3015 -0.2996  0.3550
12262TIP3    H158277   4.167   6.191   1.515  0.7734 -0.4739 -0.5063
12262TIP3    H258278   4.147   6.097   1.632 -2.2999 -0.1245 -0.6721
12263TIP3   OH258279   1.705   1.029   0.018  0.1587 -0.2521 -0.7066
12263TIP3    H158280   1.639   1.094   0.041 -0.3424 -1.2426  0.7945
12263TIP3    H258281   1.777   1.045   0.079 -0.2664 -1.5198  0.1747
12264TIP3   OH258282   0.749   3.217  15.969  0.1315 -0.4740  0.2384
12264TIP3    H158283   0.724   3.284  15.905 -0.7994 -1.0769 -0.0457
12264TIP3    H258284   0.843   3.206  15.956 -0.1197 -0.9981 -1.4533
12265TIP3   OH258285   6.788   1.361   6.558  0.0498 -0.0550  0.2889
12265TIP3    H158286   6.710   1.307   6.572  0.0476 -0.1013  0.1044
12265TIP3    H258287   6.771   1.406   6.475 -0.1841  0.6320  0.6937
12266TIP3   OH258288   2.595   6.497   1.461  0.2182  0.4500 -0.3354
12266TIP3    H158289   2.586   6.592   1.455  1.3677  0.5419 -0.8188
12266TIP3    H258290   2.573   6.476   1.552 -0.7373  1.0826 -0.4096
12267TIP3   OH258291   1.690   1.869   0.903 -0.2211  0.0659  0.5802
12267TIP3    H158292   1.642   1.874   0.986 -1.9727 -1.1050 -0.3023
12267TIP3    H258293   1.641   1.805   0.851  0.3742  1.3119 -1.6559
12268TIP3   OH258294   0.929   0.722  17.283  0.0952 -0.1824  1.0304
12268TIP3    H158295   0.996   0.746  17.219 -0.5579  1.8150  1.0243
12268TIP3    H258296   0.974   0.725  17.368  0.3992 -0.5079  0.8818
12269TIP3   OH258297   2.436   2.026  15.458 -0.3034 -0.1254  0.0199
12269TIP3    H158298   2.365   1.967  15.433 -0.1692 -0.2087 -0.1758
12269TIP3    H258299   2.514   1.988  15.416 -0.5115  1.2068 -1.6701
12270TIP3   OH258300   3.988   2.386  12.955 -0.1674 -0.2632 -0.2535
12270TIP3    H158301   4.053   2.337  12.903  1.3114 -1.2350  2.2849
12270TIP3    H258302   3.932   2.318  12.992  0.2103  0.1430  1.1350
12271TIP3   OH258303   4.545   0.036   4.789  0.2879 -0.4535 -0.0725
12271TIP3    H158304   4.514  -0.009   4.710 -0.6285 -0.1403  0.0879
12271TIP3    H258305   4.577  -0.033   4.846  1.5927 -0.6327 -0.9753
12272TIP3   OH258306   5.880   2.500  14.121 -0.3373 -0.1698  0.4454
12272TIP3    H158307   5.871   2.442  14.045  0.2343 -0.0872  0.3122
12272TIP3    H258308   5.795   2.544  14.127  0.1924  1.2762 -1.3441
12273TIP3   OH258309   1.200   1.458   3.748 -0.2966 -0.0208 -0.5642
12273TIP3    H158310   1.184   1.550   3.769  0.3836 -0.1244  0.4956
12273TIP3    H258311   1.274   1.433   3.803  0.8219 -0.6712 -2.2636
12274TIP3   OH258312   2.081   1.875   2.738  0.1951  0.1586  0.0136
12274TIP3    H158313   1.991   1.882   2.768 -0.4102 -0.6250 -1.5319
12274TIP3    H258314   2.110   1.966   2.729 -0.5069  0.4219  0.3448
12275TIP3   OH258315   2.912   2.275   2.205 -0.1206  0.4487  0.3255
12275TIP3    H158316   2.870   2.212   2.146  0.5176  1.8804 -1.7593
12275TIP3    H258317   2.883   2.361   2.174  1.8019  1.3380  0.8307
12276TIP3   OH258318   6.328   2.172   4.497  0.0566 -0.7626 -0.2663
12276TIP3    H158319   6.377   2.110   4.443  0.4190 -0.4805 -0.2596
12276TIP3    H258320   6.301   2.121   4.573 -0.7548 -1.2617 -0.8685
12277TIP3   OH258321   3.717   0.825  13.169  0.3865 -0.4845 -0.0179
12277TIP3    H158322   3.630   0.786  13.165 -0.0181  0.2852  0.7776
12277TIP3    H258323   3.743   0.836  13.077 -0.1568 -1.1445 -0.2581
12278TIP3   OH258324   1.246   2.110   5.263  0.3740 -0.2871 -0.0374
12278TIP3    H158325   1.166   2.057   5.265  1.2599 -1.6817  1.8280
12278TIP3    H258326   1.242   2.163   5.343  0.3831  1.1233 -0.9494
12279TIP3   OH258327   5.379   3.059   0.440  0.2342 -0.5039  0.0805
12279TIP3    H158328   5.468   3.023   0.441  0.5467  0.2541  0.2011
12279TIP3    H258329   5.325   2.990   0.480  0.5225 -1.5442 -1.2526
12280TIP3   OH258330   6.657   4.692   1.071 -0.1387  0.2328  0.6002
12280TIP3    H158331   6.625   4.604   1.051 -2.3500  1.0812  0.0723
12280TIP3    H258332   6.665   4.693   1.167 -1.4816 -0.1337  0.7382
12281TIP3   OH258333   3.789   2.264   2.261 -0.2622 -0.5377 -0.5464
12281TIP3    H158334   3.838   2.286   2.341 -1.6543 -0.6033  0.3585
12281TIP3    H258335   3.818   2.176   2.239  0.5804 -0.2876 -0.4607
12282TIP3   OH258336   2.413   1.828   1.138  0.0984 -0.0241  0.0592
12282TIP3    H158337   2.400   1.809   1.045  0.9755 -0.5114  0.0261
12282TIP3    H258338   2.411   1.924   1.143 -0.1025  0.0031 -0.4392
12283TIP3   OH258339   1.381   4.310   5.470  0.0464 -0.2165  0.7956
12283TIP3    H158340   1.302   4.278   5.514 -0.8681 -0.0723 -0.6610
12283TIP3    H258341   1.421   4.230   5.434 -1.0248 -0.0314 -0.9187
12284TIP3   OH258342   3.653   3.380   4.628 -0.2528 -0.4188 -0.4312
12284TIP3    H158343   3.650   3.460   4.575 -0.9970 -0.8314 -1.0253
12284TIP3    H258344   3.581   3.326   4.595 -0.2987 -0.9774  0.5401
12285TIP3   OH258345   4.516   0.998  10.907  0.3102  0.2914  0.1199
12285TIP3    H158346   4.515   1.084  10.948  1.5865  0.6864 -0.6000
12285TIP3    H258347   4.602   0.993  10.865 -0.8921 -0.0213 -2.5454
12286TIP3   OH258348   6.752   4.152   2.016  0.4045 -0.4480  0.0574
12286TIP3    H158349   6.813   4.112   1.954 -0.7214 -0.9150 -0.7845
12286TIP3    H258350   6.669   4.156   1.969 -0.1744  0.3656  1.1012
12287TIP3   OH258351   3.679   2.667  14.843  0.2949 -0.2841  0.3947
12287TIP3    H158352   3.586   2.659  14.825  0.2186  0.2787  0.5088
12287TIP3    H258353   3.703   2.752  14.806  0.0670  1.1140  3.2111
12288TIP3   OH258354   2.387   0.621   4.014  0.2409  0.2331 -0.1346
12288TIP3    H158355   2.465   0.659   3.974  0.8416 -1.5902 -0.8143
12288TIP3    H258356   2.316   0.678   3.985  0.6301 -0.8873 -3.9512
12289TIP3   OH258357   2.539   1.377  11.097  0.5859 -0.1238  0.0544
12289TIP3    H158358   2.622   1.350  11.060  0.8080 -1.0383  1.1523
12289TIP3    H258359   2.476   1.312  11.064  0.4582  0.1022 -0.1449
12290TIP3   OH258360   0.142   5.457  15.274  0.3434 -0.1159  0.2357
12290TIP3    H158361   0.171   5.479  15.363  1.5918 -0.7653  0.0104
12290TIP3    H258362   0.181   5.525  15.219 -0.1813  0.1136  0.1449
12291TIP3   OH258363   1.879   3.532   1.187  0.1899 -0.5261 -0.2770
12291TIP3    H158364   1.896   3.461   1.249  1.3048  1.0277  1.2822
12291TIP3    H258365   1.962   3.580   1.182 -0.6381  0.9047 -0.9552
12292TIP3   OH258366   3.526   2.819  12.265 -0.6294 -0.2338 -0.4271
12292TIP3    H158367   3.550   2.910  12.283 -0.2625 -0.5036  0.5270
12292TIP3    H258368   3.507   2.817  12.171  0.9337  0.4928 -0.7922
12293TIP3   OH258369   5.439   6.320   5.583  0.1201  0.7464 -0.2164
12293TIP3    H158370   5.465   6.252   5.521 -0.4861 -0.4863  0.8408
12293TIP3    H258371   5.381   6.275   5.645  1.9087  1.5265  2.1566
12294TIP3   OH258372   0.693   0.044   2.733  0.3257  0.8195 -0.5411
12294TIP3    H158373   0.692   0.114   2.798  0.1390 -0.0502  0.4213
12294TIP3    H258374   0.744  -0.026   2.774  0.4043  0.3435 -1.4356
12295TIP3   OH258375   3.740   6.606  13.096  0.4984  0.0475 -0.2006
12295TIP3    H158376   3.689   6.589  13.175  1.6699  1.6533  0.9655
12295TIP3    H258377   3.675   6.627  13.029 -0.4532  0.1871  0.7402
12296TIP3   OH258378   5.544   6.042  16.547  0.0980 -0.3649  0.1755
12296TIP3    H158379   5.606   5.981  16.587 -1.1885 -1.5486  0.4405
12296TIP3    H258380   5.570   6.128  16.581  0.3019 -1.0936  1.9660
12297TIP3   OH258381   1.271   3.596   0.526 -0.3041 -0.0514  0.0134
12297TIP3    H158382   1.285   3.690   0.523  0.2581 -0.0551  1.5585
12297TIP3    H258383   1.176   3.585   0.528 -0.3687  0.4790 -0.0589
12298TIP3   OH258384   1.594   4.197   4.644 -0.2968  0.0503  0.3186
12298TIP3    H158385   1.506   4.218   4.613 -0.7167 -2.0462 -0.0408
12298TIP3    H258386   1.643   4.279   4.633 -2.0767  1.1502  0.1645
12299TIP3   OH258387   1.032   4.397  14.342  0.0097 -0.6656 -0.0086
12299TIP3    H158388   1.087   4.462  14.300 -1.3393  0.1006 -0.6473
12299TIP3    H258389   0.968   4.372  14.275  1.6355 -4.1729 -0.5015
12300TIP3   OH258390   3.633   3.196  11.245  0.3087  0.1147  0.7802
12300TIP3    H158391   3.614   3.288  11.264 -0.6685 -0.0901  0.8415
12300TIP3    H258392   3.656   3.195  11.152 -0.5924  0.3001  0.5414
12301TIP3   OH258393   2.353   5.174  12.418 -0.6078 -0.1568 -0.5075
12301TIP3    H158394   2.343   5.269  12.419  0.3208 -0.0502  0.0078
12301TIP3    H258395   2.310   5.146  12.337 -2.8553  0.4493  0.3877
12302TIP3   OH258396   2.372   0.329  15.968  0.4700  0.5031 -0.1351
12302TIP3    H158397   2.467   0.337  15.960  0.6956  2.8880  2.9610
12302TIP3    H258398   2.338   0.413  15.936 -0.2807  0.9169  1.6484
12303TIP3   OH258399   1.459   2.767   5.031  0.3348  0.7772  0.7014
12303TIP3    H158400   1.379   2.772   5.083 -0.9765  0.2015 -1.1606
12303TIP3    H258401   1.429   2.773   4.941  2.7710  5.1639 -0.0899
12304TIP3   OH258402   1.403   1.934  11.791  0.0047  0.0920 -0.5571
12304TIP3    H158403   1.471   1.928  11.723 -1.4555 -0.0728 -2.0792
12304TIP3    H258404   1.375   1.843  11.805 -1.0949  0.3055 -1.2503
12305TIP3   OH258405   1.174   3.219  14.902 -0.1199  0.6114  0.0877
12305TIP3    H158406   1.196   3.130  14.874 -2.0456  0.0889  0.1595
12305TIP3    H258407   1.103   3.208  14.965 -0.2687  2.2005  0.2401
12306TIP3   OH258408   1.202   1.142  16.046  0.0570  0.5733 -0.3088
12306TIP3    H158409   1.165   1.209  15.989  2.0513  0.0331 -2.4079
12306TIP3    H258410   1.127   1.090  16.074 -1.2669  2.3259 -0.4491
12307TIP3   OH258411   4.255   1.203  17.204 -0.5153  0.5048  0.4616
12307TIP3    H158412   4.310   1.132  17.238 -1.8260 -1.2936 -0.9955
12307TIP3    H258413   4.312   1.251  17.144  0.5603  1.1191  1.9105
12308TIP3   OH258414   3.362   1.881   0.421  0.1895  0.0202 -0.1147
12308TIP3    H158415   3.435   1.913   0.474  0.4387 -0.9447  0.1557
12308TIP3    H258416   3.380   1.912   0.333 -0.6656  2.3941  0.4668
12309TIP3   OH258417   1.373   2.852   3.893  0.1319 -0.2189  0.0535
12309TIP3    H158418   1.280   2.869   3.879 -0.4839 -3.8962 -1.2849
12309TIP3    H258419   1.378   2.814   3.980  0.2552 -0.8131 -0.2110
12310TIP3   OH258420   3.299   3.559  14.688  0.0480 -0.3140 -0.0418
12310TIP3    H158421   3.290   3.641  14.640  1.4555 -1.3773 -2.3298
12310TIP3    H258422   3.373   3.573  14.746  0.4540 -0.0272 -0.6137
12311TIP3   OH258423   4.737   6.380  13.034  0.2437 -0.5751 -0.0656
12311TIP3    H158424   4.678   6.390  13.109  0.1530  1.5358 -0.3520
12311TIP3    H258425   4.680   6.380  12.958  0.5160  2.7853 -0.4455
12312TIP3   OH258426   5.390   1.504   1.254  0.0941 -0.5820 -0.0195
12312TIP3    H158427   5.390   1.439   1.324  1.4019 -0.2976  0.2773
12312TIP3    H258428   5.299   1.511   1.227 -0.4568 -0.6148  1.7177
12313TIP3   OH258429   4.866   6.435   2.236 -0.7099  0.6156 -0.5304
12313TIP3    H158430   4.958   6.431   2.211 -0.3649 -0.8225  0.8204
12313TIP3    H258431   4.818   6.425   2.154  0.3243  0.3757 -1.1249
12314TIP3   OH258432   3.883   4.382   6.436  0.4139  0.4783  0.8481
12314TIP3    H158433   3.930   4.460   6.408  0.0503 -0.1702 -1.8860
12314TIP3    H258434   3.832   4.356   6.359  0.4077 -2.3570  1.6988
12315TIP3   OH258435   3.077   5.958   3.696 -0.4538  0.3311  0.0632
12315TIP3    H158436   3.157   5.993   3.659 -0.0415 -0.5044  0.1494
12315TIP3    H258437   3.095   5.948   3.789 -1.0411  1.1706  0.2880
12316TIP3   OH258438   3.202   0.846  13.734  0.0481 -0.1353 -0.2135
12316TIP3    H158439   3.177   0.907  13.803  1.3534 -1.2112  1.2716
12316TIP3    H258440   3.289   0.815  13.758 -0.4146 -2.3334 -1.0517
12317TIP3   OH258441   2.306   2.720   2.058 -0.1228  0.0775 -0.4008
12317TIP3    H158442   2.383   2.757   2.016 -0.1458  0.9017  0.2613
12317TIP3    H258443   2.276   2.788   2.118  0.7564 -1.5286  2.0399
12318TIP3   OH258444   1.679   0.221   2.423  0.3559 -0.1462  0.1691
12318TIP3    H158445   1.752   0.283   2.419 -0.7605  1.2136 -0.0536
12318TIP3    H258446   1.721   0.135   2.423  2.0251  0.5933  1.8616
12319TIP3   OH258447   3.425   6.773   2.347  0.1828  0.0553 -0.1353
12319TIP3    H158448   3.478   6.830   2.403 -1.1964  1.9985 -0.7118
12319TIP3    H258449   3.369   6.724   2.408 -1.2102  2.0502  0.2882
12320TIP3   OH258450   3.398   5.137   1.430 -0.5679  0.5974 -0.0400
12320TIP3    H158451   3.453   5.135   1.509  0.1530  2.6652 -0.4306
12320TIP3    H258452   3.332   5.203   1.448 -2.2591 -1.0085 -0.0697
12321TIP3   OH258453   4.628   5.207  11.763 -0.2106  0.0544  0.5861
12321TIP3    H158454   4.689   5.222  11.836 -0.2419  0.3023  0.5607
12321TIP3    H258455   4.579   5.289  11.755  2.4893  1.6201 -2.2783
12322TIP3   OH258456   2.018   5.110  12.682  0.4679  0.1459 -0.0637
12322TIP3    H158457   2.083   5.093  12.750  1.0295 -0.1228 -0.6668
12322TIP3    H258458   1.938   5.069  12.715  0.4425  0.9475  0.9317
12323TIP3   OH258459   1.080   5.352   0.170 -0.1829 -0.7705  0.5587
12323TIP3    H158460   1.039   5.365   0.085  2.6482 -0.8901 -0.9241
12323TIP3    H258461   1.070   5.259   0.188  2.3810 -1.5420 -1.5015
12324TIP3   OH258462   1.672   0.440   5.099 -0.1887 -0.1722 -0.7541
12324TIP3    H158463   1.593   0.462   5.051 -0.4175 -0.6051 -0.5794
12324TIP3    H258464   1.744   0.471   5.044 -0.4140 -1.3890 -1.7505
12325TIP3   OH258465   6.687   1.323  11.733 -0.3082  0.6024 -0.1155
12325TIP3    H158466   6.777   1.355  11.723  0.0196  0.6169  2.2782
12325TIP3    H258467   6.632   1.398  11.709  0.0972 -0.1435 -4.2198
12326TIP3   OH258468   3.558   6.584   3.232  0.4335  0.0956  0.5312
12326TIP3    H158469   3.511   6.587   3.149  0.2105 -1.8823  0.5455
12326TIP3    H258470   3.543   6.495   3.265 -0.4884  1.1642  3.2841
12327TIP3   OH258471   6.171   0.309  11.185  0.1472 -0.2712 -0.1890
12327TIP3    H158472   6.120   0.264  11.252 -0.5904 -0.2967 -0.7542
12327TIP3    H258473   6.115   0.308  11.107 -0.3473  2.4879  0.0304
12328TIP3   OH258474   0.036   4.751  15.954 -0.5388  0.4397  0.6646
12328TIP3    H158475   0.078   4.690  16.014 -1.0144  1.0162  1.6136
12328TIP3    H258476   0.016   4.827  16.008 -0.0142  1.4184 -0.4709
12329TIP3   OH258477   5.346   6.087   0.905  0.4504  0.5164 -0.4366
12329TIP3    H158478   5.320   6.175   0.877  0.1128  0.1901 -1.1810
12329TIP3    H258479   5.403   6.101   0.981  1.6065  1.4507 -1.4381
12330TIP3   OH258480   6.419   0.517  15.641  0.0200  0.8610  0.1485
12330TIP3    H158481   6.417   0.559  15.726 -0.4929  2.6759 -0.7232
12330TIP3    H258482   6.452   0.584  15.581  0.7149 -0.4788 -1.0293
12331TIP3   OH258483   3.737   5.236  10.765  0.2444 -0.2491 -0.0427
12331TIP3    H158484   3.765   5.195  10.846 -0.7867 -2.2279 -0.6345
12331TIP3    H258485   3.646   5.260  10.780  0.1288 -0.3756 -0.5065
12332TIP3   OH258486   1.454   2.502   3.983 -0.0809  0.5143 -0.2791
12332TIP3    H158487   1.463   2.445   4.059 -0.0325  1.0908  0.1578
12332TIP3    H258488   1.420   2.584   4.019 -1.6962  0.2596 -1.0917
12333TIP3   OH258489   0.618   4.549   5.506 -0.5049  0.1956  0.1446
12333TIP3    H158490   0.598   4.568   5.598 -3.5693  0.2674 -0.4378
12333TIP3    H258491   0.603   4.632   5.460 -1.7713 -0.4772 -0.7336
12334TIP3   OH258492   5.758   2.849   3.714  0.3111  0.8647 -1.1774
12334TIP3    H158493   5.732   2.854   3.622  2.9364  1.4175 -1.9772
12334TIP3    H258494   5.791   2.937   3.734  0.1485  0.6293  0.1861
12335TIP3   OH258495   1.038   5.149  15.403  0.3622  0.4137  0.4326
12335TIP3    H158496   1.004   5.146  15.492  0.9845  0.8752  0.6822
12335TIP3    H258497   0.966   5.114  15.350 -0.2889  0.8290  1.0233
12336TIP3   OH258498   4.020   4.103  16.300 -0.6122 -0.0508 -0.1717
12336TIP3    H158499   4.040   4.061  16.216 -0.2772  1.0679 -0.6850
12336TIP3    H258500   4.082   4.065  16.362  1.6994  1.6683 -1.2395
12337TIP3   OH258501   6.052   0.272  14.378 -0.4616 -0.5310  0.5472
12337TIP3    H158502   6.135   0.288  14.332 -0.9325  1.9474  0.4366
12337TIP3    H258503   6.050   0.177  14.391  2.6670 -0.6195  1.1076
12338TIP3   OH258504   4.190   6.737  13.518 -0.9268  0.0352 -0.1894
12338TIP3    H158505   4.283   6.751  13.499 -0.4950 -2.7916 -0.6860
12338TIP3    H258506   4.148   6.741  13.432 -1.3840  1.7655  0.0856
12339TIP3   OH258507   4.353   1.985  13.785 -0.2636 -0.2046 -0.0825
12339TIP3    H158508   4.287   1.922  13.759 -1.5636  1.8398 -2.1599
12339TIP3    H258509   4.403   2.002  13.705  0.3028  1.0647  0.5059
12340TIP3   OH258510   6.728   6.048   5.069 -0.1767  0.6087 -0.2166
12340TIP3    H158511   6.796   6.033   5.134  0.6484 -1.6004 -1.4731
12340TIP3    H258512   6.664   6.103   5.113  1.8079  1.7542  1.4163
12341TIP3   OH258513   1.404   6.097   1.736 -0.0453 -0.2665  0.6749
12341TIP3    H158514   1.382   6.167   1.797 -0.6245  1.4337 -1.3543
12341TIP3    H258515   1.334   6.099   1.671  1.2503 -1.0717 -0.8215
12342TIP3   OH258516   2.735   3.900  12.841 -0.1471 -0.1541 -0.2458
12342TIP3    H158517   2.690   3.983  12.856  1.0070  0.4384 -0.0036
12342TIP3    H258518   2.809   3.922  12.784 -0.1622 -1.1160 -0.6577
12343TIP3   OH258519   2.495   0.139  14.493 -0.5919  0.1364  0.1628
12343TIP3    H158520   2.408   0.100  14.487  0.0377 -1.2657  0.0105
12343TIP3    H258521   2.556   0.069  14.471  0.5563  1.3658 -0.7797
12344TIP3   OH258522   6.157   4.927   1.431  0.2820 -0.4260 -0.6284
12344TIP3    H158523   6.234   4.967   1.470 -0.0791 -0.0900 -0.2398
12344TIP3    H258524   6.168   4.939   1.337  0.1569  0.6565 -0.5230
12345TIP3   OH258525   3.652   4.352  12.694  0.6557  0.2772 -0.1520
12345TIP3    H158526   3.663   4.357  12.599  0.3216 -0.6068 -0.2484
12345TIP3    H258527   3.669   4.260  12.716 -1.0096  0.0479  0.3811
12346TIP3   OH258528   3.634   1.146   2.644 -0.2896 -0.1597  0.4577
12346TIP3    H158529   3.722   1.114   2.663  0.1702  1.0949  0.4919
12346TIP3    H258530   3.627   1.144   2.549 -0.2636 -0.3485  0.4590
12347TIP3   OH258531   4.694   2.340  10.971 -0.4269 -0.1092  0.1098
12347TIP3    H158532   4.619   2.291  10.938  0.1350 -0.8477 -0.1129
12347TIP3    H258533   4.741   2.369  10.893  0.6349 -1.4345  0.2047
12348TIP3   OH258534   0.119   0.133   4.104  0.2189  0.2259 -0.2660
12348TIP3    H158535   0.069   0.077   4.164 -0.6608  0.7086 -0.5338
12348TIP3    H258536   0.178   0.073   4.059 -0.2123 -0.3801 -0.0377
12349TIP3   OH258537   0.654   2.851  13.876 -0.1816 -0.3428  0.1351
12349TIP3    H158538   0.578   2.810  13.917 -1.3319  0.0241 -1.5354
12349TIP3    H258539   0.633   2.945  13.874  0.5979 -0.1549  0.1840
12350TIP3   OH258540   4.059   2.241  13.480  0.0329  0.5535 -0.3882
12350TIP3    H158541   3.984   2.211  13.532 -0.2907 -0.5822 -1.4474
12350TIP3    H258542   4.115   2.287  13.542 -0.6981 -0.0992  0.7926
12351TIP3   OH258543   5.298   3.541  16.370 -0.4475  0.0281  1.0162
12351TIP3    H158544   5.215   3.547  16.323 -0.0581  2.6772  0.5597
12351TIP3    H258545   5.358   3.596  16.321  1.6797 -1.8815  1.2952
12352TIP3   OH258546   3.818   1.550  13.446  0.1130 -0.2266  0.3778
12352TIP3    H158547   3.798   1.546  13.353 -0.7283 -0.1312  0.5385
12352TIP3    H258548   3.753   1.492  13.487 -0.1353  0.4579  0.9801
12353TIP3   OH258549   1.738   0.939  13.376  0.1494  0.1604  0.0015
12353TIP3    H158550   1.747   0.976  13.463 -0.2808  0.8816 -0.2523
12353TIP3    H258551   1.792   0.860  13.378  3.6677  2.3204 -0.3498
12354TIP3   OH258552   0.950   5.098   5.010  0.5684 -0.4584 -0.6541
12354TIP3    H158553   1.044   5.107   5.001  0.8025 -0.9531  0.9059
12354TIP3    H258554   0.929   5.017   4.965  1.2284 -1.4415  0.7519
12355TIP3   OH258555   5.293   4.931   5.356  0.2770 -0.1927  0.3523
12355TIP3    H158556   5.319   4.839   5.357  1.4670  0.1210  1.9725
12355TIP3    H258557   5.293   4.957   5.448 -0.0627  1.4316 -0.0731
12356TIP3   OH258558   0.696   2.369  12.312  0.8389 -0.4017  0.0028
12356TIP3    H158559   0.785   2.382  12.278  1.9352 -2.1731  1.9012
12356TIP3    H258560   0.687   2.435  12.381 -0.2143  1.1811 -1.5578
12357TIP3   OH258561   1.609   1.082   3.407  0.4833 -0.1858 -0.2099
12357TIP3    H158562   1.682   1.144   3.410  1.2957 -1.1245 -0.4074
12357TIP3    H258563   1.539   1.125   3.457  1.1944  0.6744  0.0638
12358TIP3   OH258564   2.828   5.997   5.261  0.0642 -0.1327  0.4642
12358TIP3    H158565   2.827   6.089   5.235 -3.1401  0.1638  1.2332
12358TIP3    H258566   2.746   5.984   5.308  0.4893 -3.3554  0.5648
12359TIP3   OH258567   3.143   0.207  11.096 -0.0677 -0.0871 -0.6331
12359TIP3    H158568   3.134   0.150  11.020 -0.5743  0.2258 -0.8112
12359TIP3    H258569   3.234   0.238  11.092  0.1011 -0.5838 -0.7385
12360TIP3   OH258570   2.952   4.921  12.917  0.1630 -0.3036  0.9791
12360TIP3    H158571   2.894   4.992  12.946 -1.0058 -1.4299  1.5078
12360TIP3    H258572   2.992   4.955  12.837 -2.5296 -0.0624 -0.4015
12361TIP3   OH258573   1.170   2.853  11.309 -0.6317  0.0766  0.3787
12361TIP3    H158574   1.110   2.846  11.383 -1.4860 -1.0887 -0.3872
12361TIP3    H258575   1.244   2.904  11.343 -1.0664 -0.2933  1.9732
12362TIP3   OH258576   2.840   5.851   2.595  0.3629 -1.0429  0.6249
12362TIP3    H158577   2.794   5.928   2.628 -0.2836 -1.5530  0.9218
12362TIP3    H258578   2.873   5.807   2.673  0.2585 -1.3544  0.4960
12363TIP3   OH258579   2.697   3.670  13.177  0.0387  0.0961 -0.0299
12363TIP3    H158580   2.717   3.670  13.083 -0.3591  1.3351 -0.1409
12363TIP3    H258581   2.732   3.753  13.209 -0.6603  0.1220  0.7137
12364TIP3   OH258582   2.384   6.578   2.390 -0.4583  0.1188  0.1087
12364TIP3    H158583   2.320   6.606   2.324 -0.7199  1.2503  0.8042
12364TIP3    H258584   2.406   6.659   2.437  1.8614 -0.1583 -0.4123
12365TIP3   OH258585   5.157   6.144   2.709 -0.0043  0.0047  0.1583
12365TIP3    H158586   5.131   6.066   2.659  1.0995 -1.1595  1.3065
12365TIP3    H258587   5.170   6.111   2.798  0.3646  1.5444  0.6969
12366TIP3   OH258588   3.266   1.368   3.190  0.1716 -0.1106 -0.5518
12366TIP3    H158589   3.312   1.285   3.188  3.2207  1.4564 -0.2126
12366TIP3    H258590   3.300   1.416   3.115 -0.4312  1.3987  0.1006
12367TIP3   OH258591   3.118   6.698  10.539 -0.3372  0.4792  0.7025
12367TIP3    H158592   3.109   6.653  10.623 -0.5864  0.7138  0.8042
12367TIP3    H258593   3.033   6.687  10.496 -0.4869  1.0821  0.8444
12368TIP3   OH258594   1.097   3.557  16.565  0.5198  0.8279  0.2096
12368TIP3    H158595   1.057   3.538  16.481 -1.3692 -0.4277  1.3143
12368TIP3    H258596   1.191   3.554  16.549  0.2220  1.6087 -2.0194
12369TIP3   OH258597   6.381   0.720   6.243  0.1979  0.1618  0.4477
12369TIP3    H158598   6.382   0.633   6.205  0.7312 -0.6159  2.1330
12369TIP3    H258599   6.292   0.730   6.278  0.6363 -0.4339  1.7794
12370TIP3   OH258600   4.236   2.250   6.283  0.0783  0.4639  0.1422
12370TIP3    H158601   4.208   2.296   6.362 -1.1964  1.8605 -1.0605
12370TIP3    H258602   4.173   2.178   6.275  0.4170  0.1163  0.5721
12371TIP3   OH258603   0.139   5.913  15.348  0.3193  1.3431 -0.3704
12371TIP3    H158604   0.100   5.902  15.435 -0.4812 -1.4682 -0.9790
12371TIP3    H258605   0.229   5.881  15.357  0.8083  2.6659 -0.2426
12372TIP3   OH258606   4.935   0.627  12.113 -0.3466  0.1804 -0.6622
12372TIP3    H158607   5.002   0.687  12.079  0.9072 -1.2529 -0.8598
12372TIP3    H258608   4.916   0.660  12.201 -0.7270  1.6596 -1.2740
12373TIP3   OH258609   5.954   2.621   4.269 -0.1321 -0.2209  0.6876
12373TIP3    H158610   5.991   2.710   4.276  0.7748 -0.3807 -1.3030
12373TIP3    H258611   6.030   2.564   4.276 -0.4206 -0.7233 -0.1644
12374TIP3   OH258612   5.433   3.982  13.307  0.2774  0.1314 -0.4025
12374TIP3    H158613   5.525   3.957  13.297 -0.3993 -2.7091 -0.3356
12374TIP3    H258614   5.409   4.017  13.221  1.0676 -0.3420 -0.8321
12375TIP3   OH258615   2.568   5.726   3.538 -0.1318  0.4156 -0.4310
12375TIP3    H158616   2.510   5.711   3.612  0.7296  1.1881  0.4321
12375TIP3    H258617   2.599   5.816   3.549  0.3817  0.3813 -1.4589
12376TIP3   OH258618   1.482   3.953  15.603  0.5316 -0.0743  0.4390
12376TIP3    H158619   1.446   4.024  15.657 -1.3951  0.4699 -1.4246
12376TIP3    H258620   1.576   3.973  15.597  0.5498  0.6338  2.3260
12377TIP3   OH258621   4.298   5.023  11.623 -0.3004  0.0358 -0.2196
12377TIP3    H158622   4.351   5.026  11.702  0.0401 -1.9788 -0.3110
12377TIP3    H258623   4.218   5.069  11.646  1.2295  2.7451  0.0675
12378TIP3   OH258624   4.452   4.626  15.515 -0.6474  0.0706 -0.2783
12378TIP3    H158625   4.455   4.542  15.470  1.5052 -0.0585  0.0001
12378TIP3    H258626   4.442   4.691  15.445  0.9370 -0.2421 -0.8268
12379TIP3   OH258627   3.334   2.025   6.276  0.2481  0.2921  0.7043
12379TIP3    H158628   3.379   2.004   6.194 -0.7033  0.2523  0.1737
12379TIP3    H258629   3.241   2.022   6.253 -0.0194  0.5992  1.7144
12380TIP3   OH258630   5.445   1.129   4.074  0.4622 -0.0890  0.5073
12380TIP3    H158631   5.359   1.088   4.068  0.6951 -0.5141  0.0518
12380TIP3    H258632   5.439   1.207   4.018  0.5116 -0.3566  0.1311
12381TIP3   OH258633   4.396   4.522  14.210 -0.0019  0.6642  0.1873
12381TIP3    H158634   4.365   4.558  14.293 -1.6206 -1.9146  0.8087
12381TIP3    H258635   4.464   4.460  14.235 -0.5731 -0.2136 -0.3949
12382TIP3   OH258636   4.832   3.343   4.990  0.3012  0.4136  0.0347
12382TIP3    H158637   4.806   3.431   5.017  0.9228  0.6874 -0.2347
12382TIP3    H258638   4.846   3.296   5.072  0.4027  0.7017  0.1823
12383TIP3   OH258639   2.078   0.774  16.587 -0.5613  0.2269 -0.3396
12383TIP3    H158640   2.046   0.844  16.531 -0.4393  0.9941  0.5234
12383TIP3    H258641   2.108   0.818  16.666 -2.0628 -0.9404  0.9466
12384TIP3   OH258642   6.054   0.092  16.636 -0.3667 -0.2693  0.8201
12384TIP3    H158643   5.965   0.070  16.609 -0.4387 -0.9381  1.5675
12384TIP3    H258644   6.095   0.008  16.655  0.2392  0.0676  1.0450
12385TIP3   OH258645   5.643   4.290   1.725 -0.3390  0.1057  0.7724
12385TIP3    H158646   5.613   4.231   1.656  0.7724 -0.9420  1.1552
12385TIP3    H258647   5.716   4.244   1.766  0.2780  1.5771  1.3727
12386TIP3   OH258648   3.869   4.494  12.855  1.0724  0.1631  0.3164
12386TIP3    H158649   3.888   4.581  12.821  1.8841 -0.6477 -1.4603
12386TIP3    H258650   3.820   4.451  12.785 -1.1206 -0.1904  1.9648
12387TIP3   OH258651   1.265   4.299   0.493  0.0794  0.1334  0.4692
12387TIP3    H158652   1.319   4.298   0.572  3.0114 -1.0802 -1.3922
12387TIP3    H258653   1.253   4.392   0.473 -0.2905  0.4492  1.9958
12388TIP3   OH258654   3.279   5.616   3.431 -0.1140 -0.2478  0.2533
12388TIP3    H158655   3.345   5.610   3.500 -1.1129 -3.6648  1.1332
12388TIP3    H258656   3.201   5.649   3.475 -0.0688  0.0263  0.1313
12389TIP3   OH258657   2.893   3.757   4.754  1.1570 -0.0552  0.3206
12389TIP3    H158658   2.887   3.798   4.841 -0.5126  1.7441 -0.5543
12389TIP3    H258659   2.829   3.686   4.756  0.3957  0.6148  0.2747
12390TIP3   OH258660   3.516   5.880  12.810 -0.1057  0.1220 -0.2296
12390TIP3    H158661   3.564   5.895  12.891 -0.0689 -1.8617  0.1618
12390TIP3    H258662   3.571   5.819  12.761 -1.3508 -0.7485 -0.5838
12391TIP3   OH258663   4.249   0.256   3.867 -0.2657 -0.3790 -0.1121
12391TIP3    H158664   4.339   0.230   3.850 -0.2388  0.5210 -1.5327
12391TIP3    H258665   4.249   0.351   3.853 -1.3954 -0.3416  0.0623
12392TIP3   OH258666   0.513   0.482  17.035  0.6813 -0.0931  0.1743
12392TIP3    H158667   0.576   0.542  17.076  0.5931 -0.3573  0.7102
12392TIP3    H258668   0.567   0.423  16.983  0.7363  0.7142 -0.7173
12393TIP3   OH258669   0.227   1.891  13.800 -0.1676 -0.6425  0.0621
12393TIP3    H158670   0.281   1.963  13.766  0.6582 -1.1028  0.3481
12393TIP3    H258671   0.269   1.868  13.883 -0.9229 -0.9050  0.3749
12394TIP3   OH258672   1.416   4.888   1.955  0.9884 -0.0571 -0.6328
12394TIP3    H158673   1.420   4.963   1.895  2.1084 -0.3320 -0.9390
12394TIP3    H258674   1.398   4.927   2.041  0.0295  0.4043 -1.0228
12395TIP3   OH258675   2.018   6.678  14.919  0.6821  0.1847 -0.1791
12395TIP3    H158676   2.015   6.761  14.967 -0.3571  0.1235 -0.1248
12395TIP3    H258677   2.058   6.617  14.981  0.5578  0.4184  0.1345
12396TIP3   OH258678   2.624   3.539   3.680 -0.1293  0.1338 -0.5718
12396TIP3    H158679   2.546   3.594   3.689  0.7581  2.0153 -3.2081
12396TIP3    H258680   2.598   3.471   3.619  0.2075  0.6084 -1.2472
12397TIP3   OH258681   4.812   1.949  11.013 -0.0997  0.3725  0.3829
12397TIP3    H158682   4.802   1.974  10.922 -2.0941 -0.0422  0.4349
12397TIP3    H258683   4.727   1.910  11.037  0.3728  0.4400  2.3930
12398TIP3   OH258684   0.119   1.230  12.136  0.4826 -0.6003 -0.0756
12398TIP3    H158685   0.088   1.189  12.054 -0.3850 -0.5703  0.2194
12398TIP3    H258686   0.095   1.322  12.127  0.7118 -0.5268  0.0638
12399TIP3   OH258687   2.216   1.762   1.575  0.1555  0.3003 -0.0593
12399TIP3    H158688   2.221   1.856   1.555 -2.3917  0.6277  0.4733
12399TIP3    H258689   2.197   1.760   1.669  2.8121 -0.9010  0.5394
12400TIP3   OH258690   1.537   6.548   5.908 -0.1167  0.3697  0.1259
12400TIP3    H158691   1.460   6.605   5.917 -0.6630 -0.5339  1.4658
12400TIP3    H258692   1.504   6.470   5.864 -0.1151 -0.2817  1.2590
12401TIP3   OH258693   1.751   3.701   1.923 -0.1391 -0.3820 -0.4591
12401TIP3    H158694   1.708   3.619   1.896  1.2993 -1.5485  0.6602
12401TIP3    H258695   1.688   3.769   1.900 -1.2834 -1.7619 -1.6578
12402TIP3   OH258696   3.028   3.201  12.272 -0.2354 -0.6055 -0.5669
12402TIP3    H158697   2.996   3.174  12.358  1.4348  0.1127  0.3078
12402TIP3    H258698   3.123   3.199  12.279 -0.0587 -0.6199 -2.4381
12403TIP3   OH258699   0.817   1.713  15.749 -0.1040  0.5533 -0.2745
12403TIP3    H158700   0.882   1.780  15.728  0.6264 -0.5146 -1.5952
12403TIP3    H258701   0.863   1.630  15.736 -0.7972 -0.2492  1.8845
12404TIP3   OH258702   1.580   1.649  17.059 -0.3702  0.1336 -0.3550
12404TIP3    H158703   1.547   1.738  17.065  0.4050  0.5847 -2.0640
12404TIP3    H258704   1.668   1.659  17.023 -0.3290 -1.3256 -0.7220
12405TIP3   OH258705   2.864   2.152   5.231  0.4005 -0.4250  0.3824
12405TIP3    H158706   2.780   2.192   5.206  0.5998  1.0556  1.8632
12405TIP3    H258707   2.920   2.165   5.154 -0.6177 -1.2035 -0.5327
12406TIP3   OH258708   0.757   4.506   0.767 -0.0358  0.4425 -0.1634
12406TIP3    H158709   0.726   4.561   0.695 -1.0910  0.6986  0.4647
12406TIP3    H258710   0.837   4.466   0.734  0.8518  2.4553 -0.5994
12407TIP3   OH258711   2.706   5.050   3.688 -0.7524 -0.1382 -0.1138
12407TIP3    H158712   2.774   5.100   3.734 -0.0322  0.3409 -1.6276
12407TIP3    H258713   2.652   5.117   3.647 -1.9938 -0.5296  0.8419
12408TIP3   OH258714   3.223   5.916   1.476  0.2619  0.6778 -0.0941
12408TIP3    H158715   3.154   5.887   1.537  0.2517  1.5652  0.3279
12408TIP3    H258716   3.302   5.873   1.509 -0.2918 -1.6260 -1.4950
12409TIP3   OH258717   4.923   2.864  16.397  0.5559 -0.2199  0.6384
12409TIP3    H158718   4.980   2.941  16.405  0.5699 -0.1473 -0.1002
12409TIP3    H258719   4.948   2.809  16.471  1.0856  0.1377  0.7399
12410TIP3   OH258720   3.523   2.738   0.782 -0.4283  0.6373 -0.2263
12410TIP3    H158721   3.536   2.827   0.815  0.0914 -0.1332  1.8362
12410TIP3    H258722   3.608   2.712   0.747 -0.2851  0.5993  0.1430
12411TIP3   OH258723   6.000   6.397  16.791 -0.6278 -0.5361 -0.0847
12411TIP3    H158724   5.944   6.444  16.729 -0.3367  1.4403  1.0395
12411TIP3    H258725   6.088   6.405  16.755 -0.1798  2.1931  1.3178
12412TIP3   OH258726   3.104   5.485  16.170 -0.2293 -0.1372  0.5827
12412TIP3    H158727   3.091   5.391  16.179  0.5773 -0.1596  1.6281
12412TIP3    H258728   3.081   5.521  16.256 -2.1583  0.8247 -0.2842
12413TIP3   OH258729   2.492   1.938  10.668 -0.0105  0.4725  0.7652
12413TIP3    H158730   2.423   1.987  10.624  0.2173  0.3871  0.2981
12413TIP3    H258731   2.570   1.954  10.615  0.0768 -0.3576  0.6224
12414TIP3   OH258732   3.850   2.028  14.044  0.1552  0.2917  0.0477
12414TIP3    H158733   3.938   1.992  14.057 -0.2137 -0.2361  1.2180
12414TIP3    H258734   3.856   2.117  14.078  0.4557  0.5581 -0.6836
12415TIP3   OH258735   2.784   6.416  14.895 -0.0335  0.6455  0.0984
12415TIP3    H158736   2.724   6.490  14.883  0.0901  1.1131  2.0257
12415TIP3    H258737   2.863   6.455  14.932 -0.7658 -0.6288  3.3316
12416TIP3   OH258738   5.683   0.941  12.250 -0.0094  0.2910 -0.5718
12416TIP3    H158739   5.730   0.953  12.168 -0.9858 -1.1762 -1.4137
12416TIP3    H258740   5.602   0.895  12.224 -1.4206  1.7950  0.9259
12417TIP3   OH258741   1.809   4.324  11.313 -0.5413  0.1879  0.4831
12417TIP3    H158742   1.780   4.323  11.222 -1.6609  1.1426  0.7928
12417TIP3    H258743   1.797   4.234  11.343 -0.2027 -0.1261 -0.2876
12418TIP3   OH258744   2.915   3.647  16.772  0.3839 -0.0016 -0.4771
12418TIP3    H158745   2.820   3.643  16.776  0.3967  0.4175  0.5196
12418TIP3    H258746   2.939   3.719  16.831  1.3523 -0.6081 -0.0973
12419TIP3   OH258747   0.867   3.851  15.620 -0.6098 -0.5615 -0.0598
12419TIP3    H158748   0.783   3.845  15.573 -0.0530 -3.3304 -0.8805
12419TIP3    H258749   0.901   3.937  15.597 -2.4612 -0.0194 -1.0220
12420TIP3   OH258750   5.915   5.793  13.796 -0.3513 -0.4329 -0.1778
12420TIP3    H158751   5.899   5.740  13.718 -4.2917  1.5643 -0.9779
12420TIP3    H258752   5.943   5.878  13.762 -0.7887  0.0584  0.6550
12421TIP3   OH258753   5.397   5.610  13.955 -0.7369 -0.0812 -0.2900
12421TIP3    H158754   5.333   5.591  13.886 -1.8972  3.2029 -0.2965
12421TIP3    H258755   5.471   5.649  13.908 -0.4200 -0.2204  0.0944
12422TIP3   OH258756   0.211   2.272  12.211 -0.4694  0.9298 -0.4075
12422TIP3    H158757   0.181   2.246  12.298 -2.6620 -1.3307 -1.7215
12422TIP3    H258758   0.295   2.316  12.227 -0.3951 -0.1160  2.7597
12423TIP3   OH258759   0.151   6.208   0.290  0.7011  0.2037 -0.3906
12423TIP3    H158760   0.062   6.187   0.262  0.8463  0.5940 -1.1901
12423TIP3    H258761   0.141   6.250   0.375  0.2628 -1.2630  0.3140
12424TIP3   OH258762   3.595   3.159   1.607 -0.2347  0.3342 -0.1261
12424TIP3    H158763   3.645   3.186   1.684 -2.0238 -1.1444  1.6684
12424TIP3    H258764   3.534   3.231   1.592  1.2040  1.3676 -1.2510
12425TIP3   OH258765   3.252   3.737  16.861 -0.2550 -0.4746  0.3461
12425TIP3    H158766   3.245   3.642  16.863 -0.0585 -0.4839  0.7599
12425TIP3    H258767   3.166   3.768  16.834 -0.2497 -0.7801 -0.0194
12426TIP3   OH258768   3.764   4.310   4.264 -0.2501  0.5265  0.3754
12426TIP3    H158769   3.674   4.340   4.271 -0.7373 -0.9938  1.2044
12426TIP3    H258770   3.798   4.352   4.185 -2.1621 -0.0283 -0.7987
12427TIP3   OH258771   5.784   3.227   3.257  0.2291  0.2743  0.0939
12427TIP3    H158772   5.847   3.222   3.328 -1.7905  1.9726  2.1579
12427TIP3    H258773   5.792   3.317   3.224 -0.4921  0.2426 -0.1878
12428TIP3   OH258774   0.917   5.219   1.621 -0.5069 -0.2488 -0.0822
12428TIP3    H158775   0.894   5.132   1.588 -1.4030  0.3706 -1.1637
12428TIP3    H258776   1.000   5.239   1.578  0.6452 -1.2908  1.5742
12429TIP3   OH258777   4.302   4.285  12.232  0.1393 -0.2640  0.2748
12429TIP3    H158778   4.370   4.330  12.182 -1.9841  1.3979 -1.2876
12429TIP3    H258779   4.301   4.330  12.316  1.5957 -0.9698  0.7008
12430TIP3   OH258780   0.458   2.933   5.418  0.1884 -0.0009 -0.0912
12430TIP3    H158781   0.422   2.953   5.505  2.5313  0.4432  0.8596
12430TIP3    H258782   0.486   2.842   5.425 -2.4508 -0.9982 -1.4903
12431TIP3   OH258783   5.353   5.490   6.367  0.1064 -0.1743  0.0741
12431TIP3    H158784   5.380   5.410   6.412 -0.8418 -0.4457  0.1833
12431TIP3    H258785   5.281   5.462   6.310  0.0658  0.5192 -0.2187
12432TIP3   OH258786   2.929   5.682   2.238  0.1238 -0.8360 -0.0708
12432TIP3    H158787   2.951   5.752   2.177 -1.6955  0.8981  1.1143
12432TIP3    H258788   2.840   5.655   2.214 -0.2931 -0.7186  1.2246
12433TIP3   OH258789   3.482   4.614   4.078  0.2984 -0.2307  0.0598
12433TIP3    H158790   3.565   4.657   4.094  0.1955 -0.4542  1.3102
12433TIP3    H258791   3.436   4.671   4.017  1.0978  0.2245 -0.1231
12434TIP3   OH258792   2.348   2.312  11.959 -0.0373 -0.1816  0.5535
12434TIP3    H158793   2.252   2.309  11.962 -0.3647 -1.0494 -3.9802
12434TIP3    H258794   2.368   2.404  11.944 -0.2735 -0.1945  0.1400
12435TIP3   OH258795   0.801   1.682   0.758 -0.8981  0.5965 -0.0808
12435TIP3    H158796   0.769   1.772   0.751 -0.2828  1.0217  2.0250
12435TIP3    H258797   0.734   1.636   0.808 -0.4227  0.3208  0.3155
12436TIP3   OH258798   4.792   6.528  14.169 -0.6131  0.0966  0.2635
12436TIP3    H158799   4.794   6.442  14.127  0.9509  0.0023  0.4935
12436TIP3    H258800   4.877   6.536  14.213 -1.6588  0.7263  2.3348
12437TIP3   OH258801   6.339   1.815  16.630 -0.3294 -0.0208 -0.7136
12437TIP3    H158802   6.362   1.854  16.545 -2.0673  0.8038 -0.8479
12437TIP3    H258803   6.384   1.871  16.694  0.9017 -0.5807 -1.0536
12438TIP3   OH258804   3.100   6.223  12.595 -0.7720  0.1977 -0.2621
12438TIP3    H158805   3.177   6.195  12.644 -0.7397  1.1063  0.2090
12438TIP3    H258806   3.133   6.245  12.508 -0.4531  0.8873  0.0354
12439TIP3   OH258807   3.579   3.127  14.796  0.0909 -0.3150 -0.0722
12439TIP3    H158808   3.606   3.216  14.817  1.6408 -0.5905 -0.7405
12439TIP3    H258809   3.517   3.137  14.724  0.7138  0.2096 -0.5518
12440TIP3   OH258810   3.641   2.388   0.899  0.1866 -0.3703 -0.1987
12440TIP3    H158811   3.566   2.414   0.953  1.1231  1.8583  0.1033
12440TIP3    H258812   3.601   2.348   0.821 -1.3039  0.4227  0.1228
12441TIP3   OH258813   0.266   0.658  13.436 -0.0032  0.1645  0.8715
12441TIP3    H158814   0.255   0.630  13.345 -1.2676  1.0310  0.7344
12441TIP3    H258815   0.188   0.625  13.481 -0.3657  1.4219  1.2043
12442TIP3   OH258816   2.800   3.277   0.766 -0.4606  0.3185 -0.1531
12442TIP3    H158817   2.795   3.286   0.861 -0.7280 -0.2023 -0.1129
12442TIP3    H258818   2.886   3.238   0.749 -0.8207 -0.5582 -0.0378
12443TIP3   OH258819   5.446   2.436  15.465 -0.2195 -0.1853  0.0398
12443TIP3    H158820   5.507   2.510  15.468  1.1526 -1.2516 -0.2519
12443TIP3    H258821   5.382   2.454  15.533 -1.0021  2.1491 -1.1976
12444TIP3   OH258822   5.328   1.921  14.641  0.0173  0.1724  0.2388
12444TIP3    H158823   5.241   1.910  14.677 -1.0293  0.2917 -2.0542
12444TIP3    H258824   5.353   1.833  14.611  0.3886  0.2702  0.2557
12445TIP3   OH258825   4.523   5.589   5.886  0.3506  0.5429  0.6157
12445TIP3    H158826   4.542   5.525   5.817  0.6430  1.9546 -0.6714
12445TIP3    H258827   4.583   5.567   5.957 -0.0673 -1.0417  0.5136
12446TIP3   OH258828   6.286   2.185   0.180 -0.0310 -0.2244 -0.4998
12446TIP3    H158829   6.253   2.258   0.233 -0.7185  0.0298 -1.2454
12446TIP3    H258830   6.209   2.130   0.164  0.7859 -2.0470  1.4323
12447TIP3   OH258831   5.217   4.718  13.538  0.5333 -0.4421 -0.5961
12447TIP3    H158832   5.288   4.721  13.474  1.3914 -1.4804  0.2663
12447TIP3    H258833   5.160   4.791  13.514  0.8370 -0.7767 -2.5059
12448TIP3   OH258834   5.530   3.692  12.800  0.2642  0.6332  0.0997
12448TIP3    H158835   5.453   3.651  12.761  0.6879  1.1713 -1.3534
12448TIP3    H258836   5.601   3.631  12.783  0.5322  1.0683 -0.3453
12449TIP3   OH258837   2.288   0.212  14.997  0.4192  0.1694 -0.4692
12449TIP3    H158838   2.196   0.188  14.988  0.6170 -1.9494  2.0027
12449TIP3    H258839   2.293   0.257  15.081  1.6417  0.2302 -0.5586
12450TIP3   OH258840   4.852   4.101   4.253 -0.0063 -0.2193 -0.0468
12450TIP3    H158841   4.943   4.109   4.226 -0.1741  1.5146 -0.2345
12450TIP3    H258842   4.817   4.028   4.202  1.6035 -1.8254  1.0466
12451TIP3   OH258843   3.353   3.903  11.110 -0.7392 -0.7236  0.3882
12451TIP3    H158844   3.423   3.903  11.175  0.1427 -0.9191 -0.5298
12451TIP3    H258845   3.383   3.842  11.043 -1.7961 -0.8096 -0.0297
12452TIP3   OH258846   2.642   5.513  11.871 -0.2284 -0.3096  0.1581
12452TIP3    H158847   2.725   5.555  11.849 -0.9968  1.2304  0.0450
12452TIP3    H258848   2.601   5.573  11.935 -0.3048 -2.1270  1.9005
12453TIP3   OH258849   1.932   5.531  15.363  0.1037  0.4094  0.3289
12453TIP3    H158850   2.012   5.559  15.408  0.1635  1.3748 -0.3590
12453TIP3    H258851   1.951   5.441  15.335  1.6082  1.1713 -1.2707
12454TIP3   OH258852   4.134   1.194  12.669  0.2567  0.3849 -0.4963
12454TIP3    H158853   4.101   1.109  12.638 -0.7343 -0.0723  1.6192
12454TIP3    H258854   4.058   1.236  12.708  1.1661  1.4254  0.2050
12455TIP3   OH258855   5.463   5.988   3.931 -0.5350  0.0292 -0.2821
12455TIP3    H158856   5.451   6.073   3.972 -1.3722  0.6211 -1.6821
12455TIP3    H258857   5.544   5.996   3.881  0.0217 -0.4019  0.5355
12456TIP3   OH258858   2.444   6.687  12.203 -0.0336  0.2591  0.5609
12456TIP3    H158859   2.524   6.729  12.236 -0.7655  0.5024  2.1473
12456TIP3    H258860   2.454   6.595  12.227  1.0875 -0.3391 -1.9574
12457TIP3   OH258861   3.683   5.583   2.042 -0.1113  0.2037  0.2554
12457TIP3    H158862   3.724   5.558   1.960 -1.1532 -2.2582  0.3820
12457TIP3    H258863   3.704   5.676   2.053  0.0169  0.6332 -2.7864
12458TIP3   OH258864   6.030   6.568  17.188  0.1008  0.0599  0.0618
12458TIP3    H158865   5.967   6.519  17.241 -0.2608 -0.2055 -0.5950
12458TIP3    H258866   6.092   6.502  17.157  0.5552  0.2797  0.4941
12459TIP3   OH258867   6.730   6.331  16.157 -0.5798 -0.3639  0.4414
12459TIP3    H158868   6.777   6.260  16.113  1.1127 -0.4070  2.1820
12459TIP3    H258869   6.728   6.402  16.093  2.8278  0.0035  0.5522
12460TIP3   OH258870   4.851   1.078  15.451 -0.4624 -0.1582 -0.5317
12460TIP3    H158871   4.879   0.992  15.483 -0.8596  0.5033  1.7769
12460TIP3    H258872   4.930   1.132  15.457 -0.9971  0.4897  1.4323
12461TIP3   OH258873   4.633   3.931  11.706 -0.1829  0.3057 -0.1813
12461TIP3    H158874   4.713   3.921  11.654  0.5487  2.0272  0.5133
12461TIP3    H258875   4.566   3.882  11.658  0.8284  0.4933 -1.8628
12462TIP3   OH258876   5.338   5.314   2.870  0.1963  0.6318 -0.3661
12462TIP3    H158877   5.309   5.365   2.795  1.1683  0.4333 -0.8953
12462TIP3    H258878   5.293   5.230   2.861  1.3585  0.0812 -1.5538
12463TIP3   OH258879   1.151   0.681  14.486  0.5979 -0.7963  0.4184
12463TIP3    H158880   1.235   0.701  14.444  0.9286 -1.7731  0.5954
12463TIP3    H258881   1.088   0.736  14.439  1.0796 -1.2822 -0.8567
12464TIP3   OH258882   1.826   4.837  15.208  0.5970  0.5031 -0.1271
12464TIP3    H158883   1.741   4.796  15.198  2.1385 -3.4795  1.2550
12464TIP3    H258884   1.807   4.923  15.246 -2.7511 -0.5760  0.9579
12465TIP3   OH258885   2.671   2.360   5.483  0.3400  0.4364  0.3530
12465TIP3    H158886   2.636   2.379   5.570  0.5376  0.6936  0.3777
12465TIP3    H258887   2.747   2.304   5.499 -0.1843 -0.3115  0.2862
12466TIP3   OH258888   2.990   6.154   0.120 -0.1643  0.4561 -0.1643
12466TIP3    H158889   3.000   6.178   0.028 -0.5600  0.4182 -0.2184
12466TIP3    H258890   2.943   6.071   0.118  0.4080  0.1176  0.0516
12467TIP3   OH258891   4.304   1.507   0.122 -0.7500 -0.3189  0.4276
12467TIP3    H158892   4.329   1.512   0.030  0.5706  0.2135  0.7868
12467TIP3    H258893   4.384   1.477   0.167 -1.8200 -2.1580  1.2297
12468TIP3   OH258894   5.915   1.637   1.868 -0.6237  0.2112 -0.2877
12468TIP3    H158895   6.004   1.615   1.897 -0.2774 -0.0010 -1.4533
12468TIP3    H258896   5.918   1.730   1.847 -0.7208  0.2392 -0.1798
12469TIP3   OH258897   6.763   0.121   6.297  0.1457 -0.3170  0.8646
12469TIP3    H158898   6.717   0.204   6.308  0.4424 -0.4032  3.4964
12469TIP3    H258899   6.852   0.139   6.329 -0.2155 -1.9564  3.0456
12470TIP3   OH258900   5.757   2.857   4.585 -0.4491  0.2680 -0.1494
12470TIP3    H158901   5.695   2.903   4.641 -0.2500  1.8706 -1.1442
12470TIP3    H258902   5.796   2.927   4.532 -0.0850 -1.0706 -1.7245
12471TIP3   OH258903   0.231   2.751   5.535 -0.0736 -0.4208  0.1080
12471TIP3    H158904   0.312   2.717   5.497  1.4834  2.0972  0.8976
12471TIP3    H258905   0.171   2.759   5.461  0.3789 -2.2419 -0.5135
12472TIP3   OH258906   3.837   1.354   3.270 -0.1024  0.3696 -0.7038
12472TIP3    H158907   3.865   1.441   3.299  0.8255 -0.1204 -0.0770
12472TIP3    H258908   3.789   1.371   3.189 -0.9917  1.5780  0.0290
12473TIP3   OH258909   5.488   3.902  10.683 -0.2353  0.1310 -0.1325
12473TIP3    H158910   5.572   3.930  10.720  0.2163 -0.9312 -0.3436
12473TIP3    H258911   5.458   3.979  10.634  2.4128 -0.6018 -3.2170
12474TIP3   OH258912   6.550   3.273  13.245 -0.2544  0.3325  0.3815
12474TIP3    H158913   6.503   3.311  13.319  0.7579  0.7292  0.8291
12474TIP3    H258914   6.639   3.306  13.253  0.8513 -2.5076  1.1099
12475TIP3   OH258915   2.405   3.027  16.233 -0.6990 -0.3364 -0.3329
12475TIP3    H158916   2.428   3.119  16.222  2.0833 -0.9343 -0.2186
12475TIP3    H258917   2.406   3.012  16.327  0.5510 -0.8136 -0.3984
12476TIP3   OH258918   1.865   4.470  17.193  1.0869 -0.0420  0.1113
12476TIP3    H158919   1.941   4.475  17.134  0.4056 -0.0191 -0.7912
12476TIP3    H258920   1.894   4.513  17.273  1.6436  1.0152 -0.6326
12477TIP3   OH258921   1.519   0.057   1.384 -0.2305  0.8249  0.6271
12477TIP3    H158922   1.488   0.138   1.425 -2.8774  0.2720 -0.0705
12477TIP3    H258923   1.485  -0.013   1.440 -0.5694  0.1704 -0.3685
12478TIP3   OH258924   1.936   6.631  11.877  0.0071 -0.0461  0.1766
12478TIP3    H158925   1.853   6.674  11.899 -1.1155 -0.8942 -2.0848
12478TIP3    H258926   1.956   6.661  11.788  1.5722 -0.7092  0.2677
12479TIP3   OH258927   3.242   0.342   2.034 -0.4176  0.0983  0.3983
12479TIP3    H158928   3.156   0.349   2.076  0.1922  2.4954  1.4595
12479TIP3    H258929   3.299   0.397   2.088  2.1721 -2.4983  0.5867
12480TIP3   OH258930   6.502   3.086  12.060 -0.5703 -0.7614  0.0649
12480TIP3    H158931   6.418   3.121  12.033 -1.7415 -1.1343  2.8696
12480TIP3    H258932   6.552   3.077  11.979 -1.7528  3.1115 -1.2788
12481TIP3   OH258933   1.260   2.125  13.979  0.5789  0.7757 -0.7152
12481TIP3    H158934   1.254   2.032  13.956  0.3353  0.7902 -0.7198
12481TIP3    H258935   1.302   2.127  14.065 -0.1731  0.6084 -0.3353
12482TIP3   OH258936   2.502   4.266   1.275  0.4383  0.3514  0.2620
12482TIP3    H158937   2.547   4.261   1.191  0.2870  0.1801  0.1905
12482TIP3    H258938   2.417   4.226   1.259  0.8829 -0.8530  0.8250
12483TIP3   OH258939   1.794   1.581   2.943  0.7687 -0.6711  0.1988
12483TIP3    H158940   1.787   1.556   2.851  0.0862 -2.3573  0.6678
12483TIP3    H258941   1.883   1.614   2.952  0.3110  1.2106 -1.4290
12484TIP3   OH258942   6.102   6.264   1.711 -0.8788  0.2120  0.1514
12484TIP3    H158943   6.173   6.327   1.696 -0.1437 -0.6096  0.1230
12484TIP3    H258944   6.068   6.287   1.798 -1.3272  1.3089 -0.2959
12485TIP3   OH258945   3.749   4.399  14.172  0.2079  0.6183  0.1626
12485TIP3    H158946   3.700   4.461  14.226  0.9134  0.1387  1.4099
12485TIP3    H258947   3.711   4.314  14.194  1.5556  0.2371  1.1668
12486TIP3   OH258948   2.729   3.223   6.449 -0.5132  0.1412 -0.3222
12486TIP3    H158949   2.674   3.201   6.524  0.0754 -2.0261 -0.4546
12486TIP3    H258950   2.672   3.274   6.392 -1.5096  0.3333  0.8054
12487TIP3   OH258951   2.316   0.313  16.318 -0.3094  0.2507 -0.2852
12487TIP3    H158952   2.253   0.253  16.359  1.0733 -2.1050 -1.3939
12487TIP3    H258953   2.400   0.268  16.324  1.0459  2.6119 -0.2270
12488TIP3   OH258954   1.346   6.383   1.128 -0.2620  0.4760  0.2087
12488TIP3    H158955   1.385   6.383   1.215  2.2471  0.8250 -0.8414
12488TIP3    H258956   1.343   6.475   1.103 -0.6031  0.3471 -0.2290
12489TIP3   OH258957   0.558   4.973  13.253 -0.5392  0.1095 -0.1600
12489TIP3    H158958   0.469   5.006  13.240 -0.3969  1.8207  2.4579
12489TIP3    H258959   0.547   4.899  13.314 -0.1344  0.8559  0.8368
12490TIP3   OH258960   4.927   2.352   1.458 -0.1541 -0.0214  0.9646
12490TIP3    H158961   4.904   2.341   1.550  4.1897 -0.0784  2.2206
12490TIP3    H258962   4.959   2.266   1.431 -1.8120 -0.1400 -0.8582
12491TIP3   OH258963   6.065   5.385  16.792  0.1154  0.1229  0.8187
12491TIP3    H158964   6.044   5.455  16.731  0.1865 -1.9852 -1.7873
12491TIP3    H258965   5.980   5.353  16.823  0.0681  0.8986  1.5363
12492TIP3   OH258966   2.517   3.285   1.798 -0.2164 -0.6711 -0.2065
12492TIP3    H158967   2.447   3.351   1.804  1.0823  0.7150  0.3713
12492TIP3    H258968   2.593   3.333   1.765  0.5742 -2.0727 -0.5244
12493TIP3   OH258969   4.233   1.518  11.858 -0.0070  0.0392 -0.3651
12493TIP3    H158970   4.184   1.445  11.821 -0.9543 -0.5002  1.7546
12493TIP3    H258971   4.168   1.587  11.873 -0.0861 -0.4263  1.8416
12494TIP3   OH258972   1.338   1.565   4.936 -0.4222 -0.0602 -0.5473
12494TIP3    H158973   1.377   1.478   4.947 -0.8952 -0.1453  0.6172
12494TIP3    H258974   1.246   1.554   4.962 -0.6220  0.6700 -0.9055
12495TIP3   OH258975   6.170   2.473   2.178 -0.2581 -0.1814  0.2145
12495TIP3    H158976   6.194   2.551   2.228 -1.7530  1.9448 -2.1490
12495TIP3    H258977   6.076   2.483   2.162 -0.1274 -1.5223 -1.7191
12496TIP3   OH258978   3.402   2.796  15.206  0.7797 -0.3821  0.4023
12496TIP3    H158979   3.437   2.850  15.135  0.9129  0.1707  0.8805
12496TIP3    H258980   3.476   2.745  15.237  1.3667  1.2574  1.8449
12497TIP3   OH258981   2.346   6.643   0.110  0.5632  0.3372 -0.8848
12497TIP3    H158982   2.330   6.687   0.027 -0.6202  1.2649 -0.2225
12497TIP3    H258983   2.262   6.650   0.157  0.8111 -1.2810 -0.1157
12498TIP3   OH258984   0.074   4.017   1.806  0.4710  0.7395 -0.3721
12498TIP3    H158985   0.112   4.083   1.748  0.6847 -0.2116 -1.3647
12498TIP3    H258986   0.143   3.951   1.816  0.4455  0.9071  1.0144
12499TIP3   OH258987   0.689   2.263   1.936 -0.3913 -0.6834 -0.0849
12499TIP3    H158988   0.598   2.233   1.935 -0.1196 -1.5423  0.2180
12499TIP3    H258989   0.687   2.344   1.987 -1.2214  0.1097 -1.3221
12500TIP3   OH258990   5.210   3.052   2.679 -0.3095  0.2927 -0.9263
12500TIP3    H158991   5.189   2.970   2.636  0.3469 -0.1626 -0.3906
12500TIP3    H258992   5.126   3.096   2.690 -0.5732  0.0748 -1.9624
12501TIP3   OH258993   1.706   4.009   5.087 -0.6442  0.3596  0.3922
12501TIP3    H158994   1.699   3.917   5.112  0.6257  0.6269  1.9107
12501TIP3    H258995   1.678   4.011   4.996 -1.1162 -1.4527  0.4508
12502TIP3   OH258996   0.051   6.197  13.326  0.1833  0.1759 -0.1468
12502TIP3    H158997   0.004   6.187  13.243  0.0979 -0.3462 -0.0382
12502TIP3    H258998   0.015   6.277  13.364 -2.2536 -1.3218  0.9721
12503TIP3   OH258999   6.338   2.595   5.013  0.0292 -0.9374 -0.1352
12503TIP3    H159000   6.301   2.556   4.934  0.5963 -0.2405 -0.7493
12503TIP3    H259001   6.330   2.527   5.079  1.7141 -2.4146 -1.3673
12504TIP3   OH259002   6.165   0.560   5.154  0.0807 -0.5259 -0.1982
12504TIP3    H159003   6.204   0.474   5.141  1.9493  0.2447 -0.0475
12504TIP3    H259004   6.173   0.604   5.069 -1.4165 -0.6866 -0.4434
12505TIP3   OH259005   3.049   6.327   5.325  0.2396 -0.4421 -0.9547
12505TIP3    H159006   3.022   6.313   5.416  0.1135  1.9737 -0.5485
12505TIP3    H259007   2.976   6.294   5.272 -1.3314  1.3449 -0.0251
12506TIP3   OH259008   2.985   3.078  16.278  0.0945 -0.1476  0.5313
12506TIP3    H159009   2.992   3.026  16.198 -0.0102  0.5891  0.0389
12506TIP3    H259010   3.068   3.125  16.283 -0.0432  0.0786  0.6704
12507TIP3   OH259011   2.941   4.415  13.845 -0.0351  0.4409  0.2343
12507TIP3    H159012   2.900   4.347  13.793  1.0731 -1.2854  1.4804
12507TIP3    H259013   3.031   4.383  13.859  0.9936  2.8661 -0.3395
12508TIP3   OH259014   2.253   6.610   4.175 -0.2812 -0.3265  0.1640
12508TIP3    H159015   2.178   6.617   4.235  0.5886 -0.2401  1.2583
12508TIP3    H259016   2.271   6.700   4.149  0.2307 -0.2091  0.9000
12509TIP3   OH259017   3.381   5.081   4.068  0.0979  0.6959 -0.2929
12509TIP3    H159018   3.419   5.168   4.059  1.5068  0.1207 -0.1578
12509TIP3    H259019   3.428   5.042   4.141  1.0454 -0.9565 -1.7082
12510TIP3   OH259020   5.153   4.961   3.058 -0.2497  0.0807 -0.8295
12510TIP3    H159021   5.149   5.042   3.109  0.4488 -0.0493 -0.5618
12510TIP3    H259022   5.200   4.985   2.978  1.3492 -0.4049 -0.0641
12511TIP3   OH259023   4.165   4.149   0.421  0.3474  0.2988  0.0315
12511TIP3    H159024   4.080   4.124   0.386 -0.9127  2.8910  0.9819
12511TIP3    H259025   4.145   4.184   0.508  2.4306  0.6457  0.4093
12512TIP3   OH259026   3.666   0.200   2.280 -0.8618 -0.0331  0.7004
12512TIP3    H159027   3.715   0.124   2.250 -3.2557 -2.0963  1.7260
12512TIP3    H259028   3.673   0.198   2.375 -0.0327  1.7405  0.7190
12513TIP3   OH259029   5.179   1.789   5.938  0.0190 -0.4656  0.0994
12513TIP3    H159030   5.193   1.882   5.951  0.8479 -0.6228  0.4161
12513TIP3    H259031   5.096   1.770   5.982 -1.5085  0.5883 -2.1424
12514TIP3   OH259032   6.425   3.177  13.011  0.5847 -0.2410 -0.3408
12514TIP3    H159033   6.378   3.255  12.980  0.8402 -0.6536 -1.8804
12514TIP3    H259034   6.484   3.209  13.078  0.3214  0.8174 -0.6001
12515TIP3   OH259035   2.773   3.345   1.530  0.3210  0.3790  0.0692
12515TIP3    H159036   2.793   3.419   1.473 -1.6592  0.1054 -1.0964
12515TIP3    H259037   2.766   3.382   1.617  1.4028  1.1732 -0.1556
12516TIP3   OH259038   3.486   4.125  12.667 -0.5086  0.0648  0.4213
12516TIP3    H159039   3.451   4.151  12.582  1.3155  0.3952 -0.2772
12516TIP3    H259040   3.477   4.029  12.668  1.3629 -0.1933 -1.1093
12517TIP3   OH259041   1.048   3.922  11.029 -0.0415 -0.0589  0.0463
12517TIP3    H159042   0.975   3.899  11.087  1.1576  0.7238  1.9849
12517TIP3    H259043   1.112   3.852  11.045  1.0198  1.1075  1.0848
12518TIP3   OH259044   1.881   3.558   5.619 -0.1364  0.2498  0.5061
12518TIP3    H159045   1.811   3.525   5.563 -0.2242 -0.9096  1.2670
12518TIP3    H259046   1.851   3.542   5.708  0.7799  0.4114  0.8608
12519TIP3   OH259047   3.696   1.305   0.664  0.3230 -0.5085 -0.0262
12519TIP3    H159048   3.767   1.265   0.614 -0.4877 -1.4971 -0.4111
12519TIP3    H259049   3.668   1.237   0.725  0.9965  0.5233  1.5215
12520TIP3   OH259050   5.387   2.604  14.888 -0.4550  0.1997 -0.3919
12520TIP3    H159051   5.339   2.616  14.806 -1.2220 -0.6323 -0.0797
12520TIP3    H259052   5.320   2.612  14.956  0.2474  1.3391  0.2005
12521TIP3   OH259053   5.021   4.343  15.972  0.4206 -0.0531  0.3484
12521TIP3    H159054   5.101   4.394  15.964  0.5619 -0.5298 -1.9644
12521TIP3    H259055   4.972   4.362  15.892 -0.8039 -1.3838  0.7336
12522TIP3   OH259056   6.007   4.355  11.270  0.2369  0.0916  0.1265
12522TIP3    H159057   5.989   4.300  11.345 -1.5987 -0.6804 -0.8217
12522TIP3    H259058   5.926   4.354  11.219  2.1333 -1.6069 -3.2296
12523TIP3   OH259059   0.531   3.480  15.175  0.1855 -0.2352  0.0257
12523TIP3    H159060   0.445   3.439  15.169  0.3802 -0.5590 -0.7319
12523TIP3    H259061   0.574   3.436  15.248 -0.0130 -0.6016 -0.0777
12524TIP3   OH259062   5.850   5.194   4.916 -0.6678 -0.5519  0.2409
12524TIP3    H159063   5.893   5.139   4.982  0.5467  0.7910  0.6344
12524TIP3    H259064   5.875   5.283   4.940 -0.3866 -0.0033 -1.9126
12525TIP3   OH259065   3.659   4.338  12.199  0.3485  0.1025  0.5540
12525TIP3    H159066   3.671   4.245  12.216 -0.9177  0.0340  1.2126
12525TIP3    H259067   3.686   4.350  12.108  0.7263 -0.8596  0.5275
12526TIP3   OH259068   1.892   4.800   4.334  0.2480 -0.3441  0.0820
12526TIP3    H159069   1.905   4.819   4.427  0.2228 -0.1250  0.0395
12526TIP3    H259070   1.980   4.809   4.295  0.0575  0.7362 -0.1319
12527TIP3   OH259071   5.975   2.091   0.528  0.1842 -0.4341 -0.3802
12527TIP3    H159072   6.012   2.077   0.615 -1.4111  0.1424  0.4400
12527TIP3    H259073   5.943   2.181   0.529 -1.9025 -1.1059 -0.7053
12528TIP3   OH259074   4.031   1.903  13.425  0.5281 -0.0477 -0.9351
12528TIP3    H159075   4.054   1.811  13.437 -0.4275 -0.4699 -2.0988
12528TIP3    H259076   3.961   1.920  13.488 -1.9107 -1.2215 -3.1281
12529TIP3   OH259077   1.363   1.451  11.488  0.0084 -0.4128  0.0499
12529TIP3    H159078   1.291   1.462  11.549  0.5605  0.0277  0.6327
12529TIP3    H259079   1.322   1.421  11.407 -0.7224 -1.0965  0.6632
12530TIP3   OH259080   4.758   0.096  12.319  0.4630  0.2140 -0.2293
12530TIP3    H159081   4.821   0.035  12.280  0.7844  0.0248  0.5569
12530TIP3    H259082   4.759   0.172  12.262  2.6521  0.9070  0.6193
12531TIP3   OH259083   1.614   4.934   5.606  0.4951 -0.4462  0.0473
12531TIP3    H159084   1.589   4.890   5.688  0.6864  0.0339  0.3647
12531TIP3    H259085   1.709   4.942   5.612  0.4246  0.3531  0.1670
12532TIP3   OH259086   5.298   4.333  14.481 -0.0595  0.3432  0.3610
12532TIP3    H159087   5.347   4.270  14.534  0.6910  0.0220 -0.6932
12532TIP3    H259088   5.362   4.367  14.418  0.0076  3.3688  1.8768
12533TIP3   OH259089   1.874   2.748  16.415  0.0289 -0.0967  0.4318
12533TIP3    H159090   1.937   2.704  16.358 -2.0463 -1.6414 -0.7965
12533TIP3    H259091   1.876   2.840  16.387 -0.0118 -0.5840 -1.2557
12534TIP3   OH259092   3.514   5.517   0.771  0.5769  0.8225  0.3893
12534TIP3    H159093   3.606   5.507   0.745  0.7093  1.5271  0.5578
12534TIP3    H259094   3.477   5.576   0.705 -0.3885 -1.2815 -1.0653
12535TIP3   OH259095   1.674   3.878   0.565 -0.3994  0.5021 -0.4131
12535TIP3    H159096   1.704   3.790   0.543  0.0705  0.7452 -0.7794
12535TIP3    H259097   1.666   3.878   0.661 -2.2940 -0.5135 -0.5460
12536TIP3   OH259098   4.717   4.568  10.638  0.6253  0.2318  0.1658
12536TIP3    H159099   4.659   4.634  10.600  0.3841  0.1493  0.3906
12536TIP3    H259100   4.768   4.615  10.703  1.7177  0.5871 -0.9097
12537TIP3   OH259101   5.136   2.854   6.388 -0.0658 -0.0264  0.1192
12537TIP3    H159102   5.041   2.867   6.383 -0.2389 -0.6157  1.3766
12537TIP3    H259103   5.147   2.759   6.380  0.2914 -0.0983  1.3715
12538TIP3   OH259104   4.827   4.759   2.837  0.6707  0.0731 -0.8016
12538TIP3    H159105   4.883   4.780   2.912  0.2154  1.5956 -0.8580
12538TIP3    H259106   4.882   4.774   2.760  0.4483  0.7484 -0.8324
12539TIP3   OH259107   0.404   0.436   0.102 -0.3641 -0.6203 -0.7410
12539TIP3    H159108   0.487   0.481   0.118 -0.0778 -0.3383 -2.7078
12539TIP3    H259109   0.418   0.347   0.135  0.5529 -0.4495 -0.6466
12540TIP3   OH259110   1.034   6.771   1.076 -0.4014  0.0494 -0.3530
12540TIP3    H159111   0.959   6.782   1.017 -0.1336  1.6485 -0.4272
12540TIP3    H259112   1.110   6.796   1.024 -0.0193  0.2131  0.2710
12541TIP3   OH259113   4.773   0.327  10.471 -0.5903  0.3921  0.4851
12541TIP3    H159114   4.846   0.288  10.424 -1.1446 -0.2148  0.1097
12541TIP3    H259115   4.790   0.421  10.467  1.2168  0.1984  2.1545
12542TIP3   OH259116   6.106   0.680  11.839 -0.2968  0.2029  0.0362
12542TIP3    H159117   6.162   0.648  11.910  0.7358 -0.6151 -1.1099
12542TIP3    H259118   6.024   0.632  11.850 -0.9264  1.5590  1.8595
12543TIP3   OH259119   3.473   4.590   3.719 -0.0651  0.0898 -0.0491
12543TIP3    H159120   3.386   4.576   3.682 -0.1571  2.0577 -0.6735
12543TIP3    H259121   3.490   4.683   3.707  2.0483 -0.1971  0.2580
12544TIP3   OH259122   0.881   1.503   4.018 -0.2359 -0.1896 -0.4181
12544TIP3    H159123   0.902   1.532   3.930  0.6301 -0.9704 -0.4848
12544TIP3    H259124   0.938   1.427   4.033 -0.7117 -0.3637  0.6290
12545TIP3   OH259125   3.674   0.049  13.776 -0.0429 -0.4532  0.5050
12545TIP3    H159126   3.676  -0.019  13.708  1.6130  1.6371 -1.7679
12545TIP3    H259127   3.761   0.045  13.816  0.2330  0.5552  0.0424
12546TIP3   OH259128   6.409   4.426   1.858 -0.2500  0.0827  0.5539
12546TIP3    H159129   6.492   4.399   1.820  0.3902 -0.3063  2.1349
12546TIP3    H259130   6.360   4.345   1.869 -1.0212  0.3530 -0.7298
12547TIP3   OH259131   0.585   1.756   1.847  0.0837 -0.2901 -0.0277
12547TIP3    H159132   0.631   1.713   1.919 -0.1376 -1.5467 -0.6061
12547TIP3    H259133   0.645   1.748   1.772 -0.9932 -1.8818 -0.7711
12548TIP3   OH259134   5.859   1.921   4.832 -0.3259  0.1864  0.3929
12548TIP3    H159135   5.870   1.866   4.754 -0.3429 -0.9704  1.1727
12548TIP3    H259136   5.946   1.954   4.850 -0.3432  0.5623 -0.1814
12549TIP3   OH259137   6.346   3.965   6.635  0.5186  0.7123  0.0262
12549TIP3    H159138   6.326   3.971   6.542 -0.8658 -0.4969  0.2111
12549TIP3    H259139   6.410   4.035   6.651  0.1975  1.4260 -1.6569
12550TIP3   OH259140   4.949   0.679  14.443 -0.4415  0.7699 -0.7993
12550TIP3    H159141   5.028   0.661  14.494  0.8544  0.1420 -2.8943
12550TIP3    H259142   4.928   0.770  14.462  0.0962  0.6077  0.6787
12551TIP3   OH259143   0.851   3.647  16.777  0.9179 -0.5700  0.3097
12551TIP3    H159144   0.832   3.715  16.712  1.4545  0.5692  1.2913
12551TIP3    H259145   0.815   3.567  16.739 -0.6242  0.4271 -0.4576
12552TIP3   OH259146   6.429   4.821   0.398 -0.8676  0.4941  0.4420
12552TIP3    H159147   6.419   4.915   0.384  1.8230  0.6480 -1.2461
12552TIP3    H259148   6.369   4.782   0.334 -1.4890  1.0671  0.6634
12553TIP3   OH259149   4.741   2.769  10.484 -0.0080 -0.2261 -0.3496
12553TIP3    H159150   4.741   2.702  10.415 -1.1813 -0.3844 -0.2093
12553TIP3    H259151   4.767   2.849  10.439  1.5421 -0.7780 -0.4945
12554TIP3   OH259152   5.383   5.700   0.494  0.0403  0.1945  0.0356
12554TIP3    H159153   5.291   5.678   0.479 -0.3413  1.3696  0.5411
12554TIP3    H259154   5.382   5.794   0.516  1.4416  0.4065 -0.7262
12555TIP3   OH259155   1.109   5.433  10.763  0.1296  0.7742 -0.5905
12555TIP3    H159156   1.063   5.370  10.818  0.0591  0.8791 -0.5296
12555TIP3    H259157   1.160   5.486  10.825 -0.7294  1.5468 -0.5327
12556TIP3   OH259158   0.307   5.366   1.642 -0.1027 -0.2772  0.0795
12556TIP3    H159159   0.251   5.288   1.642 -0.6462 -0.0193 -3.4764
12556TIP3    H259160   0.395   5.332   1.631 -0.2377 -0.4350 -0.5232
12557TIP3   OH259161   2.371   3.717   0.747 -0.3997  0.1419 -0.0288
12557TIP3    H159162   2.365   3.803   0.790  0.9216  0.1683  0.1486
12557TIP3    H259163   2.361   3.736   0.654  0.3476  0.5648 -0.0315
12558TIP3   OH259164   3.341   2.372  14.231 -0.0369  0.3541 -0.0158
12558TIP3    H159165   3.397   2.348  14.157 -0.4512 -0.2814 -0.1347
12558TIP3    H259166   3.254   2.338  14.207  0.1301 -1.2155  1.3953
12559TIP3   OH259167   2.872   4.206   3.345  0.2558  0.4004 -0.0467
12559TIP3    H159168   2.908   4.141   3.406  1.4726  0.2757 -0.8603
12559TIP3    H259169   2.948   4.240   3.299 -0.2186  3.2145  1.0635
12560TIP3   OH259170   1.966   1.238   1.005  0.6378  0.0778  0.4814
12560TIP3    H159171   1.963   1.245   0.910 -2.2437  0.6311  0.5314
12560TIP3    H259172   2.041   1.291   1.031 -0.2980  2.4370 -1.3338
12561TIP3   OH259173   2.458   4.023   0.906 -0.4153 -0.4080  0.0674
12561TIP3    H159174   2.476   4.046   0.815 -0.0270 -2.5102 -0.4322
12561TIP3    H259175   2.363   4.013   0.909 -0.3125 -1.6599 -0.4659
12562TIP3   OH259176   3.551   4.932   4.544  0.0105  0.4030  0.6324
12562TIP3    H159177   3.588   4.848   4.572  0.2320  0.1113 -0.4857
12562TIP3    H259178   3.471   4.941   4.596  1.6682  1.1483  3.2684
12563TIP3   OH259179   3.407   6.648   5.027 -0.4631 -0.6709  0.5290
12563TIP3    H159180   3.386   6.637   4.934 -0.7409 -0.8476  0.6121
12563TIP3    H259181   3.489   6.600   5.038  0.0177  0.0597  0.1953
12564TIP3   OH259182   1.105   0.302  12.692  0.0552 -0.1058  0.0534
12564TIP3    H159183   1.060   0.252  12.760  0.9858  0.2732  0.9692
12564TIP3    H259184   1.052   0.382  12.682 -0.3806 -0.4048 -0.0697
12565TIP3   OH259185   1.227   4.483  14.985  0.5665  0.0696  0.6355
12565TIP3    H159186   1.301   4.422  14.980  0.7772  0.3461  0.2242
12565TIP3    H259187   1.253   4.546  15.052 -0.3995 -1.2480  2.2910
12566TIP3   OH259188   0.144   4.725  15.339  0.2043  0.6849 -0.4809
12566TIP3    H159189   0.137   4.744  15.245 -1.2081  1.1358 -0.3212
12566TIP3    H259190   0.053   4.717  15.368  0.6269 -2.2942  0.3321
12567TIP3   OH259191   3.738   3.876  16.940  0.5219  0.2345  0.0749
12567TIP3    H159192   3.746   3.809  17.007 -0.4108 -0.7021 -0.7119
12567TIP3    H259193   3.680   3.838  16.875  0.8773  1.3764 -0.9513
12568TIP3   OH259194   2.397   5.084   3.125  0.4057  0.1320  0.7647
12568TIP3    H159195   2.415   5.007   3.179 -0.9733 -0.2448  0.7272
12568TIP3    H259196   2.436   5.157   3.173  1.4835 -0.5387  0.9396
12569TIP3   OH259197   1.574   2.583   5.174  0.9667 -0.0587  0.1420
12569TIP3    H159198   1.573   2.503   5.121  1.4334 -0.0670  0.1428
12569TIP3    H259199   1.537   2.650   5.116  0.1631 -0.3536  0.2877
12570TIP3   OH259200   0.086   3.545   0.447 -0.2088  0.1344 -0.5690
12570TIP3    H159201   0.047   3.632   0.458  1.4273  0.7251  1.1136
12570TIP3    H259202   0.037   3.489   0.508 -0.0531  0.3127 -0.2764
12571TIP3   OH259203   4.821   1.654  15.268 -0.6043 -0.2790  0.0353
12571TIP3    H159204   4.741   1.689  15.228 -1.1412 -0.9738  0.4781
12571TIP3    H259205   4.805   1.560  15.276 -0.2845 -0.2452  1.3432
12572TIP3   OH259206   1.608   6.411   2.090 -0.1339  0.3395  0.0989
12572TIP3    H159207   1.655   6.478   2.040 -1.0799  0.4969 -0.6015
12572TIP3    H259208   1.658   6.331   2.075 -1.3150 -0.0075 -2.5635
12573TIP3   OH259209   2.647   2.489   6.078  0.3586 -0.3359 -0.3906
12573TIP3    H159210   2.591   2.563   6.054  0.5858  0.3180  1.0213
12573TIP3    H259211   2.613   2.416   6.027 -0.3886  0.5494 -1.2029
12574TIP3   OH259212   2.493   4.370   4.103  0.3125  0.3851 -0.5485
12574TIP3    H159213   2.430   4.350   4.173  1.7687 -0.0931  0.6744
12574TIP3    H259214   2.462   4.319   4.028 -1.4490  1.1301 -0.3942
12575TIP3   OH259215   6.165   5.691   3.852 -0.2326  0.2757 -0.5167
12575TIP3    H159216   6.072   5.713   3.842 -0.0424  1.5275  0.1943
12575TIP3    H259217   6.195   5.674   3.763 -1.0325  0.3855 -0.8142
12576TIP3   OH259218   6.040   2.933  16.932 -0.3884 -0.3705 -0.2488
12576TIP3    H159219   6.129   2.915  16.962  0.3374  0.4060 -1.8359
12576TIP3    H259220   6.050   2.995  16.860 -2.3373  1.2225  0.7033
12577TIP3   OH259221   4.128   0.133  14.638  0.3337  0.2627  0.2643
12577TIP3    H159222   4.209   0.121  14.688  0.5826  0.1824 -0.1472
12577TIP3    H259223   4.070   0.182  14.696 -1.4624 -4.3127  2.8626
12578TIP3   OH259224   0.997   4.072  16.443 -0.1807 -0.2169 -0.2686
12578TIP3    H159225   0.994   4.149  16.500  0.6986  0.7483 -1.4831
12578TIP3    H259226   0.906   4.057  16.418 -0.3005  0.7536 -0.4435
12579TIP3   OH259227   1.756   0.318   1.430 -0.5212  0.8985  0.3820
12579TIP3    H159228   1.808   0.240   1.411  0.0671  1.2667  0.4566
12579TIP3    H259229   1.687   0.286   1.489 -2.4747 -0.2984 -2.3544
12580TIP3   OH259230   3.068   0.977  17.021  0.4129  0.0361 -0.2982
12580TIP3    H159231   3.116   1.002  17.100  0.3152 -1.3350  0.2107
12580TIP3    H259232   3.061   1.059  16.971  1.1790  0.7554  0.7225
12581TIP3   OH259233   3.630   1.308  13.767 -0.1014 -0.2634 -0.1893
12581TIP3    H159234   3.672   1.358  13.837 -1.2771 -0.5625  0.7683
12581TIP3    H259235   3.537   1.311  13.789 -0.5549  0.0122 -2.0048
12582TIP3   OH259236   4.361   6.097   6.379  0.4224 -0.6995  0.2695
12582TIP3    H159237   4.423   6.101   6.451  1.6703  0.7992 -0.8326
12582TIP3    H259238   4.276   6.118   6.419  0.8373 -1.3473  1.5280
12583TIP3   OH259239   2.933   5.803   4.628 -0.4486 -0.3141 -0.6277
12583TIP3    H159240   2.993   5.852   4.684  0.5513 -0.2800 -1.6805
12583TIP3    H259241   2.866   5.867   4.603  0.0947  0.1524 -0.9068
12584TIP3   OH259242   3.716   3.733  13.522  0.3105  0.2663 -0.1533
12584TIP3    H159243   3.738   3.715  13.431 -1.6325  0.4569 -0.7196
12584TIP3    H259244   3.726   3.649  13.567 -1.2028 -0.4728 -1.1215
12585TIP3   OH259245   5.125   3.001   3.199 -0.3044  0.0569  0.3998
12585TIP3    H159246   5.165   2.915   3.203 -1.0894 -0.2990  0.9810
12585TIP3    H259247   5.145   3.034   3.111  0.2730 -0.5714  0.2899
12586TIP3   OH259248   5.685   2.879   0.233 -0.0829 -0.4613 -0.0488
12586TIP3    H159249   5.685   2.940   0.160 -1.2789  0.6166  0.8196
12586TIP3    H259250   5.674   2.793   0.192 -0.4932  0.0967 -1.1528
12587TIP3   OH259251   2.082   3.082  13.115  0.0165  0.0224 -0.2638
12587TIP3    H159252   2.159   3.133  13.087 -1.2328  1.9677 -0.3793
12587TIP3    H259253   2.091   2.998  13.070  1.2606  0.8011 -1.5619
12588TIP3   OH259254   5.177   1.625   1.509 -0.2628  0.4175  0.0150
12588TIP3    H159255   5.110   1.561   1.533 -0.4527 -1.1457 -3.9132
12588TIP3    H259256   5.260   1.581   1.531 -0.3531 -1.7910 -3.3295
12589TIP3   OH259257   6.380   5.306   4.456 -0.0393 -0.0983  0.0392
12589TIP3    H159258   6.287   5.316   4.438 -0.2649 -1.3249  0.4441
12589TIP3    H259259   6.419   5.285   4.371 -0.1584  0.2095 -0.0923
12590TIP3   OH259260   3.110   6.115  16.911 -0.1373  0.4135 -0.7120
12590TIP3    H159261   3.091   6.045  16.973 -1.0861  0.2215 -1.2035
12590TIP3    H259262   3.088   6.196  16.958 -0.9074  0.2655 -0.8097
12591TIP3   OH259263   3.596   4.305   4.813 -0.0490  0.1643 -0.0800
12591TIP3    H159264   3.619   4.290   4.721  0.6610 -0.4824  0.1932
12591TIP3    H259265   3.569   4.397   4.817  1.3924  0.6358 -0.6424
12592TIP3   OH259266   2.243   2.708  11.127 -0.4911  0.6462 -0.0266
12592TIP3    H159267   2.314   2.653  11.094 -1.5438 -0.5462 -0.3711
12592TIP3    H259268   2.205   2.749  11.049 -0.0227  1.5019  0.1830
12593TIP3   OH259269   4.018   0.616  13.032  0.7414  0.5199 -0.0610
12593TIP3    H159270   4.046   0.530  13.001  0.6133  0.4373  0.0575
12593TIP3    H259271   3.959   0.599  13.105 -0.4533  0.6598 -0.9596
12594TIP3   OH259272   4.361   5.364  13.536 -0.3212 -0.1090 -0.0531
12594TIP3    H159273   4.385   5.450  13.570 -1.5649 -0.1470  0.9667
12594TIP3    H259274   4.403   5.361  13.449 -2.0848  2.4394 -1.1196
12595TIP3   OH259275   6.709   0.386  11.024  0.4922 -0.3840 -0.9678
12595TIP3    H159276   6.680   0.393  11.115  3.0995 -1.3403  0.0325
12595TIP3    H259277   6.630   0.399  10.973 -1.1705 -0.3349  1.4390
12596TIP3   OH259278   6.199   2.466  13.604 -0.3396 -0.9039 -0.0066
12596TIP3    H159279   6.187   2.397  13.669 -2.9318 -0.0957  0.4983
12596TIP3    H259280   6.112   2.505  13.595 -0.0310 -0.7230 -3.6933
12597TIP3   OH259281   0.273   4.800   2.415  0.6648  0.1589 -0.1683
12597TIP3    H159282   0.224   4.771   2.492  1.5884  0.9943  0.7527
12597TIP3    H259283   0.255   4.894   2.409  1.6683  0.3613 -0.1708
12598TIP3   OH259284   4.923   5.678  13.614  0.1001 -0.4118 -0.3507
12598TIP3    H159285   4.890   5.767  13.606  1.6291  0.1625 -0.6443
12598TIP3    H259286   4.848   5.627  13.646 -0.0661  1.5239  2.7432
12599TIP3   OH259287   2.447   6.713   3.884  0.4274 -0.2410  0.2922
12599TIP3    H159288   2.535   6.750   3.889  1.6889 -2.9504  0.2873
12599TIP3    H259289   2.390   6.781   3.918  2.4677  1.7558 -0.0591
12600TIP3   OH259290   4.417   6.576   2.446 -0.0668 -0.8509  0.0329
12600TIP3    H159291   4.512   6.576   2.437 -0.0482 -0.2916  0.1793
12600TIP3    H259292   4.390   6.663   2.416 -0.4884 -0.8579  0.3800
12601TIP3   OH259293   4.003   4.289   0.936 -0.3217  0.1325  0.3193
12601TIP3    H159294   4.025   4.205   0.977  0.9455 -0.6137 -1.7557
12601TIP3    H259295   3.933   4.325   0.991  1.3662 -0.6751  3.2009
12602TIP3   OH259296   0.626   1.932   4.243  0.1080  0.3804 -0.3955
12602TIP3    H159297   0.554   1.916   4.304 -0.4456  0.4907 -1.0072
12602TIP3    H259298   0.667   1.847   4.231  0.3105  0.3894  0.2481
12603TIP3   OH259299   3.197   0.000   5.878 -0.0741  0.4927  0.0522
12603TIP3    H159300   3.177  -0.027   5.788 -2.6357  0.6101  0.5134
12603TIP3    H259301   3.157   0.087   5.886  0.4087  0.6214  1.2000
12604TIP3   OH259302   3.795   3.830  15.951  0.1406  0.1923  0.2635
12604TIP3    H159303   3.724   3.886  15.919 -2.3279 -3.0702 -0.4464
12604TIP3    H259304   3.761   3.791  16.032  1.8791 -0.1585  0.8878
12605TIP3   OH259305   4.213   2.812  13.641 -0.5373  0.8494  0.4317
12605TIP3    H159306   4.198   2.898  13.602 -1.6847  0.6935  0.5098
12605TIP3    H259307   4.126   2.777  13.657 -0.0858  0.3508  1.9185
12606TIP3   OH259308   0.222   1.006   4.744  0.0939 -0.4214 -0.6095
12606TIP3    H159309   0.292   0.941   4.746  0.0341 -0.5069  1.8754
12606TIP3    H259310   0.150   0.965   4.792 -0.2343  1.1657  0.3123
12607TIP3   OH259311   2.705   5.799   4.398 -0.6523 -0.6091  0.2183
12607TIP3    H159312   2.773   5.865   4.416 -0.7855 -0.1734 -0.7929
12607TIP3    H259313   2.629   5.850   4.372 -0.4947 -1.1617 -1.4526
12608TIP3   OH259314   6.256   2.890   1.752  0.0997  0.1641 -0.7175
12608TIP3    H159315   6.225   2.956   1.689 -0.1793  0.4167 -0.3198
12608TIP3    H259316   6.344   2.918   1.775  0.5007 -0.3484 -1.5674
12609TIP3   OH259317   0.808   5.193   2.408  0.0937  0.6153  0.3685
12609TIP3    H159318   0.811   5.213   2.501 -1.0040 -1.7686  0.9791
12609TIP3    H259319   0.880   5.131   2.394 -0.4937  0.0224 -0.1040
12610TIP3   OH259320   1.744   3.912  13.821 -0.5179  0.2342  0.8096
12610TIP3    H159321   1.726   3.969  13.747  0.4324 -0.6756 -0.1579
12610TIP3    H259322   1.663   3.913  13.872 -1.8992 -0.5769 -1.2276
12611TIP3   OH259323   1.887   3.195  13.739  0.0336 -0.3343  0.0453
12611TIP3    H159324   1.887   3.265  13.804 -0.9360 -1.1352  0.9458
12611TIP3    H259325   1.972   3.202  13.696  0.0509  1.2248  0.2908
12612TIP3   OH259326   0.764   1.493  16.100 -0.2119 -0.3650 -0.3285
12612TIP3    H159327   0.711   1.567  16.069 -2.0119 -1.9364 -1.2011
12612TIP3    H259328   0.797   1.453  16.019  1.7590  0.1373  0.1788
12613TIP3   OH259329   4.637   6.033   2.127 -0.2598 -0.2889 -0.8877
12613TIP3    H159330   4.700   6.011   2.196 -1.0936 -0.3610 -0.1416
12613TIP3    H259331   4.589   6.108   2.162  2.2495  2.6635 -3.1991
12614TIP3   OH259332   0.907   3.020  13.060  0.0709 -0.1145  0.0569
12614TIP3    H159333   0.847   3.005  12.987  1.0733 -2.0185 -0.4577
12614TIP3    H259334   0.962   3.092  13.032 -0.8651  0.5219 -0.1843
12615TIP3   OH259335   2.167   5.492   4.854  0.2215 -0.1664 -0.0163
12615TIP3    H159336   2.172   5.456   4.942  0.3222  0.3678  0.1991
12615TIP3    H259337   2.258   5.505   4.828  0.3526 -3.0255 -1.3470
12616TIP3   OH259338   6.730   3.265  14.847 -0.6605  0.2040  0.7912
12616TIP3    H159339   6.780   3.207  14.789 -0.6538  0.7089  0.2785
12616TIP3    H259340   6.716   3.344  14.795  0.2742  1.0935  1.8451
12617TIP3   OH259341   1.285   0.540   3.780  0.1674 -0.2607 -0.0935
12617TIP3    H159342   1.337   0.464   3.754 -0.2094 -0.9853  1.1608
12617TIP3    H259343   1.247   0.515   3.865 -0.7876  0.9362 -0.1398
12618TIP3   OH259344   5.452   2.608  12.289 -0.1606 -0.3389 -0.0710
12618TIP3    H159345   5.372   2.618  12.237  0.0939  2.4699 -0.1124
12618TIP3    H259346   5.430   2.648  12.374  0.3354 -2.2199  1.0094
12619TIP3   OH259347   4.095   0.898   5.589 -0.5149 -0.1137  0.7005
12619TIP3    H159348   4.102   0.992   5.573  1.0397  0.0005  1.8393
12619TIP3    H259349   4.064   0.892   5.680 -0.7691 -0.7115  0.5760
12620TIP3   OH259350   1.161   3.709   0.842  0.4553  0.4492  0.2630
12620TIP3    H159351   1.162   3.670   0.929  2.0841  0.1663  0.1396
12620TIP3    H259352   1.247   3.689   0.805 -0.3666  0.0888 -1.6195
12621TIP3   OH259353   5.719   6.797   2.720  0.2590  0.6909 -0.4168
12621TIP3    H159354   5.710   6.867   2.785  2.1650  1.4475 -0.8795
12621TIP3    H259355   5.772   6.836   2.650  0.3490 -0.8478 -1.2503
12622TIP3   OH259356   0.750   5.996  14.901  1.1825  0.7657 -0.2344
12622TIP3    H159357   0.775   6.066  14.962 -1.1431 -0.3765  2.2389
12622TIP3    H259358   0.813   5.926  14.919  1.3387  0.9268 -0.1469
12623TIP3   OH259359   4.691   4.000  12.302 -0.9562 -0.3427  0.2987
12623TIP3    H159360   4.697   4.060  12.377 -3.0420  0.8573 -0.3935
12623TIP3    H259361   4.781   3.993  12.269 -0.4127  1.2062  1.3493
12624TIP3   OH259362   0.239   5.912  10.848  0.0600 -0.3657  1.0325
12624TIP3    H159363   0.190   5.848  10.796  0.2306  0.9816 -0.9095
12624TIP3    H259364   0.173   5.977  10.873  0.1256 -0.6148  1.8593
12625TIP3   OH259365   2.113   0.928  10.749  0.3002  0.7167 -0.0274
12625TIP3    H159366   2.068   0.864  10.695  0.6374 -0.2458  0.8016
12625TIP3    H259367   2.079   0.913  10.838  0.7969  1.2969  0.2712
12626TIP3   OH259368   6.611   5.331  10.971 -0.4273  0.0439  0.1454
12626TIP3    H159369   6.653   5.245  10.962  1.5187  1.1223 -2.3183
12626TIP3    H259370   6.641   5.363  11.056  0.1673 -1.0444  0.3718
12627TIP3   OH259371   5.689   0.267  16.416 -0.2998  0.1766 -0.3304
12627TIP3    H159372   5.678   0.362  16.427 -0.9558  0.1286 -0.4987
12627TIP3    H259373   5.646   0.248  16.333  0.1295 -0.2223 -0.4608
12628TIP3   OH259374   6.405   2.746   0.600  0.6493 -0.8441  0.0687
12628TIP3    H159375   6.441   2.666   0.639 -0.5304 -0.4335  2.1613
12628TIP3    H259376   6.323   2.760   0.647  1.5396  2.4038  0.8812
12629TIP3   OH259377   6.306   0.173  12.850 -0.5965  0.0397  0.1290
12629TIP3    H159378   6.277   0.187  12.759 -0.9462  0.4376  0.2968
12629TIP3    H259379   6.348   0.256  12.874 -2.0429  0.6044  0.8995
12630TIP3   OH259380   5.192   5.166   0.855 -0.4653  0.0008  0.2669
12630TIP3    H159381   5.237   5.148   0.772 -0.1029 -0.4069  0.5490
12630TIP3    H259382   5.159   5.081   0.883 -1.3857  0.2812  0.0935
12631TIP3   OH259383   0.003   3.356  12.620 -0.6005  0.5310  0.0812
12631TIP3    H159384   0.025   3.262  12.621  0.5931  0.7144  3.0063
12631TIP3    H259385  -0.029   3.372  12.532  0.7350 -2.2671 -1.0533
12632TIP3   OH259386   4.521   2.331   0.949 -0.0504 -0.1108 -0.2309
12632TIP3    H159387   4.484   2.304   0.865  0.2987 -1.3269 -0.0183
12632TIP3    H259388   4.616   2.327   0.936  0.0061 -0.3706  0.2236
12633TIP3   OH259389   4.981   1.122  16.263  0.2390 -0.0448  0.0595
12633TIP3    H159390   4.966   1.215  16.276  1.4723  0.0308  1.2067
12633TIP3    H259391   5.069   1.117  16.225 -0.9651 -0.6192 -2.9248
12634TIP3   OH259392   5.304   5.780   4.945  0.1670 -0.4247 -0.0639
12634TIP3    H159393   5.248   5.834   5.000  0.1409  0.0162 -0.5171
12634TIP3    H259394   5.271   5.690   4.957  0.0435 -0.3080  0.4850
12635TIP3   OH259395   5.897   5.295  15.114 -0.2128 -0.6963 -0.6994
12635TIP3    H159396   5.884   5.384  15.081 -0.8094 -1.1071 -1.6338
12635TIP3    H259397   5.919   5.306  15.206 -1.3789  0.3619 -0.5266
12636TIP3   OH259398   0.574   2.566  15.695 -0.4617  0.0412 -0.0611
12636TIP3    H159399   0.562   2.477  15.662 -2.4537  0.0580  0.4854
12636TIP3    H259400   0.565   2.621  15.617 -1.5253 -0.1332 -0.0853
12637TIP3   OH259401   2.734   6.487   0.876  0.4137 -0.2477 -0.5130
12637TIP3    H159402   2.830   6.495   0.872  0.3158  1.2998 -0.5800
12637TIP3    H259403   2.708   6.555   0.938 -0.8121  1.0129 -2.3237
12638TIP3   OH259404   0.251   4.386  12.952 -0.2341  0.2640  0.5594
12638TIP3    H159405   0.219   4.320  12.890  1.1402  0.6529 -0.6070
12638TIP3    H259406   0.254   4.340  13.036  0.0295 -0.9492 -0.0977
12639TIP3   OH259407   2.540   0.682   0.230  0.5233 -0.5431  0.5714
12639TIP3    H159408   2.525   0.714   0.141  3.4304 -1.4059 -0.3594
12639TIP3    H259409   2.514   0.590   0.227  0.3696 -0.5041  0.6962
12640TIP3   OH259410   1.837   5.881  13.464  0.1022  0.2027  0.0398
12640TIP3    H159411   1.747   5.849  13.468  0.4735 -1.3091 -2.0986
12640TIP3    H259412   1.889   5.814  13.509  0.1788  1.2012  1.5081
12641TIP3   OH259413   1.297   6.537   2.000  0.2319  0.0831 -0.3170
12641TIP3    H159414   1.308   6.630   2.018 -1.3078  0.5851 -1.6973
12641TIP3    H259415   1.205   6.528   1.975  0.2952 -1.8500 -0.0335
12642TIP3   OH259416   3.431   1.689  10.637 -0.1721 -0.0138 -0.2880
12642TIP3    H159417   3.376   1.680  10.715 -0.2003  1.4111 -0.1288
12642TIP3    H259418   3.430   1.782  10.616  1.0603 -0.1511 -1.1096
12643TIP3   OH259419   1.706   0.076   5.533 -0.6089  0.2494  0.3092
12643TIP3    H159420   1.670   0.125   5.459  1.5983 -0.3175 -1.2492
12643TIP3    H259421   1.672  -0.013   5.521 -0.5617  0.2463  0.1977
12644TIP3   OH259422   1.188   5.807   1.655 -0.6515  0.1658 -0.1687
12644TIP3    H159423   1.115   5.813   1.593 -0.3739 -1.5276 -0.7123
12644TIP3    H259424   1.248   5.744   1.615 -0.0710 -0.3469  1.4373
12645TIP3   OH259425   0.058   2.007  16.928  0.5750 -0.2105 -0.0407
12645TIP3    H159426   0.005   2.068  16.980 -0.2387  0.8494 -1.9770
12645TIP3    H259427   0.140   1.998  16.977  0.3523  1.7414  0.7795
12646TIP3   OH259428   0.175   1.472   2.505  0.3035 -0.1264 -0.0826
12646TIP3    H159429   0.208   1.560   2.523 -0.9164  0.2172  0.6210
12646TIP3    H259430   0.123   1.481   2.425  1.8636 -0.6739 -1.2138
12647TIP3   OH259431   1.840   6.475   5.501 -0.3085  0.2296  0.2845
12647TIP3    H159432   1.751   6.441   5.494 -0.3703  0.5521 -0.7003
12647TIP3    H259433   1.863   6.463   5.593 -1.1034 -0.5132  0.4067
12648TIP3   OH259434   6.253   5.125   2.024 -0.0221 -0.5030  0.0392
12648TIP3    H159435   6.346   5.103   2.012 -0.2927 -1.0865 -1.0303
12648TIP3    H259436   6.240   5.204   1.972 -0.3750 -1.0431 -0.7030
12649TIP3   OH259437   4.919   2.894   2.511 -0.1951  0.8202 -0.7950
12649TIP3    H159438   4.972   2.851   2.578 -1.5506  1.0876  0.5104
12649TIP3    H259439   4.871   2.823   2.469 -0.4576  0.7944 -0.4528
12650TIP3   OH259440   3.910   1.636  16.384 -0.3963  0.3385 -0.0193
12650TIP3    H159441   3.864   1.608  16.305  0.7259  1.2613 -1.0240
12650TIP3    H259442   3.935   1.726  16.367  0.4455  0.3469  1.1340
12651TIP3   OH259443   4.138   5.419  12.566 -0.4199  0.5624 -0.4203
12651TIP3    H159444   4.181   5.484  12.510 -0.2919  0.3165 -0.6087
12651TIP3    H259445   4.047   5.419  12.537 -0.4796  0.8497 -0.2393
12652TIP3   OH259446   4.274   4.068   3.377  0.1681  0.0609  0.2454
12652TIP3    H159447   4.369   4.076   3.371  0.2469 -1.6827 -2.3360
12652TIP3    H259448   4.260   3.987   3.425  0.0840 -0.7625 -1.1142
12653TIP3   OH259449   0.579   6.475  15.551  0.4261 -0.9074 -0.0394
12653TIP3    H159450   0.548   6.510  15.634 -0.9468 -1.2299 -0.3950
12653TIP3    H259451   0.572   6.548  15.490  1.6189 -0.6134  0.1434
12654TIP3   OH259452   5.771   4.830  16.665 -0.4487 -0.3645  0.3066
12654TIP3    H159453   5.728   4.864  16.744 -0.4851  0.8304 -0.2023
12654TIP3    H259454   5.733   4.743  16.653  0.2245 -0.9699  2.1074
12655TIP3   OH259455   1.229   4.380  14.670 -0.2242  0.3157  0.8526
12655TIP3    H159456   1.137   4.406  14.666  0.1154  1.9297  2.2217
12655TIP3    H259457   1.261   4.420  14.751  1.8339  0.2828  0.0978
12656TIP3   OH259458   0.443   4.055   5.709  0.4895  0.2214 -0.2248
12656TIP3    H159459   0.412   4.122   5.647  1.4555  0.5580 -0.3523
12656TIP3    H259460   0.398   3.975   5.681  0.2007  0.5654 -0.7830
12657TIP3   OH259461   5.422   0.949   0.531  0.4357 -0.1404  0.8094
12657TIP3    H159462   5.397   0.879   0.592 -0.5654 -0.6142 -0.1186
12657TIP3    H259463   5.412   1.030   0.581 -1.1370 -0.4645  1.0539
12658TIP3   OH259464   1.929   0.168  15.422  0.0260  0.4571  0.0829
12658TIP3    H159465   1.879   0.089  15.445  2.1961 -1.3338 -0.9898
12658TIP3    H259466   1.907   0.185  15.331  0.7289  0.1349 -0.1543
12659TIP3   OH259467   2.515   5.702  12.037  0.1582  0.0353  0.2884
12659TIP3    H159468   2.489   5.791  12.011  0.3490  0.1125  0.3583
12659TIP3    H259469   2.433   5.659  12.061 -0.2191 -0.4990 -1.7837
12660TIP3   OH259470   2.120   3.673   1.500  0.5141  0.1782  0.4443
12660TIP3    H159471   2.181   3.611   1.460 -0.4492 -0.4434 -0.0897
12660TIP3    H259472   2.039   3.624   1.510  0.4039  0.6533  2.1692
12661TIP3   OH259473   4.501   1.424   3.665 -0.4975 -0.0297  0.6650
12661TIP3    H159474   4.495   1.519   3.673 -0.0754  0.1672 -1.0096
12661TIP3    H259475   4.595   1.406   3.673 -0.4126 -0.1364 -0.5147
12662TIP3   OH259476   5.856   0.807  11.654 -0.8037  0.2275  0.8281
12662TIP3    H159477   5.952   0.802  11.654 -0.8698 -1.7273  0.3053
12662TIP3    H259478   5.832   0.794  11.746 -0.6196 -2.2749  0.5866
12663TIP3   OH259479   4.018   5.896   1.408 -0.3287  0.0668 -0.4016
12663TIP3    H159480   4.090   5.958   1.401 -0.6472  0.2659 -4.7860
12663TIP3    H259481   4.058   5.814   1.436  1.5129  0.3967 -1.9075
12664TIP3   OH259482   2.489   2.173  16.876  0.3570  0.2826 -0.0023
12664TIP3    H159483   2.449   2.192  16.791  0.8889 -0.2144 -0.3790
12664TIP3    H259484   2.471   2.250  16.930  2.0253  1.6478 -1.2912
12665TIP3   OH259485   0.570   1.167   0.726 -0.6682 -0.2326 -0.8696
12665TIP3    H159486   0.630   1.128   0.662  1.1241  1.1025 -0.1127
12665TIP3    H259487   0.558   1.257   0.695 -0.1582  0.2897  0.3607
12666TIP3   OH259488   2.090   0.716   3.324  0.0045  0.6150  0.1138
12666TIP3    H159489   2.126   0.675   3.246  0.4901  1.4800 -0.1262
12666TIP3    H259490   2.135   0.800   3.330 -0.2008  0.6579  1.1942
12667TIP3   OH259491   2.159   6.677  15.570 -0.0522  0.4845 -0.4147
12667TIP3    H159492   2.067   6.650  15.569  0.0179  0.2227 -0.0387
12667TIP3    H259493   2.156   6.773  15.568 -0.3377  0.4817 -0.2126
12668TIP3   OH259494   3.947   1.398  12.398 -0.2733 -0.1564 -0.5123
12668TIP3    H159495   3.933   1.304  12.408 -2.2726 -0.1760 -2.6044
12668TIP3    H259496   3.875   1.438  12.447 -0.9369  0.1521 -1.6939
12669TIP3   OH259497   5.265   1.151   4.945  0.3174 -0.2585 -0.2466
12669TIP3    H159498   5.233   1.241   4.956 -2.6088 -1.0562 -1.1454
12669TIP3    H259499   5.300   1.149   4.856 -0.3165 -0.1501 -0.5087
12670TIP3   OH259500   1.063   3.493  14.863 -0.2202 -0.1513  0.4177
12670TIP3    H159501   1.027   3.532  14.942 -0.5046 -0.9998  0.7179
12670TIP3    H259502   1.118   3.421  14.894 -0.0264 -0.2530 -0.1398
12671TIP3   OH259503   0.880   4.299   1.217 -0.6475  0.1061 -0.2503
12671TIP3    H159504   0.835   4.235   1.272  0.1128  0.1693  0.4559
12671TIP3    H259505   0.821   4.375   1.216 -1.1578 -0.2856 -0.4012
12672TIP3   OH259506   1.612   0.130  12.963 -1.0030  0.7727 -0.3357
12672TIP3    H159507   1.638   0.195  12.897  0.2885  0.9312  0.3133
12672TIP3    H259508   1.517   0.121  12.950 -0.6314 -0.2561 -3.1748
12673TIP3   OH259509   5.943   3.504  11.722  0.5430  0.2307  0.2371
12673TIP3    H159510   6.008   3.467  11.782 -0.0098 -0.0532  0.6799
12673TIP3    H259511   5.943   3.598  11.741  4.2452  1.1516 -3.0828
12674TIP3   OH259512   1.658   6.023   3.483 -0.2665  0.3900 -0.7982
12674TIP3    H159513   1.714   6.019   3.406 -0.7566  0.5045 -1.1662
12674TIP3    H259514   1.569   6.020   3.448 -0.5170  1.6394 -0.3081
12675TIP3   OH259515   5.655   6.232  12.407  0.6136  0.5426  1.0836
12675TIP3    H159516   5.725   6.247  12.343  0.7367 -2.0977  0.4552
12675TIP3    H259517   5.574   6.251  12.358  0.7988  1.6783  1.1940
12676TIP3   OH259518   4.785   2.771   5.256  0.3545  0.0820 -0.5105
12676TIP3    H159519   4.713   2.834   5.261 -0.3975 -0.8334  0.9892
12676TIP3    H259520   4.754   2.705   5.195 -0.0605 -0.2606  0.0587
12677TIP3   OH259521   2.583   6.703  16.186  0.5764  0.0818 -0.8163
12677TIP3    H159522   2.563   6.700  16.092 -1.6672 -1.3047 -0.3614
12677TIP3    H259523   2.656   6.642  16.197  0.1465 -0.5838 -1.5327
12678TIP3   OH259524   4.405   4.660   4.165  0.0879  0.2769 -0.7008
12678TIP3    H159525   4.357   4.742   4.160 -0.0366  0.5132  2.4173
12678TIP3    H259526   4.354   4.605   4.224  2.1908 -0.5086  0.4970
12679TIP3   OH259527   4.104   6.228   6.453 -0.3784  0.1063 -0.4091
12679TIP3    H159528   4.058   6.260   6.531 -3.2880  1.0265 -2.2927
12679TIP3    H259529   4.156   6.303   6.424 -0.2363  0.1607 -0.0221
12680TIP3   OH259530   0.175   0.372   4.235  0.3697  0.0870 -0.2756
12680TIP3    H159531   0.176   0.324   4.318  1.7312  1.2481  0.4220
12680TIP3    H259532   0.198   0.307   4.169  0.4201 -0.5984  0.4038
12681TIP3   OH259533   4.791   3.037  14.405 -0.4737 -0.1949 -0.2383
12681TIP3    H159534   4.705   3.019  14.368 -0.4095  1.3661 -1.2258
12681TIP3    H259535   4.775   3.048  14.499 -0.7933 -3.1786  0.1569
12682TIP3   OH259536   4.186   3.410   3.922  0.2638 -0.0421 -0.3217
12682TIP3    H159537   4.208   3.469   3.994 -0.5332  0.4787 -0.4898
12682TIP3    H259538   4.176   3.324   3.964 -0.9803  0.3971  0.3375
12683TIP3   OH259539   2.305   3.813   1.653 -0.1590  0.0365  0.3175
12683TIP3    H159540   2.348   3.865   1.585 -0.0916  1.0309  1.0960
12683TIP3    H259541   2.240   3.761   1.606  1.2281 -0.8052 -0.7629
12684TIP3   OH259542   2.379   5.965   1.603 -0.0198 -0.3592 -0.1792
12684TIP3    H159543   2.343   5.877   1.594 -0.9795 -0.0282  0.3152
12684TIP3    H259544   2.431   5.978   1.523 -0.4166 -1.1187 -0.5697
12685TIP3   OH259545   6.495   0.958  13.803  0.2636  0.1285  0.2788
12685TIP3    H159546   6.443   0.982  13.727 -1.3955 -0.6286  1.1115
12685TIP3    H259547   6.572   0.913  13.767  0.9153  2.1894 -1.0339
12686TIP3   OH259548   5.591   5.239   0.642 -0.4118  0.7217 -0.2664
12686TIP3    H159549   5.639   5.300   0.585 -0.9737  1.4778  0.0570
12686TIP3    H259550   5.632   5.154   0.625  0.3271  1.1673 -0.7936
12687TIP3   OH259551   3.787   5.912   3.739 -0.4612  0.4768  0.2009
12687TIP3    H159552   3.753   5.852   3.673 -0.1459 -1.2185  1.4979
12687TIP3    H259553   3.713   5.970   3.759 -1.6530 -1.1239  0.7106
12688TIP3   OH259554   5.369   2.706   0.271 -0.3450 -0.3303 -0.4290
12688TIP3    H159555   5.290   2.655   0.251  0.3588 -1.7447  0.2817
12688TIP3    H259556   5.371   2.711   0.366 -0.1241  0.6041 -0.4780
12689TIP3   OH259557   4.817   6.062   0.058  0.1285 -0.5543  0.8470
12689TIP3    H159558   4.846   6.015   0.136 -0.4730 -0.0694  1.3622
12689TIP3    H259559   4.731   6.025   0.038  0.2095 -0.5640  0.5095
12690TIP3   OH259560   3.180   3.880   2.473 -0.6403  0.2055 -0.1752
12690TIP3    H159561   3.265   3.921   2.456  0.8001 -2.2363  0.6020
12690TIP3    H259562   3.131   3.890   2.391  0.1674  2.1166 -0.4683
12691TIP3   OH259563   1.325   2.137   3.046  0.8185  0.3117  0.0533
12691TIP3    H159564   1.348   2.213   2.992 -0.6187 -0.7423 -2.1896
12691TIP3    H259565   1.232   2.149   3.066  0.5241 -0.8764 -0.4735
12692TIP3   OH259566   1.102   4.577   0.862 -0.1261  0.3864  0.0546
12692TIP3    H159567   1.067   4.494   0.895  0.9449  0.0748  0.4336
12692TIP3    H259568   1.163   4.606   0.929  1.3813  0.2298 -1.1964
12693TIP3   OH259569   3.532   5.089   3.156 -0.1835 -0.9716 -0.3484
12693TIP3    H159570   3.520   5.113   3.248 -1.1765 -0.7184 -0.5386
12693TIP3    H259571   3.567   5.168   3.115 -2.3727 -0.1470 -0.7401
12694TIP3   OH259572   4.016   3.908   2.284 -0.2625 -0.4535 -0.0382
12694TIP3    H159573   4.085   3.844   2.269  1.1881  0.1785  3.1698
12694TIP3    H259574   4.062   3.989   2.307 -2.0023  0.0051  2.1725
12695TIP3   OH259575   3.786   6.753  13.500  0.1986 -0.4222 -0.1723
12695TIP3    H159576   3.736   6.792  13.429  0.9137 -5.5165 -3.9741
12695TIP3    H259577   3.729   6.686  13.536  1.7098 -1.4313  0.4574
12696TIP3   OH259578   6.630   5.074   3.173 -0.0293  0.4727  0.2672
12696TIP3    H159579   6.548   5.118   3.151 -0.9159 -0.5339  1.3867
12696TIP3    H259580   6.627   5.063   3.268  1.5819  0.7264  0.3710
12697TIP3   OH259581   3.052   1.187   3.801 -0.2650  0.8441 -0.0853
12697TIP3    H159582   3.107   1.263   3.819 -0.8189  1.6207 -1.5383
12697TIP3    H259583   3.017   1.202   3.714 -2.3010  0.0940  0.5328
12698TIP3   OH259584   4.586   2.972  16.027  0.4313 -0.3242  0.1969
12698TIP3    H159585   4.542   2.952  16.110  0.9457  0.4519  0.6717
12698TIP3    H259586   4.678   2.949  16.044  0.5996  0.1711 -0.0445
12699TIP3   OH259587   5.571   5.483   2.007  0.1003  0.2366 -0.2969
12699TIP3    H159588   5.491   5.468   2.058  0.6347  0.6962  0.7254
12699TIP3    H259589   5.542   5.534   1.931 -0.8588 -1.2071 -0.9465
12700TIP3   OH259590   0.560   5.200   4.746 -0.2046  0.2934  0.0331
12700TIP3    H159591   0.577   5.293   4.730 -0.0599  0.1871 -0.4393
12700TIP3    H259592   0.468   5.197   4.773  0.1488  0.7313  1.4083
12701TIP3   OH259593   4.157   3.502  12.705 -0.4999  0.0190  0.4233
12701TIP3    H159594   4.192   3.557  12.776  0.5709  1.2925 -1.0060
12701TIP3    H259595   4.234   3.464  12.664 -1.1383 -1.1505  0.2694
12702TIP3   OH259596   6.730   0.006   0.239  0.4786  0.2809  0.3295
12702TIP3    H159597   6.759  -0.050   0.168  1.9874  1.3585  0.0598
12702TIP3    H259598   6.810   0.042   0.277 -0.4039  1.6894  0.9547
12703TIP3   OH259599   5.398   3.107   3.819  0.0777 -0.0252  0.6146
12703TIP3    H159600   5.492   3.122   3.811  0.0518 -0.5829 -0.8264
12703TIP3    H259601   5.360   3.150   3.743 -0.5858 -2.0203 -0.2355
12704TIP3   OH259602   4.833   6.808   2.187 -0.5185  0.9614 -0.3910
12704TIP3    H159603   4.788   6.772   2.110 -2.4700  1.4334  0.4548
12704TIP3    H259604   4.872   6.890   2.155 -1.0374  0.9996 -0.9647
12705TIP3   OH259605   4.846   1.951  13.342  0.3207  0.1374 -0.2494
12705TIP3    H159606   4.838   2.001  13.261  0.6812 -1.5422 -1.3633
12705TIP3    H259607   4.937   1.921  13.343 -0.1290 -1.2936 -0.1152
12706TIP3   OH259608   2.984   1.005   1.803 -0.3010 -0.1043  0.0544
12706TIP3    H159609   2.941   0.978   1.722  0.1382  0.1722 -0.2730
12706TIP3    H259610   2.928   1.074   1.838  0.1784  0.6713 -0.6776
12707TIP3   OH259611   1.293   3.065  13.799  0.0697 -0.0995 -0.2761
12707TIP3    H159612   1.386   3.048  13.818  0.1704  1.1649  0.4615
12707TIP3    H259613   1.274   3.147  13.844 -1.3549 -0.2119 -0.6322
12708TIP3   OH259614   2.124   3.240   2.959  0.0733 -0.2700 -0.0983
12708TIP3    H159615   2.129   3.234   3.054 -2.0821 -1.8389  0.0026
12708TIP3    H259616   2.048   3.297   2.942  0.1889 -0.3271 -0.8628
12709TIP3   OH259617   2.224   1.217   5.439 -0.2716 -0.0757  0.3135
12709TIP3    H159618   2.194   1.268   5.364 -0.9098 -1.8264 -0.6667
12709TIP3    H259619   2.261   1.138   5.401  0.6690 -0.3872  1.7953
12710TIP3   OH259620   6.136   1.290   6.030 -0.0498 -0.1826 -0.2496
12710TIP3    H159621   6.194   1.282   5.954 -1.2651 -1.0015 -1.1284
12710TIP3    H259622   6.065   1.228   6.013 -0.6771  0.0653  1.2689
12711TIP3   OH259623   0.383   4.689   0.625  0.6740 -0.3390 -0.2765
12711TIP3    H159624   0.428   4.622   0.573  0.8354  0.4594 -1.1991
12711TIP3    H259625   0.304   4.709   0.575 -0.8669 -1.8185  1.3868
12712TIP3   OH259626   5.557   0.334   2.919  0.1077 -0.6154  0.2092
12712TIP3    H159627   5.640   0.286   2.926  0.6005  0.0538 -0.7295
12712TIP3    H259628   5.491   0.266   2.903  0.5211 -1.1242  0.6310
12713TIP3   OH259629   4.759   1.436  14.326 -0.6070 -0.1257 -0.0271
12713TIP3    H159630   4.709   1.410  14.403 -0.8579 -0.0421 -0.1586
12713TIP3    H259631   4.845   1.395  14.338 -0.7195 -0.3059  0.1812
12714TIP3   OH259632   0.311   5.073  13.108 -0.1326 -0.0240  0.2227
12714TIP3    H159633   0.285   4.983  13.092 -3.4734  0.5694  1.5067
12714TIP3    H259634   0.314   5.113  13.021 -1.6051 -0.6858 -0.1546
12715TIP3   OH259635   1.181   2.539   4.970  0.2404  0.1005 -0.0215
12715TIP3    H159636   1.223   2.456   4.946 -0.6427 -0.0052 -1.2900
12715TIP3    H259637   1.200   2.597   4.896 -0.0599  0.6989  0.3726
12716TIP3   OH259638   6.795   5.167   0.773  0.0993 -0.2891 -0.3342
12716TIP3    H159639   6.844   5.220   0.710 -2.3351  0.2336 -1.9391
12716TIP3    H259640   6.840   5.083   0.773  1.6721  0.5061 -0.7985
12717TIP3   OH259641   0.326   3.266  14.108  0.0911 -0.0650 -0.1998
12717TIP3    H159642   0.418   3.266  14.134 -0.1514  0.5757  0.7064
12717TIP3    H259643   0.307   3.357  14.085 -0.2599 -0.2345 -0.5932
12718TIP3   OH259644   3.589   5.644  17.178 -0.1224 -0.6829  0.1397
12718TIP3    H159645   3.604   5.637  17.272  0.1476 -1.6877  0.0360
12718TIP3    H259646   3.568   5.555  17.150 -1.4705 -0.1700 -0.5551
12719TIP3   OH259647   5.441   3.185  15.465 -0.6190  0.2299  0.1776
12719TIP3    H159648   5.466   3.189  15.373  1.4546  1.4789  0.7498
12719TIP3    H259649   5.522   3.167  15.512 -1.6558 -0.5436  1.7845
12720TIP3   OH259650   2.757   6.520   4.780  0.4741 -0.7622  0.4114
12720TIP3    H159651   2.804   6.599   4.803  0.2575 -0.7686  0.8826
12720TIP3    H259652   2.808   6.482   4.708 -0.5332  0.8614 -1.2379
12721TIP3   OH259653   5.395   5.012  16.421  0.5214 -0.8366 -0.7753
12721TIP3    H159654   5.343   4.970  16.352  0.4320 -0.3314 -1.0207
12721TIP3    H259655   5.350   5.095  16.438 -0.0468 -1.4240  0.6493
12722TIP3   OH259656   5.114   6.079  16.582 -0.3563  0.0361  0.5546
12722TIP3    H159657   5.029   6.065  16.541 -0.0977  1.2104 -0.4565
12722TIP3    H259658   5.101   6.057  16.674 -1.6918 -0.0199  0.3678
12723TIP3   OH259659   1.177   5.284   3.452 -0.4897 -0.0470  0.2192
12723TIP3    H159660   1.236   5.294   3.377 -0.7937 -1.9676 -0.3493
12723TIP3    H259661   1.190   5.363   3.504  2.5877 -0.3556  0.1123
12724TIP3   OH259662   5.257   3.269  11.895 -0.0032 -0.3194  0.1326
12724TIP3    H159663   5.288   3.346  11.846 -0.7495  2.1078  3.1652
12724TIP3    H259664   5.177   3.299  11.937 -0.1330 -2.6947  1.7180
12725TIP3   OH259665   0.549   1.655  12.163 -0.4500  0.2107  0.6618
12725TIP3    H159666   0.568   1.588  12.096 -1.6534  1.8207 -1.4129
12725TIP3    H259667   0.516   1.605  12.237 -0.4998 -1.5806 -0.4940
12726TIP3   OH259668   0.268   4.071   5.991  0.2188 -0.1472 -0.3408
12726TIP3    H159669   0.341   4.055   6.050 -1.8441  0.8679  2.7304
12726TIP3    H259670   0.210   3.996   6.004  0.0977 -0.3388 -1.8189
12727TIP3   OH259671   1.021   6.212  10.938  0.2280  0.4438  0.1202
12727TIP3    H159672   0.981   6.277  10.880 -0.4537 -0.6669 -0.6980
12727TIP3    H259673   0.954   6.194  11.003 -0.3619 -0.8649 -0.8108
12728TIP3   OH259674   1.334   0.056  14.309 -0.1021 -0.0036 -0.2998
12728TIP3    H159675   1.367   0.140  14.342 -1.0198 -0.0764  0.8577
12728TIP3    H259676   1.250   0.045  14.352 -0.8432 -0.6638 -1.8495
12729TIP3   OH259677   2.779   4.481   1.657  0.3232 -0.1085  0.0411
12729TIP3    H159678   2.839   4.512   1.725  0.6413  0.2772 -0.4143
12729TIP3    H259679   2.826   4.494   1.575 -0.8795  1.4724 -0.4544
12730TIP3   OH259680   1.091   1.427   4.356 -0.1497 -0.2151  0.8421
12730TIP3    H159681   1.044   1.381   4.426 -2.4364  0.5610 -0.0605
12730TIP3    H259682   1.090   1.519   4.384  0.8377 -0.1747  0.7732
12731TIP3   OH259683   3.851   0.801  16.556 -1.0211  0.5590  0.4795
12731TIP3    H159684   3.873   0.844  16.473  2.4075  1.5267  1.7409
12731TIP3    H259685   3.890   0.714  16.549  1.6426  1.5340  1.9291
12732TIP3   OH259686   2.449   3.553  12.750 -0.3257  0.1016  0.2272
12732TIP3    H159687   2.472   3.520  12.837 -1.0252 -0.0296  0.3732
12732TIP3    H259688   2.533   3.572  12.708  0.0420 -0.4928  0.6750
12733TIP3   OH259689   2.471   4.294   4.381  0.1119  0.2542 -0.6677
12733TIP3    H159690   2.433   4.292   4.469  2.9928  1.8841  0.7656
12733TIP3    H259691   2.526   4.215   4.378 -0.9099 -0.4493 -1.5275
12734TIP3   OH259692   1.645   5.478   2.077 -0.8055  1.0498 -0.8175
12734TIP3    H159693   1.607   5.522   2.153  1.2672 -0.6624  1.3509
12734TIP3    H259694   1.739   5.497   2.082 -0.1858 -1.4861 -1.1828
12735TIP3   OH259695   4.291   3.174   1.486  0.4692  0.1590 -0.3701
12735TIP3    H159696   4.256   3.108   1.425  2.1453 -0.8983 -0.2640
12735TIP3    H259697   4.275   3.137   1.573  1.5015 -0.2142 -0.3134
12736TIP3   OH259698   0.289   6.329  11.976 -0.0521 -0.1624 -0.6746
12736TIP3    H159699   0.299   6.234  11.990  0.0800 -0.3550 -1.9381
12736TIP3    H259700   0.196   6.341  11.959 -0.2485  0.0995  0.4941
12737TIP3   OH259701   0.157   3.615  15.408 -0.7417 -0.1546  0.0125
12737TIP3    H159702   0.201   3.609  15.323 -1.0260  0.2127 -0.1645
12737TIP3    H259703   0.209   3.679  15.458 -2.2766  1.9950 -0.9764
12738TIP3   OH259704   3.850   0.847   5.817  0.0151  0.0549 -0.0086
12738TIP3    H159705   3.933   0.845   5.866 -0.6271 -0.5753  1.0791
12738TIP3    H259706   3.833   0.941   5.804  0.3986  0.2244  0.6267
12739TIP3   OH259707   4.985   2.642  12.671  0.1425 -0.6462 -0.5001
12739TIP3    H159708   5.018   2.644  12.761  0.6150 -0.9035 -0.6612
12739TIP3    H259709   4.893   2.666  12.678 -0.2876 -2.3803  0.2488
12740TIP3   OH259710   4.659   6.111   1.300  0.4444  0.2918  0.2865
12740TIP3    H159711   4.586   6.076   1.351 -0.1020  2.2639  0.9648
12740TIP3    H259712   4.640   6.205   1.293  2.3314  0.6582 -0.5396
12741TIP3   OH259713   5.741   3.534   5.484  0.4080 -0.0667  0.3823
12741TIP3    H159714   5.653   3.503   5.462 -0.8669  3.0176  0.6173
12741TIP3    H259715   5.758   3.501   5.572 -1.1212  0.3842  0.8742
12742TIP3   OH259716   3.276   5.639  16.957 -0.4672 -0.3331  0.1997
12742TIP3    H159717   3.332   5.689  16.898 -0.7527  1.4142  1.3292
12742TIP3    H259718   3.313   5.551  16.957 -0.4793 -0.4087 -2.5602
12743TIP3   OH259719   5.764   4.897   5.361 -0.5344  0.4803 -0.3089
12743TIP3    H159720   5.805   4.927   5.442  0.6379  1.0827 -1.0950
12743TIP3    H259721   5.683   4.947   5.355 -0.3188  0.8987  0.1798
12744TIP3   OH259722   2.436   3.999  17.065  0.4305  0.2439  0.4683
12744TIP3    H159723   2.395   3.915  17.086  1.2692  0.0842  1.5629
12744TIP3    H259724   2.380   4.064  17.107 -0.1474  0.2369 -0.2705
12745TIP3   OH259725   5.915   4.654  12.765  0.4005  0.3626 -0.1034
12745TIP3    H159726   5.981   4.600  12.721 -0.1978 -0.6964  0.2538
12745TIP3    H259727   5.842   4.655  12.703  0.1477  0.1677  0.1886
12746TIP3   OH259728   3.237   3.626   4.247 -0.3382 -0.0268 -0.2058
12746TIP3    H159729   3.153   3.665   4.223 -0.6762 -0.3228  0.4401
12746TIP3    H259730   3.254   3.658   4.336 -1.1813 -2.1454  0.8086
12747TIP3   OH259731   0.201   0.055   2.051 -0.4156  0.1561  0.1876
12747TIP3    H159732   0.198   0.118   2.123 -0.3765  1.2209 -0.7116
12747TIP3    H259733   0.140  -0.014   2.077 -0.7065  0.7233  1.0546
12748TIP3   OH259734   5.449   3.280  13.208 -0.5042  0.1275 -0.4574
12748TIP3    H159735   5.544   3.264  13.205 -0.4897  0.2484 -3.1040
12748TIP3    H259736   5.425   3.265  13.299  2.1936  0.9425  0.4821
12749TIP3   OH259737   2.686   0.536   2.249  0.3626 -0.0189  0.0901
12749TIP3    H159738   2.721   0.461   2.296 -1.6569 -1.1197 -0.0480
12749TIP3    H259739   2.741   0.544   2.170  3.2680  1.3445  2.0594
12750TIP3   OH259740   0.494   5.731  15.355  0.2741  0.2535  0.5461
12750TIP3    H159741   0.539   5.803  15.312 -0.1418  0.2083  0.0155
12750TIP3    H259742   0.562   5.666  15.371  0.3840  0.1165 -0.3999
12751TIP3   OH259743   0.125   5.582  16.850 -0.7766 -0.5659 -0.0094
12751TIP3    H159744   0.201   5.524  16.858 -0.1035  0.0839 -1.2456
12751TIP3    H259745   0.056   5.526  16.814 -1.2854 -1.4419  2.1819
12752TIP3   OH259746   4.011   5.653   4.315  0.0089  0.7291 -0.1403
12752TIP3    H159747   4.045   5.683   4.399 -1.8209  0.6811  0.6859
12752TIP3    H259748   4.012   5.557   4.321  1.7329  0.6670 -1.0033
12753TIP3   OH259749   3.637   3.775  14.425  0.0228 -0.5186 -0.1359
12753TIP3    H159750   3.615   3.811  14.511 -1.4590 -0.2032 -0.6100
12753TIP3    H259751   3.701   3.836  14.389 -1.5385  1.0215 -0.4318
12754TIP3   OH259752   4.118   2.160   4.066  0.3453  0.1160  0.1594
12754TIP3    H159753   4.173   2.228   4.105  0.0131 -0.1837  1.1914
12754TIP3    H259754   4.053   2.208   4.015  2.4819  0.4574 -2.4889
12755TIP3   OH259755   2.911   0.025   0.025 -0.2905  0.5002 -0.5576
12755TIP3    H159756   2.858   0.025   0.105  0.8850 -0.0952  0.2626
12755TIP3    H259757   2.864  -0.033  -0.034 -2.0457  2.2306 -0.9484
12756TIP3   OH259758   4.665   1.497  16.178 -0.1071 -0.7276 -0.3578
12756TIP3    H159759   4.756   1.497  16.209 -0.4962 -0.0116  0.8401
12756TIP3    H259760   4.672   1.485  16.083  1.0695 -5.9369  0.0922
12757TIP3   OH259761   3.335   0.633   2.647 -0.5951 -0.1749  0.0870
12757TIP3    H159762   3.370   0.721   2.635 -0.0641 -0.4089 -0.1426
12757TIP3    H259763   3.321   0.601   2.558 -0.0117 -0.6183  0.1483
12758TIP3   OH259764   3.703   5.415  12.038  0.0040 -0.4704 -0.2046
12758TIP3    H159765   3.728   5.360  11.963  0.6022  0.4398 -0.6779
12758TIP3    H259766   3.684   5.352  12.108 -0.7701 -1.3504 -1.1685
12759TIP3   OH259767   1.289   0.249  11.376  0.1164  0.2950 -0.4510
12759TIP3    H159768   1.243   0.220  11.297 -0.6168 -0.2058  0.1484
12759TIP3    H259769   1.336   0.328  11.348  0.7333 -0.4686 -1.6512
12760TIP3   OH259770   4.230   1.030   4.520 -0.0263  0.1948  0.3841
12760TIP3    H159771   4.273   1.113   4.535  0.0514  0.0180  1.1482
12760TIP3    H259772   4.289   0.982   4.461 -0.3979  0.9310 -0.6263
12761TIP3   OH259773   1.916   6.728  11.079 -0.4325  0.1376  0.2471
12761TIP3    H159774   1.965   6.728  10.997  3.6199  2.3814  2.3525
12761TIP3    H259775   1.833   6.770  11.058  1.1787  2.2812 -2.4264
12762TIP3   OH259776   1.641   2.812  12.763  0.1787 -0.4005  0.6308
12762TIP3    H159777   1.564   2.866  12.781  0.8706 -0.2223  3.4738
12762TIP3    H259778   1.626   2.732  12.813  1.2458 -0.9426  0.1180
12763TIP3   OH259779   5.442   3.550   1.666 -0.2203 -0.6226  0.6959
12763TIP3    H159780   5.468   3.459   1.677  1.3352 -0.1149  1.4538
12763TIP3    H259781   5.346   3.548   1.665 -0.2065 -2.2420  0.7580
12764TIP3   OH259782   3.084   2.338  13.550  0.1591  0.2410 -0.1357
12764TIP3    H159783   3.088   2.315  13.457 -1.0522  0.4001 -0.2344
12764TIP3    H259784   2.991   2.349  13.569  0.3993  0.3623  1.0665
12765TIP3   OH259785   1.291   0.994   5.752  0.1477 -0.1637  0.1369
12765TIP3    H159786   1.237   1.068   5.724 -0.7264 -1.3230 -1.4245
12765TIP3    H259787   1.229   0.933   5.791  0.8356 -0.1819  1.2467
12766TIP3   OH259788   3.125   1.024  15.725 -0.0389  0.1872 -0.1040
12766TIP3    H159789   3.070   0.951  15.756 -0.3285  0.7470  0.7217
12766TIP3    H259790   3.185   0.983  15.662  0.6300 -1.0066  1.2602
12767TIP3   OH259791   3.848   3.902  11.244 -0.5168  0.0765 -0.0806
12767TIP3    H159792   3.853   3.923  11.150 -0.4869 -0.0021 -0.0966
12767TIP3    H259793   3.930   3.934  11.280 -0.5395  0.1303 -0.0766
12768TIP3   OH259794   3.223   5.052  11.962 -0.4289 -0.2454 -0.1567
12768TIP3    H159795   3.227   4.964  11.998 -0.6437 -0.3915 -0.4786
12768TIP3    H259796   3.313   5.084  11.967 -0.3043 -0.5719 -0.2555
12769TIP3   OH259797   2.698   4.971  15.582 -0.3594 -0.2379  0.1548
12769TIP3    H159798   2.644   4.992  15.505 -0.1759  0.5897  0.2529
12769TIP3    H259799   2.650   4.899  15.625 -1.1595  0.1829 -0.0065
12770TIP3   OH259800   2.341   2.613  16.196 -0.2010 -0.0454  0.0603
12770TIP3    H159801   2.350   2.612  16.291  0.6563  0.2474 -0.0051
12770TIP3    H259802   2.248   2.627  16.180 -0.1442  1.4278  0.8576
12771TIP3   OH259803   1.366   6.657   6.619 -0.0240  0.8105  0.3738
12771TIP3    H159804   1.377   6.704   6.702 -0.1865 -0.3232  1.0669
12771TIP3    H259805   1.431   6.587   6.623 -0.4981  0.3308 -0.1469
12772TIP3   OH259806   2.658   6.200   0.105  0.3371  0.0396  0.5778
12772TIP3    H159807   2.635   6.155   0.187 -1.2449 -0.9561 -0.3630
12772TIP3    H259808   2.615   6.285   0.112 -0.4247 -0.3231  0.5014
12773TIP3   OH259809   6.347   6.600  12.205  0.4290  0.1371 -0.0409
12773TIP3    H159810   6.373   6.522  12.157  0.5233  0.4492 -0.5062
12773TIP3    H259811   6.349   6.670  12.140 -1.0406  0.2841  0.0318
12774TIP3   OH259812   4.203   3.685  13.504 -0.0315  0.3888  0.2032
12774TIP3    H159813   4.283   3.633  13.492 -1.4211 -2.2973  1.5830
12774TIP3    H259814   4.195   3.693  13.599  0.3851  3.7874  0.0694
12775TIP3   OH259815   2.541   5.114  11.987 -0.1278 -0.2533  0.1440
12775TIP3    H159816   2.530   5.057  12.063  0.7188 -0.0621  0.4221
12775TIP3    H259817   2.497   5.195  12.012  1.1386  0.2274  0.9269
12776TIP3   OH259818   6.781   5.087  10.734 -0.1317 -0.5174  0.6804
12776TIP3    H159819   6.829   5.049  10.661 -0.9762 -1.6297  0.6877
12776TIP3    H259820   6.757   5.175  10.704  2.3099  0.2884  0.8827
12777TIP3   OH259821   6.044   4.507  16.653  0.3524  0.0571 -0.3413
12777TIP3    H159822   6.081   4.478  16.569  1.5597 -0.9148  0.4959
12777TIP3    H259823   6.035   4.602  16.644 -0.1488 -0.0988 -1.7895
12778TIP3   OH259824   3.833   2.283   3.005  0.4295  0.0241  0.4608
12778TIP3    H159825   3.894   2.250   2.938  1.2618 -0.7916  1.5915
12778TIP3    H259826   3.850   2.377   3.008 -0.8022  0.3909 -1.6194
12779TIP3   OH259827   4.315   1.489  15.842 -0.4393 -0.1837 -0.1290
12779TIP3    H159828   4.361   1.487  15.926  0.2753 -0.4064 -0.5105
12779TIP3    H259829   4.263   1.569  15.845  1.4163  1.1043 -0.3971
12780TIP3   OH259830   5.880   4.789   3.210  0.5223 -0.2930 -0.2897
12780TIP3    H159831   5.813   4.794   3.278  0.2658  1.1666 -0.6246
12780TIP3    H259832   5.833   4.766   3.130  0.3351  1.1500 -0.6118
12781TIP3   OH259833   5.769   5.102   6.008 -0.1185  0.3001  0.1017
12781TIP3    H159834   5.725   5.182   6.039 -1.6343  0.4342 -2.1640
12781TIP3    H259835   5.698   5.044   5.981  1.0237 -0.8184 -0.6188
12782TIP3   OH259836   4.775   1.147  15.079  0.3091 -0.3605  0.0520
12782TIP3    H159837   4.791   1.228  15.031  1.2521 -0.6595 -0.1497
12782TIP3    H259838   4.733   1.089  15.015 -1.8716  0.4846  0.6333
12783TIP3   OH259839   4.486   3.594  13.595 -0.3274  0.2923 -0.1792
12783TIP3    H159840   4.525   3.517  13.554 -1.1246  0.0871 -0.5637
12783TIP3    H259841   4.541   3.667  13.566 -0.3006  0.0235 -0.8231
12784TIP3   OH259842   6.675   1.928   2.006  0.5663  0.1758 -0.3313
12784TIP3    H159843   6.633   1.932   2.092 -1.4111 -0.3407 -1.2166
12784TIP3    H259844   6.622   1.985   1.951  1.0594 -0.4657 -1.4998
12785TIP3   OH259845   1.304   5.919  13.410  0.6079 -0.5391 -0.7398
12785TIP3    H159846   1.301   5.824  13.405 -1.0741 -0.5868  0.3436
12785TIP3    H259847   1.222   5.948  13.370  1.1944  0.4811 -1.2483
12786TIP3   OH259848   6.064   4.966   6.075  0.5577 -0.3528 -0.0149
12786TIP3    H159849   6.135   4.943   6.136 -0.6553 -1.3816  1.0874
12786TIP3    H259850   6.041   4.882   6.034 -1.0043 -0.3315  0.7741
12787TIP3   OH259851   3.815   0.393  16.598  0.4356 -0.1797 -0.0073
12787TIP3    H159852   3.755   0.429  16.664  0.5107  0.3997 -0.2526
12787TIP3    H259853   3.760   0.340  16.541  0.0323  0.9024 -0.6371
12788TIP3   OH259854   0.606   6.257  13.443 -0.0491  0.1388  0.1061
12788TIP3    H159855   0.636   6.327  13.502 -0.9055  1.1937 -0.6667
12788TIP3    H259856   0.587   6.301  13.361  1.0538 -1.3136 -0.9696
12789TIP3   OH259857   5.887   2.523  13.589  0.0033  0.2516 -0.0984
12789TIP3    H159858   5.895   2.586  13.662 -1.5971 -0.8431  1.1041
12789TIP3    H259859   5.892   2.577  13.510 -2.4196  2.1291  0.8917
12790TIP3   OH259860   1.619   2.039   6.056 -0.4136 -0.8851 -0.0242
12790TIP3    H159861   1.702   2.004   6.088  1.4744  3.3939  0.4984
12790TIP3    H259862   1.640   2.076   5.970 -1.3055  1.4780  0.6965
12791TIP3   OH259863   1.197   5.316   3.971 -0.4312 -0.5586 -0.9030
12791TIP3    H159864   1.270   5.254   3.980 -0.1480 -0.0835  0.3172
12791TIP3    H259865   1.199   5.367   4.052 -0.3366  1.3843 -2.0563
12792TIP3   OH259866   0.011   0.182   3.368 -0.0520 -0.0240 -0.2613
12792TIP3    H159867  -0.047   0.143   3.303 -0.3665 -1.3771  0.7725
12792TIP3    H259868  -0.033   0.262   3.397 -0.2332  0.2204 -1.2017
12793TIP3   OH259869   6.343   3.501   3.521 -0.0487  0.5430 -0.0998
12793TIP3    H159870   6.323   3.514   3.429  3.5416  0.8898 -0.9802
12793TIP3    H259871   6.304   3.416   3.542 -1.9193  0.9759 -1.5404
12794TIP3   OH259872   3.699   1.361   4.709  0.2384 -0.5513  0.3014
12794TIP3    H159873   3.716   1.432   4.770  0.6529  0.5428 -1.0383
12794TIP3    H259874   3.604   1.361   4.699  0.1174 -1.0621  1.2813
12795TIP3   OH259875   0.045   3.298   4.207 -0.1946  0.4193  0.1641
12795TIP3    H159876   0.060   3.211   4.245 -0.1981 -0.2651 -1.3420
12795TIP3    H259877  -0.013   3.281   4.133 -1.9482  1.9905  1.0931
12796TIP3   OH259878   0.313   4.612   2.203 -0.1607 -0.0108  0.7437
12796TIP3    H159879   0.278   4.682   2.257  1.6535  0.5396  1.2785
12796TIP3    H259880   0.390   4.581   2.251  0.4993 -0.6665 -0.6811
12797TIP3   OH259881   0.334   1.466  12.681  0.3569  0.4060 -0.1663
12797TIP3    H159882   0.362   1.501  12.596  0.8590  0.6322  0.0868
12797TIP3    H259883   0.385   1.516  12.745  0.2957 -0.0552  0.2476
12798TIP3   OH259884   2.882   5.282  16.088  0.2692 -0.2924 -0.1883
12798TIP3    H159885   2.831   5.216  16.041 -0.7444  0.9762 -0.9350
12798TIP3    H259886   2.819   5.323  16.147  1.3506 -1.3387  1.8167
12799TIP3   OH259887   3.874   6.266  12.028  0.2767  0.6391 -0.5308
12799TIP3    H159888   3.823   6.273  12.109  0.3468  0.1396 -0.4422
12799TIP3    H259889   3.937   6.196  12.046 -0.0141  0.2085 -1.1903
12800TIP3   OH259890   5.650   3.117  11.944 -0.2899 -0.2530 -0.2995
12800TIP3    H159891   5.626   3.134  12.035 -0.3163  0.4369 -0.4315
12800TIP3    H259892   5.708   3.189  11.920 -1.8145  0.6593 -1.4205
12801TIP3   OH259893   5.431   6.685   4.788 -0.0729  0.2145  0.0368
12801TIP3    H159894   5.472   6.761   4.745 -2.7714  0.5287 -2.2293
12801TIP3    H259895   5.383   6.723   4.862  1.8997  0.0811  1.4822
12802TIP3   OH259896   4.148   4.060   1.056  0.7476  0.3260 -0.3463
12802TIP3    H159897   4.097   3.980   1.071  1.7426 -0.2264  0.2053
12802TIP3    H259898   4.153   4.102   1.142 -1.8490  2.3257 -1.0259
12803TIP3   OH259899   4.668   0.191  15.081 -0.5813  0.1121  0.0978
12803TIP3    H159900   4.574   0.189  15.097 -0.2151 -0.4963  2.5416
12803TIP3    H259901   4.701   0.262  15.136  0.3256  0.9274 -1.4172
12804TIP3   OH259902   0.524   2.585   3.472 -0.2379  0.6136 -0.1842
12804TIP3    H159903   0.561   2.609   3.387  1.0235 -0.7282 -0.0660
12804TIP3    H259904   0.439   2.630   3.475 -0.4881  0.4050 -2.3040
12805TIP3   OH259905   6.165   4.427  14.544 -0.8323  0.5023  0.1688
12805TIP3    H159906   6.184   4.335  14.560 -0.4399  0.6880  0.7797
12805TIP3    H259907   6.221   4.475  14.605 -1.0248  1.1474 -0.1470
12806TIP3   OH259908   0.851   1.836  14.569  0.3196  0.1587  0.2854
12806TIP3    H159909   0.767   1.791  14.558  0.3023  0.3367 -0.3709
12806TIP3    H259910   0.916   1.770  14.545  0.2661  0.6640 -1.3432
12807TIP3   OH259911   1.790   4.844  11.673  0.4040 -0.5509  0.5532
12807TIP3    H159912   1.713   4.787  11.666  1.6107 -2.1838 -0.1759
12807TIP3    H259913   1.806   4.875  11.584  0.0751  0.5141  0.8555
12808TIP3   OH259914   2.222   5.931   2.468  0.0681 -0.6828  0.1271
12808TIP3    H159915   2.146   5.879   2.441  0.5832 -1.3451 -0.0548
12808TIP3    H259916   2.198   6.021   2.446 -0.9319 -0.7980  0.6719
12809TIP3   OH259917   0.170   0.866   5.338 -0.2037 -0.3655  0.2003
12809TIP3    H159918   0.199   0.884   5.249  0.0684  0.6314  0.4865
12809TIP3    H259919   0.213   0.783   5.361 -2.0833 -1.8975 -1.3954
12810TIP3   OH259920   1.699   0.791   1.474 -0.0880 -0.0922  0.1009
12810TIP3    H159921   1.704   0.877   1.515 -0.3364 -0.8535  1.8552
12810TIP3    H259922   1.790   0.762   1.468  0.0385  0.4865 -0.9924
12811TIP3   OH259923   4.483   3.179  11.165 -0.5326  0.4372 -0.0830
12811TIP3    H159924   4.546   3.144  11.228 -0.5721 -0.1547 -0.3623
12811TIP3    H259925   4.403   3.194  11.217 -0.7289 -0.5340 -0.0808
12812TIP3   OH259926   4.272   6.748   3.838 -0.1648  0.0083  0.4139
12812TIP3    H159927   4.283   6.838   3.809 -0.2051 -0.6488 -1.8230
12812TIP3    H259928   4.357   6.707   3.822  0.2412 -0.1153  2.5478
12813TIP3   OH259929   5.559   2.566  14.685 -0.0722  0.2942  0.0094
12813TIP3    H159930   5.517   2.585  14.769  0.3456  1.5780 -0.0484
12813TIP3    H259931   5.572   2.471  14.686 -3.1608 -0.2517 -0.0652
12814TIP3   OH259932   3.719   6.782   1.685  0.1958 -0.2241  0.4090
12814TIP3    H159933   3.693   6.867   1.650  0.3170 -1.2334 -2.4305
12814TIP3    H259934   3.666   6.771   1.764  0.8236  2.7996  1.3772
12815TIP3   OH259935   5.137   5.900   3.918 -0.4280 -0.3641 -0.1311
12815TIP3    H159936   5.132   5.954   3.996  0.1075 -0.6322  0.0937
12815TIP3    H259937   5.107   5.814   3.947 -3.0162  0.1992 -0.8984
12816TIP3   OH259938   1.542   1.008  15.333  0.0647  0.2130 -0.1265
12816TIP3    H159939   1.636   1.024  15.320  0.2744 -0.6219  0.2998
12816TIP3    H259940   1.537   0.917  15.364 -1.1158 -0.8360 -3.0450
12817TIP3   OH259941   0.334   0.395  14.120 -0.3075 -0.0951 -0.1818
12817TIP3    H159942   0.307   0.474  14.073  0.1314  0.8048  1.0326
12817TIP3    H259943   0.253   0.360  14.157 -0.2340  1.1054  1.2104
12818TIP3   OH259944   6.698   6.547   5.831  0.0731  0.1314 -0.3157
12818TIP3    H159945   6.755   6.480   5.870 -1.2486 -0.3819  0.8224
12818TIP3    H259946   6.749   6.628   5.837  0.9280 -0.4181  0.0893
12819TIP3   OH259947   2.304   5.554   3.856 -0.1723 -0.2562  0.6426
12819TIP3    H159948   2.356   5.634   3.845  0.1252 -0.5972 -0.5517
12819TIP3    H259949   2.301   5.515   3.768 -1.1674 -1.0332  1.0048
12820TIP3   OH259950   6.448   1.972  16.923  0.0589 -0.5256 -0.3530
12820TIP3    H159951   6.506   2.023  16.979  2.7050 -0.9392 -2.5203
12820TIP3    H259952   6.474   1.881  16.938 -0.3235 -0.7582 -1.0418
12821TIP3   OH259953   4.890   3.877  10.572  0.0022 -0.0548  0.0238
12821TIP3    H159954   4.850   3.792  10.589 -0.6066  0.4805  1.3454
12821TIP3    H259955   4.840   3.913  10.498 -1.3487  0.1839  1.0197
12822TIP3   OH259956   3.408   4.995   2.919 -0.0555  0.7786  0.0829
12822TIP3    H159957   3.460   5.013   2.997 -0.3414  0.8209  0.2669
12822TIP3    H259958   3.437   4.909   2.889  0.1299  0.8097  0.1753
12823TIP3   OH259959   5.930   0.407  12.105 -0.1491  0.4335 -0.1728
12823TIP3    H159960   6.003   0.347  12.092  0.4857  0.7772  1.5672
12823TIP3    H259961   5.920   0.452  12.021 -1.4357 -2.8650 -1.9720
12824TIP3   OH259962   1.753   6.329   4.616  0.0849  0.0070 -0.2248
12824TIP3    H159963   1.847   6.308   4.623  0.4767  1.6107 -0.3632
12824TIP3    H259964   1.713   6.247   4.587  1.2734 -1.0371  0.9286
12825TIP3   OH259965   3.724   0.546   0.889 -0.3548  0.4392 -0.3359
12825TIP3    H159966   3.755   0.573   0.975  0.9578  0.3050 -0.7446
12825TIP3    H259967   3.629   0.539   0.899 -0.1626 -0.3307  1.3055
12826TIP3   OH259968   6.504   0.360  11.888 -0.8289 -0.8171  0.2596
12826TIP3    H159969   6.507   0.267  11.911  0.4724 -0.7087  0.6212
12826TIP3    H259970   6.524   0.362  11.794 -1.3767 -0.9366  0.1394
12827TIP3   OH259971   2.700   5.644   2.075  0.0618 -0.5673 -0.0288
12827TIP3    H159972   2.669   5.575   2.133 -0.0821  0.0659  0.6539
12827TIP3    H259973   2.643   5.638   1.998 -0.5953 -0.5678  0.4527
12828TIP3   OH259974   5.780   6.190   1.023  0.2793 -0.0408  0.4049
12828TIP3    H159975   5.719   6.226   0.959 -0.7692  0.1402  1.4578
12828TIP3    H259976   5.863   6.233   1.005  0.5685 -1.4762 -2.1124
12829TIP3   OH259977   1.879   2.251  16.434  0.0120 -0.0101 -0.0658
12829TIP3    H159978   1.877   2.162  16.398 -0.6571 -0.1507  0.3032
12829TIP3    H259979   1.787   2.276  16.441  0.1403  0.1291  1.2663
12830TIP3   OH259980   1.162   2.640  14.267 -0.1775  0.3165 -0.2015
12830TIP3    H159981   1.244   2.592  14.254  0.3903  1.3494 -0.5603
12830TIP3    H259982   1.106   2.614  14.194 -0.2340 -0.4981  0.1204
12831TIP3   OH259983   6.196   3.071  12.208  0.1004 -0.1173  0.2479
12831TIP3    H159984   6.169   2.980  12.200 -1.5803  0.1941  1.6390
12831TIP3    H259985   6.238   3.076  12.295  2.7419 -0.0890 -0.9254
12832TIP3   OH259986   1.570   1.654  11.664 -0.2644 -0.5610 -0.0627
12832TIP3    H159987   1.621   1.578  11.690 -0.9348 -0.7421  0.7491
12832TIP3    H259988   1.485   1.643  11.707 -0.7470  0.0939 -0.8104
12833TIP3   OH259989   2.610   5.011  14.801  0.0817 -0.0571  0.7686
12833TIP3    H159990   2.635   4.918  14.801  0.1852 -0.0891  2.8047
12833TIP3    H259991   2.692   5.058  14.813 -0.1420  0.1904  1.3826
12834TIP3   OH259992   3.519   4.611   4.733  0.0462 -0.0773 -0.5521
12834TIP3    H159993   3.445   4.617   4.794  0.9863  2.1393  0.5162
12834TIP3    H259994   3.480   4.597   4.647 -1.6343  1.1895 -0.0336
12835TIP3   OH259995   0.628   4.194   3.936 -0.0892  0.0706  0.0995
12835TIP3    H159996   0.653   4.125   3.874  1.6754 -1.6231  2.4697
12835TIP3    H259997   0.572   4.149   3.999  1.2873  0.6939  1.8423
12836TIP3   OH259998   1.242   5.223   1.386 -0.0052  0.4138 -0.6998
12836TIP3    H159999   1.273   5.266   1.466 -0.0033  0.4296 -0.7090
12836TIP3    H260000   1.249   5.290   1.318  0.2274  0.3283 -0.7639
12837TIP3   OH260001   4.764   2.605  15.334 -0.0208  0.1216  0.0283
12837TIP3    H160002   4.680   2.602  15.381  0.5962  2.4725  1.4762
12837TIP3    H260003   4.743   2.647  15.251 -0.3965  0.0551  0.0859
12838TIP3   OH260004   0.907   1.843   2.020 -0.0191  0.1498 -0.1738
12838TIP3    H160005   0.876   1.931   2.044  1.9524  0.7038  0.5308
12838TIP3    H260006   0.865   1.785   2.084 -0.7419  0.6600 -0.1656
12839TIP3   OH260007   3.110   4.372  12.403  0.2229  0.7712  0.0833
12839TIP3    H160008   3.025   4.415  12.387 -0.6407 -1.2180 -1.1603
12839TIP3    H260009   3.089   4.279  12.402  2.2558  0.2616  1.1052
12840TIP3   OH260010   0.623   1.669  12.971 -0.3236  0.0426 -0.2755
12840TIP3    H160011   0.668   1.657  12.887 -1.8046 -1.9051 -0.8622
12840TIP3    H260012   0.572   1.749  12.959  0.3740  0.4299 -0.7879
12841TIP3   OH260013   4.821   2.275   3.341  0.0273 -0.5326  0.1047
12841TIP3    H160014   4.763   2.226   3.399  1.3520 -0.8157  1.2332
12841TIP3    H260015   4.837   2.357   3.387  1.4722 -0.9595  0.3902
12842TIP3   OH260016   4.794   1.702   5.112  0.0936 -0.1008  0.2542
12842TIP3    H160017   4.813   1.725   5.203  0.5431  0.8153 -0.0586
12842TIP3    H260018   4.703   1.728   5.099 -1.1217 -3.2303  1.3515
12843TIP3   OH260019   1.755   4.975   3.759 -0.2527  0.2382 -0.3861
12843TIP3    H160020   1.769   4.999   3.667 -0.4362 -1.4936 -0.8990
12843TIP3    H260021   1.670   4.930   3.759  0.5176 -1.2963  0.2943
12844TIP3   OH260022   1.971   1.345   4.555 -0.5527  0.1688 -0.1599
12844TIP3    H160023   2.014   1.315   4.475 -3.1246 -1.0185 -1.2151
12844TIP3    H260024   2.017   1.301   4.626  1.9509  1.4480 -0.9014
12845TIP3   OH260025   4.277   1.662   0.471  0.0975 -0.1598  0.7433
12845TIP3    H160026   4.246   1.617   0.393 -1.4580  2.1564 -0.0380
12845TIP3    H260027   4.360   1.617   0.492 -0.0817 -1.6776 -1.4279
12846TIP3   OH260028   0.473   2.958  11.811  0.7593  0.1004 -0.2647
12846TIP3    H160029   0.430   3.010  11.743  1.6867 -0.3910 -1.2685
12846TIP3    H260030   0.437   2.870  11.801  0.8303  0.0457 -0.0554
12847TIP3   OH260031   6.005   4.713   5.945 -0.9246  0.4132  0.5882
12847TIP3    H160032   6.079   4.753   5.898 -1.5869  0.6527 -0.2728
12847TIP3    H260033   5.951   4.676   5.876 -0.7151 -1.3277  1.3256
12848TIP3   OH260034   5.234   4.660   2.038  0.5380  0.0521  0.2270
12848TIP3    H160035   5.277   4.672   1.953 -0.2013 -1.0069 -0.3254
12848TIP3    H260036   5.209   4.748   2.065  1.8356  0.5300 -0.0797
12849TIP3   OH260037   0.724   6.762   5.483  0.0916  0.3986  0.1229
12849TIP3    H160038   0.722   6.813   5.564  2.5458  0.1635  0.4284
12849TIP3    H260039   0.694   6.822   5.415 -1.0031  0.9200  1.0435
12850TIP3   OH260040   0.304   6.101  13.294 -0.7637 -0.1436 -0.5990
12850TIP3    H160041   0.361   6.098  13.371 -1.5264 -1.7232 -0.0386
12850TIP3    H260042   0.224   6.143  13.325 -0.4599  0.7489 -0.9978
12851TIP3   OH260043   3.404   1.251  14.336 -0.0128 -0.0451  0.2290
12851TIP3    H160044   3.407   1.294  14.250  1.6773  1.5149  0.9942
12851TIP3    H260045   3.314   1.265  14.366  0.2480  2.4348  0.0992
12852TIP3   OH260046   0.917   0.333   5.766  0.0585 -0.1922 -0.0325
12852TIP3    H160047   0.913   0.398   5.697  0.9601  1.2405  1.1942
12852TIP3    H260048   0.858   0.263   5.738 -0.1584  0.6830 -1.8589
12853TIP3   OH260049   5.063   5.178  17.303  0.4859 -0.7418 -0.2205
12853TIP3    H160050   5.011   5.204  17.227  1.1351  0.1679 -0.3618
12853TIP3    H260051   5.152   5.206  17.282  0.6452 -0.3270  0.9473
12854TIP3   OH260052   6.177   3.155   4.671 -0.3563 -0.0951  0.1002
12854TIP3    H160053   6.192   3.065   4.642 -0.0849 -0.2392  0.6656
12854TIP3    H260054   6.161   3.147   4.765 -0.5732  0.4229  0.1078
12855TIP3   OH260055   5.581   5.112  14.697  0.5931 -0.7706  0.0406
12855TIP3    H160056   5.523   5.057  14.645  0.6158 -0.8740  0.1230
12855TIP3    H260057   5.634   5.050  14.747 -0.6632 -0.6949  1.5619
12856TIP3   OH260058   5.764   3.102  10.981  0.1609 -0.4749 -0.3303
12856TIP3    H160059   5.720   3.112  10.896  0.2250 -1.3549 -0.4722
12856TIP3    H260060   5.802   3.189  10.998  1.5340 -0.7054 -1.9841
12857TIP3   OH260061   4.945   0.886   4.677  0.2316  0.5667 -0.1137
12857TIP3    H160062   4.935   0.913   4.586 -0.5934  0.6642  0.0017
12857TIP3    H260063   5.013   0.819   4.674  1.1885  1.5338 -0.6059
12858TIP3   OH260064   3.708   3.635  17.069  0.1605  0.0768  0.1591
12858TIP3    H160065   3.789   3.605  17.110  0.1847  0.7599  0.6258
12858TIP3    H260066   3.647   3.647  17.142 -0.3157 -0.2860 -0.1761
12859TIP3   OH260067   6.098   4.403  13.886 -1.0637 -0.8778 -0.0885
12859TIP3    H160068   6.089   4.313  13.916 -0.6344 -1.0765 -0.5541
12859TIP3    H260069   6.007   4.435  13.882 -1.2447 -1.3950 -0.2548
12860TIP3   OH260070   0.406   1.274   3.536 -0.8129 -0.0974  0.0004
12860TIP3    H160071   0.337   1.305   3.476 -0.1951 -0.6713 -1.0329
12860TIP3    H260072   0.370   1.194   3.574 -0.2634 -1.1057 -1.4957
12861TIP3   OH260073   5.277   4.891   0.399  0.8830  0.0639  0.0838
12861TIP3    H160074   5.233   4.976   0.395  0.6713 -0.0761 -0.7252
12861TIP3    H260075   5.212   4.832   0.436  0.2026 -0.2371 -1.5091
12862TIP3   OH260076   1.703   0.591   1.043 -0.3063  0.4307  0.1526
12862TIP3    H160077   1.798   0.588   1.052 -0.3895  0.7057  1.3480
12862TIP3    H260078   1.670   0.541   1.119 -1.1073 -0.9140 -1.0142
12863TIP3   OH260079   6.780   2.124  14.899 -0.3679 -0.1206 -0.1593
12863TIP3    H160080   6.772   2.033  14.927 -1.0917 -0.2225 -0.6714
12863TIP3    H260081   6.690   2.153  14.884 -0.1276  0.5968 -0.2798
12864TIP3   OH260082   3.918   0.626   4.710  0.1285 -0.5189  0.8505
12864TIP3    H160083   3.847   0.690   4.716  1.3361  1.3309 -2.1542
12864TIP3    H260084   3.993   0.677   4.678  1.6798 -3.1094  0.0701
12865TIP3   OH260085   5.818   3.589  16.554  0.3258  0.0218 -0.4493
12865TIP3    H160086   5.776   3.563  16.472 -0.7525  0.3622 -0.0276
12865TIP3    H260087   5.852   3.677  16.536 -1.9895  1.1107  0.1305
12866TIP3   OH260088   6.187   5.489  11.094 -0.1785  0.0393  0.0357
12866TIP3    H160089   6.194   5.394  11.092 -0.6262  0.0067 -0.2138
12866TIP3    H260090   6.120   5.509  11.029  0.0937  0.5422 -0.0949
12867TIP3   OH260091   3.666   6.465  11.062 -0.0966  0.1695 -0.4452
12867TIP3    H160092   3.697   6.549  11.096  1.4919  0.0752 -1.5062
12867TIP3    H260093   3.739   6.433  11.009 -1.5228 -0.8071 -1.9139
12868TIP3   OH260094   0.952   1.154   0.626 -0.0817 -0.4873  0.0343
12868TIP3    H160095   0.922   1.241   0.649 -0.9873 -0.8806  0.3866
12868TIP3    H260096   0.952   1.153   0.530 -0.5808 -0.2729  0.0316
12869TIP3   OH260097   0.195   1.146  17.027  0.3709 -0.5050 -0.0933
12869TIP3    H160098   0.153   1.230  17.048  2.2207  0.5768 -0.4870
12869TIP3    H260099   0.200   1.145  16.931  0.1489 -1.1846 -0.1006
12870TIP3   OH260100   2.972   3.389  16.999  0.0011 -0.2754  0.3102
12870TIP3    H160101   2.955   3.297  17.020 -0.9153 -0.0320  0.6801
12870TIP3    H260102   2.885   3.427  16.985  0.4056  0.3442 -0.6902
12871TIP3   OH260103   4.436   4.521   4.935 -0.9287  0.3667  0.5485
12871TIP3    H160104   4.493   4.571   4.994  0.1462 -1.5079  1.1652
12871TIP3    H260105   4.361   4.498   4.989 -0.8255  0.2384  0.6382
12872TIP3   OH260106   3.935   1.896   1.038 -0.2655 -0.0912 -0.2190
12872TIP3    H160107   3.906   1.805   1.044  2.1681 -0.9350 -0.3905
12872TIP3    H260108   3.978   1.902   0.953 -1.1321  1.4969 -0.6024
12873TIP3   OH260109   4.037   3.630  14.795 -0.3813 -0.1129  0.1794
12873TIP3    H160110   4.011   3.712  14.838 -1.8415  0.7690 -2.1916
12873TIP3    H260111   3.980   3.564  14.833 -2.4455  0.8507 -1.0680
12874TIP3   OH260112   1.555   1.856   0.592  0.3107 -0.4485  0.5185
12874TIP3    H160113   1.544   1.802   0.670  1.0735 -0.9116  0.3110
12874TIP3    H260114   1.599   1.935   0.623  0.0340 -0.3481  0.6615
12875TIP3   OH260115   3.282   2.130   2.507 -0.2795 -0.4382  0.2861
12875TIP3    H160116   3.247   2.052   2.464 -0.7753  1.0990 -2.3883
12875TIP3    H260117   3.257   2.202   2.448 -0.7168  1.8828  3.0943
12876TIP3   OH260118   0.027   1.307  15.708 -0.2576 -0.2048  0.0095
12876TIP3    H160119  -0.036   1.322  15.637  0.4707 -0.8579 -0.7969
12876TIP3    H260120   0.055   1.217  15.696  0.9006  0.1014  0.3036
12877TIP3   OH260121   1.029   2.762  12.381  0.1182  0.3674  0.1443
12877TIP3    H160122   1.110   2.812  12.395  1.2130 -1.2489 -0.1078
12877TIP3    H260123   1.043   2.681  12.430 -0.3984 -0.8970 -1.7083
12878TIP3   OH260124   5.710   4.321   6.247  0.5648  0.2101  0.6557
12878TIP3    H160125   5.676   4.249   6.195 -1.8172  0.5766  1.5875
12878TIP3    H260126   5.779   4.282   6.301 -0.7431 -1.4272  1.2166
12879TIP3   OH260127   5.983   5.236  14.053 -0.1557 -0.1378 -0.0511
12879TIP3    H160128   6.003   5.325  14.027 -0.0603 -0.1069  0.1265
12879TIP3    H260129   5.990   5.185  13.972  0.9094 -0.1776  0.0505
12880TIP3   OH260130   3.082   6.631  12.813 -0.6154  0.0504  0.4009
12880TIP3    H160131   3.154   6.678  12.770 -0.4302 -0.3060  0.3130
12880TIP3    H260132   3.079   6.668  12.901  0.0969 -0.3741  0.6116
12881TIP3   OH260133   4.170   0.102  12.356 -0.3577  0.3026 -0.0176
12881TIP3    H160134   4.179   0.137  12.444 -0.9059  0.1538  0.1049
12881TIP3    H260135   4.085   0.135  12.326  0.6610  1.9795 -1.2522
12882TIP3   OH260136   2.265   3.446  13.622  0.4056  0.0217  0.3705
12882TIP3    H160137   2.220   3.529  13.638  0.5600  0.0989  0.3997
12882TIP3    H260138   2.351   3.471  13.590 -0.5064 -0.0892 -2.4836
12883TIP3   OH260139   0.984   2.866  13.969 -0.0222 -0.6587  0.2832
12883TIP3    H160140   0.945   2.930  13.909  0.2710  0.1632  0.9565
12883TIP3    H260141   1.049   2.820  13.915  1.3865  1.1691  0.3210
12884TIP3   OH260142   6.006   5.077   3.156 -0.1473 -0.1013  0.6771
12884TIP3    H160143   6.053   5.083   3.073  1.9243  1.0451  1.8450
12884TIP3    H260144   5.989   4.983   3.167  0.5740 -0.3894 -0.4842
12885TIP3   OH260145   1.794   0.759   2.082 -0.3030 -0.2727 -0.1778
12885TIP3    H160146   1.834   0.813   2.014 -0.0575  1.6505  1.4022
12885TIP3    H260147   1.806   0.669   2.052  1.4509  0.4376 -1.7665
12886TIP3   OH260148   3.780   4.800  16.025 -0.5123 -0.3113  0.0179
12886TIP3    H160149   3.863   4.830  16.062 -0.9982 -1.5121  2.3106
12886TIP3    H260150   3.803   4.753  15.945  0.9545 -0.2335  0.3773
12887TIP3   OH260151   1.028   1.037  14.035 -0.3559 -0.8503  0.0967
12887TIP3    H160152   0.968   1.006  14.103  1.3982 -2.2036  1.1197
12887TIP3    H260153   1.112   1.049  14.081  0.2220  0.9170 -1.2743
12888TIP3   OH260154   4.304   5.631  11.508  0.2576 -0.6663 -0.7902
12888TIP3    H160155   4.249   5.602  11.580 -2.6809 -0.1135 -2.6316
12888TIP3    H260156   4.344   5.550  11.474 -0.0689 -1.2078  0.0935
12889TIP3   OH260157   3.614   4.778  17.112  0.1316  0.2000 -0.2436
12889TIP3    H160158   3.549   4.836  17.071 -2.0285 -1.8322  0.0416
12889TIP3    H260159   3.656   4.734  17.038  0.2026  0.5398 -0.4070
12890TIP3   OH260160   2.088   2.641   4.209 -0.4856  0.6477 -0.6015
12890TIP3    H160161   2.147   2.604   4.144 -1.5885 -0.2553 -1.1270
12890TIP3    H260162   2.092   2.735   4.194  0.3035  0.5482 -1.0649
12891TIP3   OH260163   4.146   5.105  15.223  0.2370 -0.0156 -0.4171
12891TIP3    H160164   4.111   5.036  15.166 -1.8382  1.0668 -0.5404
12891TIP3    H260165   4.203   5.156  15.166  0.6246 -0.7502 -0.7048
12892TIP3   OH260166   5.769   5.979  14.010 -0.0792 -0.2526  0.2990
12892TIP3    H160167   5.774   5.932  13.927  0.2086 -0.7258  0.5828
12892TIP3    H260168   5.774   6.071  13.986 -0.4727 -0.3690 -0.2473
12893TIP3   OH260169   6.550   6.471  11.208  0.2224  0.0052 -0.2982
12893TIP3    H160170   6.546   6.566  11.204 -0.5308  0.0445  0.6961
12893TIP3    H260171   6.472   6.442  11.160 -0.4259 -0.0245  0.7141
12894TIP3   OH260172   2.910   1.761   4.144 -0.8690  0.1852 -0.2707
12894TIP3    H160173   3.003   1.784   4.156 -1.1346  1.8855 -1.2260
12894TIP3    H260174   2.908   1.666   4.155  0.9421  0.1441  0.0791
12895TIP3   OH260175   4.927   4.961   3.230  0.2043 -0.2194  0.0408
12895TIP3    H160176   4.905   4.984   3.139  1.5501  0.5572 -0.1137
12895TIP3    H260177   4.925   5.044   3.276 -0.6131 -0.6335  0.7777
12896TIP3   OH260178   1.265   3.419   5.587  0.1054 -0.1485 -0.1065
12896TIP3    H160179   1.171   3.404   5.583  0.0522 -0.0672  0.8378
12896TIP3    H260180   1.278   3.502   5.542 -0.7205  1.7020  2.8353
12897TIP3   OH260181   0.999   5.057   0.150  0.1206 -0.0035 -0.7796
12897TIP3    H160182   1.007   5.073   0.056 -0.3982  1.1240 -0.6513
12897TIP3    H260183   0.989   4.963   0.158  1.9849 -0.3318 -1.7106
12898TIP3   OH260184   4.393   5.825  13.962  0.0205 -0.9359 -0.0484
12898TIP3    H160185   4.393   5.769  14.039  1.1619 -0.2143  0.4979
12898TIP3    H260186   4.479   5.812  13.923  0.7221  1.1875  0.6708
12899TIP3   OH260187   6.402   4.325   1.475  0.7337  0.5347  0.1268
12899TIP3    H160188   6.473   4.315   1.539 -0.2388 -0.4765  1.0990
12899TIP3    H260189   6.411   4.415   1.444  1.5888  0.8788  1.2807
12900TIP3   OH260190   4.420   0.698  12.273  0.3544 -0.6985  0.1336
12900TIP3    H160191   4.457   0.763  12.214 -1.2480 -0.2561 -0.4530
12900TIP3    H260192   4.399   0.624  12.215 -0.2141 -0.6967  0.3329
12901TIP3   OH260193   3.973   4.732   0.335 -0.2482  0.1721 -0.3150
12901TIP3    H160194   4.000   4.655   0.285 -1.2851  0.3588 -1.1800
12901TIP3    H260195   3.934   4.790   0.270 -1.4001  0.5271  0.6682
12902TIP3   OH260196   2.865   5.505   5.566  0.3162  0.7053  0.2956
12902TIP3    H160197   2.787   5.502   5.622  1.6717  1.4010  2.3308
12902TIP3    H260198   2.923   5.438   5.602  1.3535  1.3901 -0.0546
12903TIP3   OH260199   3.255   0.866   5.252  0.3271 -0.4141  0.7092
12903TIP3    H160200   3.219   0.883   5.165 -2.7433 -1.1126  1.7234
12903TIP3    H260201   3.336   0.817   5.236 -0.8936 -1.7817 -1.7368
12904TIP3   OH260202   5.160   1.182  14.041 -0.1485 -0.4968  0.1101
12904TIP3    H160203   5.156   1.108  14.101 -0.2677  0.1857  0.9714
12904TIP3    H260204   5.243   1.171  13.994  1.1181  0.1715  2.0646
12905TIP3   OH260205   0.524   0.716  13.379 -1.0375  0.0058 -0.4448
12905TIP3    H160206   0.538   0.805  13.412  1.8940 -0.1399 -1.0057
12905TIP3    H260207   0.444   0.687  13.422 -0.1560  1.6244  2.5890
12906TIP3   OH260208   0.505   2.011  14.148 -0.6341 -0.4062 -0.0554
12906TIP3    H160209   0.468   2.074  14.087 -1.3139 -0.7736 -0.0307
12906TIP3    H260210   0.587   1.982  14.107  1.0468  2.3811  1.1032
12907TIP3   OH260211   0.538   0.587  12.528 -1.1300  0.1494 -0.8394
12907TIP3    H160212   0.548   0.568  12.621  0.9581  2.1027 -0.5689
12907TIP3    H260213   0.492   0.671  12.524 -1.7598 -0.2088 -1.6206
12908TIP3   OH260214   0.928   0.806  13.419 -0.0442  0.1513  0.5681
12908TIP3    H160215   1.013   0.763  13.410 -0.8795 -2.1200  2.4357
12908TIP3    H260216   0.870   0.757  13.361 -0.3621  0.9309  0.2051
12909TIP3   OH260217   1.912   1.665   1.039  0.2453 -0.1452  0.2757
12909TIP3    H160218   1.960   1.676   1.121  0.5771 -0.1985  0.0894
12909TIP3    H260219   1.940   1.739   0.985 -0.0854 -0.0262  0.2623
12910TIP3   OH260220   1.030   3.412  15.350  0.0349 -0.5304  0.2772
12910TIP3    H160221   1.018   3.406  15.445 -0.9956  3.1905  0.5530
12910TIP3    H260222   1.119   3.380  15.335  0.6754 -0.0967  2.6926
12911TIP3   OH260223   1.612   6.088  13.151 -0.0828 -0.0028  0.5453
12911TIP3    H160224   1.594   6.158  13.089  2.3214  0.2473  0.0323
12911TIP3    H260225   1.701   6.058  13.129  0.6261 -0.3295  3.4233
12912TIP3   OH260226   4.988   4.405   2.621  0.4430 -0.2300 -0.4584
12912TIP3    H160227   5.021   4.424   2.709  1.3336  0.2492 -0.8797
12912TIP3    H260228   4.906   4.358   2.636  1.4180 -1.6757  0.6543
12913TIP3   OH260229   4.454   5.001   6.369 -0.0513  0.3730  0.1877
12913TIP3    H160230   4.544   5.011   6.398 -0.1093  0.0584  0.4832
12913TIP3    H260231   4.406   5.069   6.416  0.3230  1.7627 -1.3492
12914TIP3   OH260232   5.627   5.399   1.443 -0.1333 -0.4608  0.1184
12914TIP3    H160233   5.686   5.339   1.489  0.3933 -0.1724 -0.1784
12914TIP3    H260234   5.629   5.370   1.352  0.0158 -0.0790 -0.0015
12915TIP3   OH260235   0.478   5.340  15.753  0.3354 -0.4181  0.2339
12915TIP3    H160236   0.548   5.405  15.749 -0.3491  0.3486  0.3626
12915TIP3    H260237   0.456   5.335  15.846 -0.2637 -0.1122  0.1135
12916TIP3   OH260238   6.787   1.310  12.459  0.1397 -0.3569  0.2396
12916TIP3    H160239   6.695   1.313  12.434  0.3446 -0.4180 -0.5703
12916TIP3    H260240   6.819   1.227  12.422  0.6484 -0.0625  0.0019
12917TIP3   OH260241   5.417   4.334   2.943 -0.0931  0.1875  0.0257
12917TIP3    H160242   5.336   4.351   2.991 -0.0950 -2.5528  1.2198
12917TIP3    H260243   5.391   4.330   2.851 -1.2195 -0.0229  0.3411
12918TIP3   OH260244   2.611   3.105   5.660  0.2953  0.3833  0.4746
12918TIP3    H160245   2.562   3.187   5.671  0.6929  0.5591  0.9740
12918TIP3    H260246   2.655   3.092   5.744  0.9381  0.1149  0.1009
12919TIP3   OH260247   0.524   6.708   6.190  0.3577 -0.1745  0.3228
12919TIP3    H160248   0.531   6.634   6.130 -1.4558 -0.6845  0.6876
12919TIP3    H260249   0.615   6.727   6.215  0.8757 -2.5215  0.5073
12920TIP3   OH260250   0.502   6.748  15.717 -0.1217  0.3455  0.0230
12920TIP3    H160251   0.595   6.726  15.709 -0.2581 -0.1583 -0.2507
12920TIP3    H260252   0.494   6.834  15.677  0.3542  0.7345  0.7233
12921TIP3   OH260253   1.505   0.754   2.063  0.4989  0.0049 -0.5462
12921TIP3    H160254   1.600   0.767   2.067  0.4472  0.0871  1.1093
12921TIP3    H260255   1.468   0.842   2.061  0.4384  0.0211  0.4657
12922TIP3   OH260256   3.209   3.993   1.021  0.2230 -0.0432 -0.0304
12922TIP3    H160257   3.236   3.919   0.967  0.6181  0.9702 -1.2645
12922TIP3    H260258   3.216   4.069   0.963  0.1242  1.0082  1.2917
12923TIP3   OH260259   3.232   0.972  11.372  0.3102  0.7050 -0.1939
12923TIP3    H160260   3.269   0.974  11.284  1.5142  3.1923  0.2719
12923TIP3    H260261   3.300   0.932  11.426  0.7038  1.6188  0.0081
12924TIP3   OH260262   1.671   2.205   2.926 -0.4700  0.5953 -0.0058
12924TIP3    H160263   1.746   2.258   2.953 -0.6325  2.1318 -2.3359
12924TIP3    H260264   1.595   2.256   2.954 -0.6512  0.4029 -0.1465
12925TIP3   OH260265   1.733   4.896   3.021  0.3433 -0.9681  0.1315
12925TIP3    H160266   1.809   4.907   2.964  1.5385  0.3407  1.8862
12925TIP3    H260267   1.736   4.970   3.080 -1.6683 -1.5173  1.0079
12926TIP3   OH260268   1.725   6.019  13.821  0.6983 -0.4502  0.0251
12926TIP3    H160269   1.776   5.955  13.772  0.5309 -1.1265  0.7133
12926TIP3    H260270   1.715   6.093  13.761  1.8318 -0.6089 -0.3846
12927TIP3   OH260271   3.511   6.188  11.483 -0.0346 -0.3248 -0.1693
12927TIP3    H160272   3.492   6.267  11.535 -1.4574 -0.7749  0.0222
12927TIP3    H260273   3.578   6.217  11.420  0.7242  0.5812  1.0082
12928TIP3   OH260274   0.126   2.460  13.605  0.1447  0.1970  0.8910
12928TIP3    H160275   0.059   2.527  13.618 -0.7802  0.1121 -2.3838
12928TIP3    H260276   0.082   2.377  13.623 -0.4592  0.2032 -0.3921
12929TIP3   OH260277   6.050   6.421  14.087 -0.0928 -0.2013 -0.1697
12929TIP3    H160278   6.003   6.418  14.004  0.5462  0.2478 -0.5637
12929TIP3    H260279   5.990   6.384  14.151 -1.5547  1.6657 -0.3911
12930TIP3   OH260280   2.837   5.152   2.018  0.1976  0.4712 -1.0472
12930TIP3    H160281   2.847   5.232   2.070 -1.0182  1.0336 -1.6380
12930TIP3    H260282   2.783   5.095   2.072 -0.7631  0.9157 -1.5132
12931TIP3   OH260283   2.783   4.040  16.400 -0.1427 -0.4337 -0.3495
12931TIP3    H160284   2.784   4.062  16.307  2.4474  1.1769 -0.0714
12931TIP3    H260285   2.871   4.064  16.430 -1.5741  1.3617  2.9752
12932TIP3   OH260286   6.439   4.461   2.912 -0.4477  0.3884  0.8051
12932TIP3    H160287   6.412   4.409   2.988 -1.1411  1.3203  1.2052
12932TIP3    H260288   6.357   4.486   2.869 -0.0481 -1.0747 -0.9324
12933TIP3   OH260289   3.165   3.219  14.349  0.2322 -0.7632  0.4721
12933TIP3    H160290   3.175   3.241  14.256 -0.0480 -0.7729  0.4384
12933TIP3    H260291   3.117   3.137  14.349 -0.4753 -0.3552  0.6395
12934TIP3   OH260292   2.091   1.327  16.072 -0.1029  0.5945 -0.4083
12934TIP3    H160293   2.105   1.320  16.166  0.3911 -0.0357 -0.5203
12934TIP3    H260294   2.008   1.281  16.057  0.1668  0.0881 -0.3674
12935TIP3   OH260295   4.678   6.648  13.150 -0.0786  0.1094 -0.1231
12935TIP3    H160296   4.725   6.578  13.194  2.3792  0.5481 -1.7885
12935TIP3    H260297   4.697   6.726  13.202  0.4637  0.1605 -0.3888
12936TIP3   OH260298   2.672   5.802   0.305 -0.3894  0.3888 -0.4455
12936TIP3    H160299   2.702   5.791   0.395  1.3051  0.6651 -0.9401
12936TIP3    H260300   2.642   5.715   0.278  0.5036 -0.0266 -0.0938
12937TIP3   OH260301   1.974   6.634  15.830 -0.0958  0.1260 -0.3811
12937TIP3    H160302   1.976   6.605  15.739 -1.7945 -0.5982 -0.2256
12937TIP3    H260303   2.057   6.681  15.842  0.6831 -0.7453 -1.9578
12938TIP3   OH260304   0.001   1.130   1.097  1.0702  0.6000 -0.0136
12938TIP3    H160305   0.064   1.150   1.027  3.0539  1.1136  1.8068
12938TIP3    H260306  -0.006   1.211   1.147 -0.4666  0.2981  0.3186
12939TIP3   OH260307   3.119   4.316   3.240 -0.6513  0.0697  0.3279
12939TIP3    H160308   3.100   4.374   3.313 -1.0718  0.0272  0.2532
12939TIP3    H260309   3.201   4.274   3.264  0.4825  1.8187 -0.2991
12940TIP3   OH260310   5.471   2.442  12.047 -0.0424 -0.0448 -0.2461
12940TIP3    H160311   5.406   2.469  12.112  1.2735  0.5816  0.8686
12940TIP3    H260312   5.477   2.347  12.057 -1.2815 -0.2087 -0.8723
12941TIP3   OH260313   3.912   1.009   2.701 -0.0992 -0.2231 -0.3819
12941TIP3    H160314   3.954   0.959   2.631  1.6964 -0.8945  1.1120
12941TIP3    H260315   3.934   0.962   2.781  1.4158  2.7453  1.0903
12942TIP3   OH260316   2.027   5.448   5.977  0.2050  0.6704 -0.1208
12942TIP3    H160317   1.973   5.524   5.956 -2.0597 -1.1002 -1.1799
12942TIP3    H260318   1.973   5.396   6.037  2.5710  0.8438  2.3603
12943TIP3   OH260319   4.155   5.697   1.506  0.3107  0.1059  0.4777
12943TIP3    H160320   4.180   5.605   1.502  0.0466  0.0632 -1.3595
12943TIP3    H260321   4.238   5.744   1.518  0.5375 -0.3303  0.6235
12944TIP3   OH260322   2.537   5.732  12.962  0.2590 -0.0716 -0.7023
12944TIP3    H160323   2.451   5.755  12.926 -0.0715 -2.8715 -1.9300
12944TIP3    H260324   2.600   5.770  12.901 -0.1977 -0.5117 -1.4576
12945TIP3   OH260325   3.463   1.384   1.369  0.2311 -0.2197 -0.0690
12945TIP3    H160326   3.478   1.452   1.303  0.6441 -0.0585  0.1855
12945TIP3    H260327   3.542   1.385   1.423 -0.0420 -0.4472  0.3435
12946TIP3   OH260328   0.725   5.067  12.341  0.2443 -0.2528 -0.5654
12946TIP3    H160329   0.779   5.094  12.416  0.4494  1.5666 -1.3301
12946TIP3    H260330   0.642   5.040  12.380  0.6453 -0.1577  0.3901
12947TIP3   OH260331   6.324   3.916  11.837 -0.0632 -0.0998 -0.6065
12947TIP3    H160332   6.418   3.907  11.848 -0.2352 -0.3733  0.8550
12947TIP3    H260333   6.305   4.007  11.862 -0.1029  0.2074 -1.6919
12948TIP3   OH260334   2.381   0.587   4.297 -0.1086  0.3572 -0.3426
12948TIP3    H160335   2.384   0.597   4.201 -0.3277 -1.2130 -0.5321
12948TIP3    H260336   2.319   0.516   4.312  1.1833 -0.5670  0.8753
12949TIP3   OH260337   2.896   4.918   0.765  0.2696 -0.0549 -0.0844
12949TIP3    H160338   2.953   4.874   0.702  0.4795 -0.1129  0.1504
12949TIP3    H260339   2.898   5.010   0.738  0.8129  0.0132  0.1869
12950TIP3   OH260340   0.638   3.217   6.217 -0.0292  0.4459 -0.5426
12950TIP3    H160341   0.729   3.211   6.186  0.0275  1.8618 -0.6936
12950TIP3    H260342   0.592   3.260   6.145 -0.6764  0.3996 -0.1574
12951TIP3   OH260343   1.153   0.693  16.761 -0.2443 -0.3584  0.0488
12951TIP3    H160344   1.128   0.661  16.674 -0.1460  0.5864 -0.3477
12951TIP3    H260345   1.211   0.626  16.796 -0.3759 -0.8071 -0.5745
12952TIP3   OH260346   4.955   1.474  13.067  0.0509 -0.1526 -0.6485
12952TIP3    H160347   4.914   1.554  13.035  0.0589 -0.5995 -1.8298
12952TIP3    H260348   4.978   1.425  12.988  1.4122 -0.6430  0.0050
12953TIP3   OH260349   5.163   4.433  16.348 -0.2156  0.5546 -0.4797
12953TIP3    H160350   5.090   4.434  16.410  0.0686 -1.2416 -0.0419
12953TIP3    H260351   5.234   4.388  16.395  0.8573  1.4144 -1.2234
12954TIP3   OH260352   4.424   1.389   0.449 -0.6740 -0.5089  0.1731
12954TIP3    H160353   4.381   1.359   0.529  0.2362 -0.0844  0.8377
12954TIP3    H260354   4.477   1.463   0.476 -0.6632 -0.1010 -0.9085
12955TIP3   OH260355   0.475   1.297   4.425  0.0402  0.5565  0.1619
12955TIP3    H160356   0.481   1.326   4.516  1.2757  1.1596 -0.0882
12955TIP3    H260357   0.415   1.223   4.427  1.9590 -1.0596  1.8758
12956TIP3   OH260358   0.687   1.737   6.175 -1.3484  0.0494  0.1380
12956TIP3    H160359   0.779   1.760   6.187 -1.2213 -0.5406  0.3126
12956TIP3    H260360   0.640   1.820   6.188 -0.8760  0.2760  0.4330
12957TIP3   OH260361   2.354   2.559   3.655 -0.3359  0.1338 -0.4309
12957TIP3    H160362   2.278   2.502   3.652 -0.6328  0.5134 -0.2448
12957TIP3    H260363   2.317   2.647   3.664  0.1478  0.2199  0.9075
12958TIP3   OH260364   2.026   4.961   1.642 -0.7963  0.0261 -0.8386
12958TIP3    H160365   2.101   4.926   1.594 -1.2994  0.0571 -1.6753
12958TIP3    H260366   2.036   5.056   1.638  0.0042  0.0307  0.5198
12959TIP3   OH260367   1.034   3.832   2.758  0.1698  0.4040  0.0557
12959TIP3    H160368   0.985   3.908   2.725 -2.3025 -0.2697  1.8643
12959TIP3    H260369   0.994   3.757   2.714 -1.8791 -0.3241  2.8538
12960TIP3   OH260370   5.251   3.999  12.457  0.2952  0.2549 -0.3483
12960TIP3    H160371   5.264   3.935  12.527  0.1946  1.3332  0.6939
12960TIP3    H260372   5.328   3.988  12.400 -0.5332 -1.8922 -1.1341
12961TIP3   OH260373   6.753   5.201   3.979 -0.2893  0.9356  0.9678
12961TIP3    H160374   6.659   5.187   3.971 -0.1641 -0.7166  2.0260
12961TIP3    H260375   6.778   5.241   3.895 -1.5836 -0.5432 -0.1845
12962TIP3   OH260376   1.092   5.511  12.088  0.0422 -0.1019  0.3620
12962TIP3    H160377   1.114   5.478  12.175  0.5682  0.2552  0.3684
12962TIP3    H260378   1.130   5.446  12.028  2.4548  1.2127  0.3298
12963TIP3   OH260379   2.073   3.273   1.599  0.5647 -0.2675  0.2775
12963TIP3    H160380   2.085   3.207   1.531  0.2820 -0.7601  0.6976
12963TIP3    H260381   2.003   3.329   1.566 -0.0143 -0.8831  0.4327
12964TIP3   OH260382   3.044   2.033  14.336 -0.2845  0.7764  0.4613
12964TIP3    H160383   3.071   1.988  14.416 -0.9638  2.1897  1.5257
12964TIP3    H260384   3.058   1.968  14.266  1.9989  0.1089  1.4485
12965TIP3   OH260385   2.569   6.133  15.078  0.2593 -0.0020 -0.0997
12965TIP3    H160386   2.604   6.169  15.159  0.0963  1.5617 -0.6984
12965TIP3    H260387   2.640   6.078  15.043 -0.0789 -1.6375  1.6370
12966TIP3   OH260388   1.413   6.454  16.802 -0.1917 -0.1469 -0.4978
12966TIP3    H160389   1.325   6.489  16.815 -0.7731 -1.3828 -0.9531
12966TIP3    H260390   1.462   6.526  16.763 -0.6796  0.9122  0.7427
12967TIP3   OH260391   4.921   6.069   1.734  0.0668 -0.3313  0.3893
12967TIP3    H160392   4.834   6.085   1.697 -0.9728 -1.6569  2.1098
12967TIP3    H260393   4.916   5.980   1.769  2.0076 -0.2837  0.8908
12968TIP3   OH260394   0.842   1.294  13.922 -0.2432 -0.1687  0.1490
12968TIP3    H160395   0.826   1.384  13.893 -3.1223 -0.6654 -0.1489
12968TIP3    H260396   0.902   1.258  13.857  0.5737  1.3788 -0.0013
12969TIP3   OH260397   2.091   5.946   5.819 -0.0094  0.0088  0.2766
12969TIP3    H160398   2.010   5.994   5.839 -0.4278 -0.2215 -0.7779
12969TIP3    H260399   2.160   6.012   5.827 -0.5199  0.6888 -0.6398
12970TIP3   OH260400   3.417   0.040   4.617 -0.1186  0.1821  0.2845
12970TIP3    H160401   3.513   0.036   4.613  0.0036 -0.4722  2.6441
12970TIP3    H260402   3.396   0.034   4.710 -2.4364  1.4341 -0.0765
12971TIP3   OH260403   5.238   6.731   0.586 -0.1313  0.2743 -0.1737
12971TIP3    H160404   5.212   6.750   0.496  1.5533 -0.3974 -0.8536
12971TIP3    H260405   5.181   6.786   0.640 -1.4258  0.4143 -1.6196
12972TIP3   OH260406   1.539   1.603   5.307  0.2770  0.0830  0.1805
12972TIP3    H160407   1.538   1.642   5.394 -0.9505 -0.6089  0.4977
12972TIP3    H260408   1.450   1.569   5.295  0.5220 -0.1103 -1.2123
12973TIP3   OH260409   6.659   4.995   5.404  0.3735  0.0409 -0.2033
12973TIP3    H160410   6.748   4.984   5.436  0.9400  2.9389 -0.5555
12973TIP3    H260411   6.668   5.040   5.320 -1.3401 -2.3806 -1.8108
12974TIP3   OH260412   5.657   2.973  13.229 -0.2823  0.2769 -0.3590
12974TIP3    H160413   5.728   2.935  13.281 -0.4061 -1.0820 -1.1426
12974TIP3    H260414   5.698   3.046  13.183 -0.2446  1.7523  1.8445
12975TIP3   OH260415   0.687   0.870  11.862 -0.3982  0.5940  0.4924
12975TIP3    H160416   0.697   0.775  11.864 -1.9549  0.4096  0.4188
12975TIP3    H260417   0.737   0.901  11.938 -0.1772 -0.2974  0.7196
12976TIP3   OH260418   2.346   4.899   1.115 -0.2309 -0.8264  0.4889
12976TIP3    H160419   2.437   4.921   1.133 -0.3329  0.5839 -0.5387
12976TIP3    H260420   2.342   4.891   1.019 -1.4576  0.6027  0.3828
12977TIP3   OH260421   1.827   0.257  14.295  0.1766 -0.7948 -0.3223
12977TIP3    H160422   1.851   0.231  14.384 -1.2556  0.3789  0.4496
12977TIP3    H260423   1.871   0.341  14.282  0.3036 -0.9162 -0.6826
12978TIP3   OH260424   5.956   3.648   0.123  0.0286  0.6474 -0.2790
12978TIP3    H160425   5.973   3.568   0.072  0.3197 -0.2484  1.1649
12978TIP3    H260426   5.865   3.671   0.102 -0.3833 -0.6356 -0.0025
12979TIP3   OH260427   6.413   0.642   5.810 -0.2020 -0.8118  0.0385
12979TIP3    H160428   6.463   0.634   5.892  0.4494 -0.1477 -0.2756
12979TIP3    H260429   6.372   0.556   5.799  0.5617 -1.2594  0.5157
12980TIP3   OH260430   4.912   6.429   4.426  0.1296 -0.1111 -0.2150
12980TIP3    H160431   4.935   6.438   4.334 -1.2211  0.3023 -0.5265
12980TIP3    H260432   4.931   6.515   4.464 -1.7142  0.5352 -0.6769
12981TIP3   OH260433   6.276   4.160  16.376  0.1801  0.6764 -0.1797
12981TIP3    H160434   6.263   4.082  16.430 -0.1284  0.4284 -0.6054
12981TIP3    H260435   6.350   4.206  16.417  0.6378 -0.0549 -0.1707
12982TIP3   OH260436   5.365   5.958   1.661  0.3552 -0.1216 -0.0439
12982TIP3    H160437   5.418   6.012   1.603  0.1425  0.1070 -0.0240
12982TIP3    H260438   5.356   6.009   1.741 -1.0975  0.4659 -0.5626
12983TIP3   OH260439   1.499   4.331   4.888  0.7093 -0.3344 -0.1919
12983TIP3    H160440   1.551   4.276   4.830  2.4394 -2.3518  2.9546
12983TIP3    H260441   1.521   4.421   4.864  3.3947 -1.1155 -0.9123
12984TIP3   OH260442   3.514   1.725  12.306  0.0472 -0.2831 -0.7230
12984TIP3    H160443   3.509   1.702  12.214 -0.6975 -0.6717 -0.5940
12984TIP3    H260444   3.475   1.650  12.352  3.1911 -1.5753  0.1535
12985TIP3   OH260445   4.558   2.865  13.043 -0.3746 -0.1085  0.2044
12985TIP3    H160446   4.563   2.785  13.094 -0.1535 -0.8488 -0.9426
12985TIP3    H260447   4.487   2.915  13.083 -1.2231 -1.3400  0.3128
12986TIP3   OH260448   3.432   2.220   4.264 -0.1730 -0.1963  0.4461
12986TIP3    H160449   3.342   2.211   4.233  0.4113 -1.5794 -0.9261
12986TIP3    H260450   3.456   2.133   4.294  1.1976 -0.2252 -0.6421
12987TIP3   OH260451   1.996   3.403   2.451  0.2633  0.1400 -0.0447
12987TIP3    H160452   2.087   3.377   2.435  0.7523  1.9340 -0.4015
12987TIP3    H260453   1.953   3.391   2.366  0.2131 -0.4451  0.0554
12988TIP3   OH260454   5.883   0.937  15.668  0.4590 -0.2258  0.3907
12988TIP3    H160455   5.934   0.963  15.591  0.1491  1.1247  0.6146
12988TIP3    H260456   5.942   0.951  15.742  0.0851  0.4823  0.5679
12989TIP3   OH260457   3.272   2.557  13.861 -0.7807  0.2754 -0.1512
12989TIP3    H160458   3.362   2.582  13.883 -0.7501 -0.5986  0.8223
12989TIP3    H260459   3.279   2.515  13.776 -0.2047 -0.1006  0.0728
12990TIP3   OH260460   2.208   5.483   4.525 -0.0831 -0.4050  0.2732
12990TIP3    H160461   2.151   5.415   4.561 -0.5594 -0.6052 -0.8218
12990TIP3    H260462   2.180   5.492   4.434  0.8313  0.3570  0.0528
12991TIP3   OH260463   5.731   2.873   5.849 -0.2292  0.7904  0.8722
12991TIP3    H160464   5.643   2.837   5.856 -0.5550  1.3674 -0.1547
12991TIP3    H260465   5.789   2.798   5.865 -0.8490  0.7846  3.6093
12992TIP3   OH260466   5.621   4.973  15.572  0.7454 -0.3563 -0.1490
12992TIP3    H160467   5.696   4.916  15.593  0.6001 -1.0288 -1.3635
12992TIP3    H260468   5.647   5.059  15.603  1.8522 -0.6696 -0.1588
12993TIP3   OH260469   2.104   4.111  12.963  0.0334  0.0066 -0.2265
12993TIP3    H160470   2.117   4.199  12.929 -0.6213 -0.1622 -0.9242
12993TIP3    H260471   2.159   4.108  13.041  0.8787  0.6905 -0.7701
12994TIP3   OH260472   2.335   5.905  13.321  0.0504 -0.2475 -0.0248
12994TIP3    H160473   2.245   5.917  13.353  0.5074  1.1329  0.8582
12994TIP3    H260474   2.339   5.959  13.242 -0.3800 -1.7229 -1.0868
12995TIP3   OH260475   5.994   2.346  12.544 -0.3308  0.4568  0.3616
12995TIP3    H160476   5.970   2.338  12.636 -0.7169 -0.1336  0.2111
12995TIP3    H260477   5.911   2.357  12.497 -0.0270  3.2850  0.3032
12996TIP3   OH260478   5.102   2.639  15.903  0.2531  0.5750  0.3800
12996TIP3    H160479   5.044   2.567  15.929  1.5068 -1.0335 -0.9958
12996TIP3    H260480   5.118   2.688  15.983  0.0055 -1.1777  1.5577
12997TIP3   OH260481   5.057   0.679  14.954 -0.1409 -0.0587  0.4487
12997TIP3    H160482   4.997   0.606  14.937 -1.5843  1.3776 -0.9464
12997TIP3    H260483   5.094   0.659  15.040 -1.7298 -1.6142  0.8473
12998TIP3   OH260484   5.202   5.590   4.553  0.0998  0.5789  0.1327
12998TIP3    H160485   5.130   5.654   4.558 -0.6942 -0.4045  3.4490
12998TIP3    H260486   5.276   5.635   4.594  0.3948  0.4182 -0.2265
12999TIP3   OH260487   6.706   6.190  13.098  0.5111 -0.1201 -0.1809
12999TIP3    H160488   6.711   6.119  13.034  1.5696  1.6992 -2.2771
12999TIP3    H260489   6.660   6.261  13.052 -0.6033  0.5818  1.8509
13000TIP3   OH260490   0.377   5.784  12.606  0.1851 -0.4960 -0.2026
13000TIP3    H160491   0.305   5.846  12.620 -1.4077 -1.8590 -1.9531
13000TIP3    H260492   0.444   5.811  12.669 -2.0263  0.5351  1.8585
13001TIP3   OH260493   0.521   4.808  15.221  0.0851 -0.1534 -0.1768
13001TIP3    H160494   0.462   4.734  15.236 -0.8390  0.6726  0.3375
13001TIP3    H260495   0.607   4.767  15.209 -0.7139 -1.4592 -1.9688
13002TIP3   OH260496   1.117   2.612   3.021  0.1861  0.2411 -0.0699
13002TIP3    H160497   1.072   2.542   2.974  0.3931 -0.2978  0.5296
13002TIP3    H260498   1.072   2.619   3.105 -0.2283  1.2534 -0.3585
13003TIP3   OH260499   3.170   2.111   0.418  0.0332 -0.5117 -0.0701
13003TIP3    H160500   3.214   2.178   0.469  0.6564 -0.9296 -0.0457
13003TIP3    H260501   3.219   2.031   0.436  0.2561 -0.6766 -1.2925
13004TIP3   OH260502   4.695   3.054   3.543  0.9439  0.2630 -0.3171
13004TIP3    H160503   4.697   3.149   3.534  1.3062  0.1462 -1.6753
13004TIP3    H260504   4.607   3.034   3.573  0.7497  1.0047 -0.3850
13005TIP3   OH260505   5.531   4.679   1.319  0.1043  0.3233 -0.6629
13005TIP3    H160506   5.612   4.652   1.363 -1.0758 -0.9276  0.8622
13005TIP3    H260507   5.555   4.686   1.227  1.3509 -2.6949 -0.6808
13006TIP3   OH260508   1.030   2.934  13.471  0.3843  0.5937  0.1218
13006TIP3    H160509   1.003   3.011  13.521 -0.4430 -1.1455  2.5739
13006TIP3    H260510   1.124   2.926  13.487  0.3292  0.6769  0.4928
13007TIP3   OH260511   0.688   6.809  11.375  0.0056  0.2188 -0.2281
13007TIP3    H160512   0.663   6.861  11.451  0.8357 -1.1805  1.0638
13007TIP3    H260513   0.784   6.812  11.375  0.0968 -1.5195  0.0918
13008TIP3   OH260514   3.688   4.432  12.450  0.3268  0.4052  0.2140
13008TIP3    H160515   3.701   4.399  12.361  1.2074  1.9205 -0.2570
13008TIP3    H260516   3.633   4.510  12.439 -0.4599 -0.0012  1.1248
13009TIP3   OH260517   6.148   5.671  13.368  0.4324  0.0572 -0.0834
13009TIP3    H160518   6.139   5.590  13.418  0.3519 -0.0281 -0.2341
13009TIP3    H260519   6.081   5.729  13.405  1.1709  0.4144  0.7174
13010TIP3   OH260520   0.752   1.540   2.804  0.0545  0.3837 -0.6166
13010TIP3    H160521   0.840   1.512   2.778  1.0089  1.8738  0.8260
13010TIP3    H260522   0.743   1.509   2.895 -0.8377  0.4434 -0.6769
13011TIP3   OH260523   0.319   5.476   5.593 -0.2606 -0.0044  0.1943
13011TIP3    H160524   0.342   5.535   5.521  1.4686 -0.0918  0.6283
13011TIP3    H260525   0.226   5.490   5.606 -0.0339  2.2569 -0.0785
13012TIP3   OH260526   4.487   1.933   6.037  0.5444  0.5808 -0.3638
13012TIP3    H160527   4.399   1.970   6.050  1.0647  1.5033  0.7327
13012TIP3    H260528   4.545   2.009   6.038  1.4847 -0.1170  0.2452
13013TIP3   OH260529   5.400   1.981   4.502 -0.2922  0.0425 -0.2599
13013TIP3    H160530   5.383   2.074   4.511 -0.8241 -0.0931  0.1911
13013TIP3    H260531   5.416   1.968   4.408  0.1706  0.6433 -0.2684
13014TIP3   OH260532   6.096   2.909   2.047 -0.0981  0.2626  0.2268
13014TIP3    H160533   6.035   2.887   2.118 -0.6496  0.7286 -0.0888
13014TIP3    H260534   6.039   2.920   1.970  0.3621  0.8890 -0.0315
13015TIP3   OH260535   3.313   5.863   5.472  0.2872 -0.7040 -0.1565
13015TIP3    H160536   3.297   5.791   5.533  1.3824 -0.3716  0.5556
13015TIP3    H260537   3.226   5.899   5.454  0.0005 -0.0490  2.1699
13016TIP3   OH260538   3.347   1.370   2.024 -0.0520  0.2888  0.1560
13016TIP3    H160539   3.251   1.373   2.018 -0.1217 -0.4908  0.6841
13016TIP3    H260540   3.376   1.454   1.988 -1.0273  1.3267  1.6741
13017TIP3   OH260541   5.172   0.555   5.384  0.0569  0.2571 -0.3003
13017TIP3    H160542   5.257   0.578   5.347  0.5031 -3.1851 -1.7630
13017TIP3    H260543   5.131   0.500   5.318 -1.5318 -1.5953  2.0478
13018TIP3   OH260544   2.004   4.298  13.965  0.2447  0.4730 -0.0460
13018TIP3    H160545   2.075   4.256  13.917  0.2206 -0.2097  0.5052
13018TIP3    H260546   1.930   4.298  13.904  0.6235  0.9234 -0.5172
13019TIP3   OH260547   0.994   2.350  13.579 -0.1923 -0.8635 -0.0716
13019TIP3    H160548   0.963   2.440  13.569 -0.3160 -0.9997 -1.0086
13019TIP3    H260549   1.042   2.350  13.662  0.0969  0.1470 -0.2245
13020TIP3   OH260550   0.952   4.625  16.426  0.1580  0.3042  0.1055
13020TIP3    H160551   0.888   4.582  16.370 -0.3126  1.1901 -0.0543
13020TIP3    H260552   1.029   4.567  16.423 -0.7024 -0.9097  0.5240
13021TIP3   OH260553   4.014   3.820   5.145 -0.2926 -0.0084  0.6354
13021TIP3    H160554   3.939   3.810   5.204  0.2374  0.4956  1.4215
13021TIP3    H260555   3.977   3.854   5.064 -1.0837 -1.0156  0.5498
13022TIP3   OH260556   0.025   4.913  13.284  0.2645  0.5917  0.1884
13022TIP3    H160557  -0.021   4.874  13.210  0.0780 -0.9545  1.0867
13022TIP3    H260558   0.017   5.008  13.269  1.1358  0.3577 -2.2865
13023TIP3   OH260559   4.205   6.029  14.727 -0.1167 -0.3236  0.7392
13023TIP3    H160560   4.137   5.963  14.709 -0.6945 -0.2988  2.6204
13023TIP3    H260561   4.223   6.020  14.820  2.4093 -0.2196  0.3124
13024TIP3   OH260562   2.501   5.252  16.445  0.2108 -0.3970 -0.0313
13024TIP3    H160563   2.488   5.299  16.528 -2.2803 -0.3593 -0.3637
13024TIP3    H260564   2.437   5.291  16.385  0.2036 -2.1385 -1.2262
13025TIP3   OH260565   2.449   0.774   3.345  0.0075 -0.1543  0.1798
13025TIP3    H160566   2.518   0.839   3.332 -0.7802  0.2028 -3.1784
13025TIP3    H260567   2.489   0.691   3.319  0.7923 -1.0668  3.7754
13026TIP3   OH260568   4.941   1.307  13.292 -0.5295 -0.4611 -0.5140
13026TIP3    H160569   4.944   1.337  13.382  1.7793 -3.3636  0.5471
13026TIP3    H260570   4.966   1.383  13.239  1.4240  0.4626  1.6018
13027TIP3   OH260571   6.108   3.197   6.435 -0.0599  0.0985 -0.4173
13027TIP3    H160572   6.016   3.170   6.439  0.1151 -0.5011 -0.3676
13027TIP3    H260573   6.105   3.290   6.416 -0.6834  0.0953 -0.3384
13028TIP3   OH260574   2.941   1.334  10.690  0.2845  0.5945  0.0435
13028TIP3    H160575   2.851   1.312  10.665  0.0137  0.1277  1.3273
13028TIP3    H260576   2.942   1.430  10.692 -0.5157  0.6018  1.0635
13029TIP3   OH260577   2.911   2.868   3.130 -0.3302 -0.2902 -0.1471
13029TIP3    H160578   2.941   2.850   3.041  0.0456 -0.8121  0.0871
13029TIP3    H260579   2.918   2.784   3.176 -3.0695 -0.7409 -0.3456
13030TIP3   OH260580   5.858   4.214  12.312 -0.3390 -0.0156  0.0888
13030TIP3    H160581   5.936   4.158  12.314  1.5521  2.4264  2.8195
13030TIP3    H260582   5.792   4.165  12.360  0.7126 -0.6662  0.9253
13031TIP3   OH260583   3.772   0.250  11.784  0.2270 -0.0708  0.0079
13031TIP3    H160584   3.854   0.204  11.804 -0.4997 -1.3611  0.0912
13031TIP3    H260585   3.704   0.197  11.824 -0.7681  0.3581 -1.0531
13032TIP3   OH260586   0.962   6.403   6.462 -0.1326 -0.5107  0.0309
13032TIP3    H160587   0.879   6.363   6.487 -1.3323  2.3561  1.0363
13032TIP3    H260588   0.940   6.461   6.389  1.8849 -2.8116 -2.6174
13033TIP3   OH260589   6.081   4.735  16.162 -0.1618 -0.2121  0.0972
13033TIP3    H160590   6.133   4.815  16.168 -0.0220 -0.3557  0.8141
13033TIP3    H260591   6.012   4.756  16.099 -0.2239  0.5243  0.4038
13034TIP3   OH260592   5.970   4.846   2.938 -0.5323 -0.1963  0.4823
13034TIP3    H160593   5.899   4.785   2.919  0.1705 -1.0056  0.3694
13034TIP3    H260594   6.021   4.802   3.006  0.4058 -0.0747 -0.1232
13035TIP3   OH260595   4.085   4.225  14.149  0.0321 -0.4297  0.0931
13035TIP3    H160596   4.138   4.291  14.104 -0.5266  0.3064  0.4909
13035TIP3    H260597   4.026   4.191  14.082  0.5314 -0.7530 -0.1855
13036TIP3   OH260598   2.662   2.772   4.159 -0.1108  0.3733  0.2536
13036TIP3    H160599   2.612   2.851   4.178  0.2584  0.6159  0.2105
13036TIP3    H260600   2.753   2.801   4.150  0.0065 -0.0301  0.0845
13037TIP3   OH260601   1.997   2.708  11.898 -0.0642 -0.1791  0.4058
13037TIP3    H160602   2.088   2.725  11.923 -0.0920  1.6821 -0.5901
13037TIP3    H260603   1.986   2.754  11.814 -1.6510 -1.2118 -0.0048
13038TIP3   OH260604   2.663   6.346  14.431  0.4809  0.2139 -0.0244
13038TIP3    H160605   2.658   6.321  14.523  1.3122 -1.0374 -0.2891
13038TIP3    H260606   2.734   6.292  14.395 -0.5777 -0.1673 -1.6600
13039TIP3   OH260607   4.773   2.489  12.999  0.2738  0.6138 -0.0510
13039TIP3    H160608   4.799   2.579  13.020  0.4052  0.6813 -0.4839
13039TIP3    H260609   4.678   2.490  13.003  0.3202  0.4465  1.2248
13040TIP3   OH260610   4.288   5.665  16.795 -0.3798 -0.0842  0.0169
13040TIP3    H160611   4.326   5.655  16.707 -1.4388 -1.1958 -0.3334
13040TIP3    H260612   4.309   5.583  16.840 -1.1535 -0.1499  0.2761
13041TIP3   OH260613   5.905   6.383  14.890  0.7067 -0.0393  0.6220
13041TIP3    H160614   5.879   6.464  14.847  1.8156  0.3209  0.5986
13041TIP3    H260615   6.000   6.379  14.877  0.9500 -0.3359  2.3290
13042TIP3   OH260616   2.429   3.730   3.769  0.4357 -0.9560  0.1646
13042TIP3    H160617   2.411   3.791   3.697 -0.9195 -2.2688 -0.6643
13042TIP3    H260618   2.491   3.777   3.826 -1.1300  1.4871 -0.0227
13043TIP3   OH260619   2.766   4.390  17.173 -0.0482  0.9606  0.3021
13043TIP3    H160620   2.862   4.389  17.171 -0.0311  0.7627  1.1221
13043TIP3    H260621   2.740   4.368  17.083  0.6714  0.6372  0.1692
13044TIP3   OH260622   0.817   0.888   5.217  0.6506 -0.5770  0.2360
13044TIP3    H160623   0.727   0.897   5.247  1.0297  0.1640  1.2009
13044TIP3    H260624   0.870   0.932   5.284  1.6149  0.2430 -1.0048
13045TIP3   OH260625   4.603   0.353  15.610 -0.1854  0.2381 -0.2203
13045TIP3    H160626   4.595   0.373  15.703  0.2480 -0.5715 -0.0045
13045TIP3    H260627   4.517   0.322  15.584 -0.2792  0.3686 -0.0686
13046TIP3   OH260628   4.670   4.238   1.716  0.1909 -0.1699 -0.1840
13046TIP3    H160629   4.741   4.298   1.740  0.0090  0.2345 -0.6524
13046TIP3    H260630   4.595   4.295   1.699 -1.3068 -0.6893  3.5832
13047TIP3   OH260631   2.193   2.743  12.248  0.4046 -0.0150 -0.0847
13047TIP3    H160632   2.164   2.676  12.310  1.5037 -0.3019  0.1381
13047TIP3    H260633   2.155   2.824  12.281 -2.0589 -0.6709 -1.0887
13048TIP3   OH260634   4.837   4.906  16.755  0.3792  1.4319 -0.2872
13048TIP3    H160635   4.858   4.947  16.839  0.4369 -0.0881  0.4884
13048TIP3    H260636   4.883   4.822  16.757 -1.7287  0.1818 -0.6747
13049TIP3   OH260637   1.801   6.346  13.757  0.1634  0.0705 -0.4566
13049TIP3    H160638   1.768   6.289  13.688  1.2324 -1.3586  0.1762
13049TIP3    H260639   1.858   6.291  13.809  0.5650  1.5108  0.7017
13050TIP3   OH260640   2.420   5.053  13.232 -0.3752 -0.4266 -0.5246
13050TIP3    H160641   2.436   5.058  13.326 -1.7267 -0.1429 -0.3006
13050TIP3    H260642   2.335   5.011  13.224  0.1215 -1.2717 -1.6632
13051TIP3   OH260643   1.446   0.682   1.822  0.1662  0.0484 -0.1885
13051TIP3    H160644   1.460   0.690   1.916 -2.8695  1.0629  0.3223
13051TIP3    H260645   1.441   0.773   1.791 -1.1178 -0.2131 -0.8462
13052TIP3   OH260646   5.089   4.259   2.117  0.1543 -0.4869 -0.4210
13052TIP3    H160647   5.132   4.266   2.031 -0.2924 -0.1421 -0.6156
13052TIP3    H260648   5.098   4.167   2.140 -1.1695 -0.9377 -1.5941
13053TIP3   OH260649   0.730   6.618   2.363  0.4536 -0.1272  0.6813
13053TIP3    H160650   0.649   6.648   2.321 -0.0690 -0.1246  1.6639
13053TIP3    H260651   0.768   6.698   2.401  1.6609  0.1336 -0.9212
13054TIP3   OH260652   1.206   2.265   4.225 -0.4042  0.2369 -0.4803
13054TIP3    H160653   1.134   2.271   4.288  1.3998  0.2400  1.7068
13054TIP3    H260654   1.231   2.173   4.225  0.2325  0.4041 -0.4428
13055TIP3   OH260655   4.575   5.375   2.533  0.4997 -0.0843 -1.0572
13055TIP3    H160656   4.547   5.446   2.475  1.1695  1.3458  0.2843
13055TIP3    H260657   4.518   5.382   2.609  2.1579  0.6598  0.1906
13056TIP3   OH260658   5.881   6.166  17.169 -0.3275  0.4758 -0.7663
13056TIP3    H160659   5.958   6.213  17.137  0.4375  0.2360  0.6399
13056TIP3    H260660   5.822   6.162  17.094  0.7898  1.1720 -1.7092
13057TIP3   OH260661   1.781   3.178   2.350  0.2808  0.4805 -0.0992
13057TIP3    H160662   1.818   3.263   2.326  0.8046  0.0176 -0.9762
13057TIP3    H260663   1.851   3.135   2.400  1.5973 -0.9887 -3.0089
13058TIP3   OH260664   1.997   1.707   6.625  0.0091  0.4276  0.1993
13058TIP3    H160665   1.913   1.750   6.640 -0.4343 -0.9872  2.2507
13058TIP3    H260666   1.975   1.615   6.612  1.2089  0.0844  0.4133
13059TIP3   OH260667   2.818   6.194  12.626 -0.4497  0.4112  0.1853
13059TIP3    H160668   2.904   6.171  12.590 -0.4743  0.8723 -0.1737
13059TIP3    H260669   2.835   6.269  12.684 -0.7916  1.3456 -0.8930
13060TIP3   OH260670   4.545   4.547   0.292  0.0491  0.3463  0.3786
13060TIP3    H160671   4.500   4.509   0.216 -0.1622  2.2022 -0.4766
13060TIP3    H260672   4.477   4.595   0.338  1.0041  3.0917 -0.8643
13061TIP3   OH260673   4.050   2.172  17.280  0.0265 -0.3198 -0.1742
13061TIP3    H160674   3.972   2.133  17.240 -0.3337 -1.5420  1.5825
13061TIP3    H260675   4.095   2.099  17.321  1.9344  0.4314 -0.8295
13062TIP3   OH260676   6.699   4.717  11.905  0.1540  0.0649  0.0184
13062TIP3    H160677   6.793   4.717  11.923  0.6225  2.1974 -1.9080
13062TIP3    H260678   6.671   4.627  11.918  2.5131 -0.6608  0.3935
13063TIP3   OH260679   0.648   2.119   3.489  0.0624  0.1100 -0.2306
13063TIP3    H160680   0.663   2.092   3.580  0.0228 -0.1116 -0.2884
13063TIP3    H260681   0.555   2.100   3.474 -0.1637  1.0235 -0.0248
13064TIP3   OH260682   3.142   3.281  16.430  0.1716 -0.0969  0.3718
13064TIP3    H160683   3.100   3.342  16.490  0.9133  3.4222 -2.3264
13064TIP3    H260684   3.236   3.298  16.441  0.4998 -1.7711  0.4488
13065TIP3   OH260685   6.182   0.251   3.239  0.4397 -0.2034  0.2691
13065TIP3    H160686   6.267   0.209   3.254 -0.3577 -1.3979  1.7711
13065TIP3    H260687   6.121   0.202   3.294 -1.3363  0.2991 -1.1664
13066TIP3   OH260688   0.061   2.780  12.698 -0.9338  0.1688 -0.1253
13066TIP3    H160689   0.090   2.760  12.786  0.5393 -0.1293 -0.6478
13066TIP3    H260690   0.035   2.695  12.662 -0.1817  0.0525 -0.4251
13067TIP3   OH260691   4.548   2.753  14.384 -0.4220 -0.5699  0.0475
13067TIP3    H160692   4.573   2.714  14.467 -1.8048 -1.2971  0.1496
13067TIP3    H260693   4.541   2.679  14.324  1.0252 -0.0113 -0.8755
13068TIP3   OH260694   6.557   4.323  12.703 -0.1406 -0.5585 -0.1135
13068TIP3    H160695   6.502   4.377  12.759 -0.7741  0.9794 -2.0849
13068TIP3    H260696   6.496   4.282  12.642  0.7130  0.4241 -1.7278
13069TIP3   OH260697   3.698   5.775  12.618  0.2365  0.3935  0.4512
13069TIP3    H160698   3.713   5.824  12.537 -0.2120  0.0475  0.1503
13069TIP3    H260699   3.698   5.683  12.590 -1.2793  0.3196  0.6039
13070TIP3   OH260700   6.225   5.218   5.993 -0.3583  0.0098 -0.1604
13070TIP3    H160701   6.166   5.145   6.013 -2.0719  1.0301 -1.1765
13070TIP3    H260702   6.306   5.197   6.039 -1.6898 -1.1980  1.8024
13071TIP3   OH260703   0.518   5.666   6.225 -0.7993  0.0125  0.2992
13071TIP3    H160704   0.507   5.699   6.314 -2.2479 -0.3468  0.2856
13071TIP3    H260705   0.610   5.682   6.204 -0.6046  0.7255  1.6022
13072TIP3   OH260706   0.020   2.560   4.985 -0.2256  0.1017 -0.0540
13072TIP3    H160707  -0.068   2.562   5.023 -0.5174 -1.4491 -0.5641
13072TIP3    H260708   0.078   2.552   5.061 -0.4557  1.6592  0.3227
13073TIP3   OH260709   4.492   4.597   3.638  0.8059  0.1823  0.3302
13073TIP3    H160710   4.551   4.669   3.615 -0.0145  0.4146 -1.1637
13073TIP3    H260711   4.430   4.636   3.700  0.0907  0.9302 -0.8121
13074TIP3   OH260712   4.225   0.695  13.963  0.3496 -0.2306  0.7036
13074TIP3    H160713   4.202   0.640  14.038  1.3835 -0.9561  0.5182
13074TIP3    H260714   4.317   0.674  13.945  0.2155  0.1602 -0.5657
13075TIP3   OH260715   0.721   3.036   4.344 -0.0534  0.0402  0.1464
13075TIP3    H160716   0.789   3.096   4.314  0.7226 -0.8804  0.0362
13075TIP3    H260717   0.768   2.958   4.373 -0.9356  0.0564  1.7278
13076TIP3   OH260718   4.383   1.475  16.102 -0.6482 -0.5089 -0.0527
13076TIP3    H160719   4.302   1.506  16.142 -1.0849 -2.3847  0.6028
13076TIP3    H260720   4.449   1.485  16.170 -0.5825 -0.1693 -0.1622
13077TIP3   OH260721   4.960   5.427   0.703 -0.3240  0.2098 -0.4544
13077TIP3    H160722   5.054   5.412   0.691 -0.3266  0.2867 -0.5770
13077TIP3    H260723   4.951   5.522   0.708 -0.3562  0.1878 -0.1042
13078TIP3   OH260724   5.365   5.814   4.588 -0.9309 -0.5553  0.0935
13078TIP3    H160725   5.358   5.840   4.680  1.6312 -0.6411  0.3709
13078TIP3    H260726   5.326   5.887   4.539 -0.1569  0.6224  1.1682
13079TIP3   OH260727   1.085   6.421  14.785 -0.1363 -0.0387  0.7112
13079TIP3    H160728   0.993   6.445  14.775  0.6142  2.7324 -0.6619
13079TIP3    H260729   1.118   6.414  14.695  1.3260  0.6093  1.1565
13080TIP3   OH260730   3.820   0.866   1.851 -0.5509 -0.4761  0.6228
13080TIP3    H160731   3.746   0.900   1.902 -0.7457 -0.0137  0.0512
13080TIP3    H260732   3.784   0.852   1.763  0.5815  2.0817 -0.3507
13081TIP3   OH260733   5.058   0.002   1.462 -0.8205 -0.3008 -0.0183
13081TIP3    H160734   5.060  -0.092   1.475 -0.9153 -0.3962 -0.6560
13081TIP3    H260735   4.979   0.018   1.410  1.1608 -0.3479 -3.3378
13082TIP3   OH260736   5.033   0.145   0.226 -0.1770 -0.2284 -0.0019
13082TIP3    H160737   4.965   0.129   0.160  0.6397 -0.1728 -0.8699
13082TIP3    H260738   4.996   0.212   0.283 -0.8071 -0.1264 -0.5236
13083TIP3   OH260739   1.264   4.210   0.874 -0.4089 -0.1488 -0.2818
13083TIP3    H160740   1.255   4.292   0.923  0.9696  1.8688 -3.0864
13083TIP3    H260741   1.345   4.221   0.824 -0.9110 -2.6582 -1.8327
13084TIP3   OH260742   5.425   2.662   4.876 -0.3374 -0.0141 -0.0287
13084TIP3    H160743   5.344   2.655   4.926  0.2981 -0.6577  0.9362
13084TIP3    H260744   5.450   2.572   4.858  0.7538  0.1256  0.6796
13085TIP3   OH260745   1.706   3.529   3.102 -0.4282 -0.7043 -0.3862
13085TIP3    H160746   1.772   3.592   3.073 -0.1746 -0.2635  1.0903
13085TIP3    H260747   1.625   3.558   3.059 -0.0183 -0.2630 -0.8765
13086TIP3   OH260748   5.368   3.365   4.362  0.6398  0.0669 -0.2016
13086TIP3    H160749   5.342   3.276   4.383  0.4950 -0.0383 -0.8082
13086TIP3    H260750   5.427   3.356   4.288  1.3865  0.4074  0.3378
13087TIP3   OH260751   5.505   2.353  17.244 -0.5417 -0.7347 -0.5182
13087TIP3    H160752   5.463   2.334  17.160 -0.0102 -0.1352 -0.9275
13087TIP3    H260753   5.477   2.281  17.301 -1.3492 -0.8581 -1.0449
13088TIP3   OH260754   6.065   4.944  16.973  0.3625  0.3177  0.1150
13088TIP3    H160755   6.158   4.923  16.987 -0.0685 -0.9001  1.3174
13088TIP3    H260756   6.027   4.941  17.060 -0.9690  0.1003 -0.4616
13089TIP3   OH260757   2.797   2.637   6.249  0.2290 -0.1646  0.2073
13089TIP3    H160758   2.769   2.581   6.176  0.7728 -0.1145 -0.0445
13089TIP3    H260759   2.880   2.599   6.278 -0.6449 -1.0236  1.7201
13090TIP3   OH260760   6.302   5.468  14.097  0.3099  0.4223 -0.1882
13090TIP3    H160761   6.388   5.501  14.070  0.4721  0.5233  0.4433
13090TIP3    H260762   6.291   5.500  14.186  0.6032 -1.5134  0.5714
13091TIP3   OH260763   2.989   3.005  16.575  0.1207 -0.4057  0.2099
13091TIP3    H160764   2.989   3.050  16.660  1.5355 -0.1393  0.0999
13091TIP3    H260765   2.953   3.069  16.514 -0.6423 -0.4982  0.5506
13092TIP3   OH260766   4.003   5.098   3.082  0.3523  0.1912  0.6407
13092TIP3    H160767   4.081   5.091   3.028  0.4849  1.2669  0.6606
13092TIP3    H260768   4.016   5.179   3.132 -1.2586  1.0025 -0.1740
13093TIP3   OH260769   6.381   5.836   4.626 -0.1359 -0.2725 -0.0290
13093TIP3    H160770   6.442   5.831   4.700  0.6923 -0.1581 -0.6808
13093TIP3    H260771   6.438   5.834   4.549 -0.9457  0.2496 -0.6524
13094TIP3   OH260772   3.307   5.499  14.372 -0.0939 -0.4351 -0.3862
13094TIP3    H160773   3.327   5.558  14.445 -1.8432 -1.1527  0.7125
13094TIP3    H260774   3.372   5.522  14.306  1.1085  0.7233  1.1085
13095TIP3   OH260775   3.802   5.719   1.441  0.4810 -0.0763  0.0044
13095TIP3    H160776   3.844   5.804   1.426  2.3525 -0.8230  0.6407
13095TIP3    H260777   3.834   5.664   1.369 -1.4661 -0.0257 -0.9460
13096TIP3   OH260778   4.642   0.734  16.950  0.5660  0.3500  0.2116
13096TIP3    H160779   4.580   0.761  17.018  0.1477 -0.1199  0.0265
13096TIP3    H260780   4.592   0.672  16.896  1.4628 -0.7229  0.5799
13097TIP3   OH260781   0.024   3.865   2.681  0.3740 -0.6017 -0.1499
13097TIP3    H160782   0.011   3.955   2.709  1.0026 -0.2553 -0.9526
13097TIP3    H260783   0.077   3.826   2.751  0.1753 -0.3341  0.1556
13098TIP3   OH260784   6.248   5.522   4.660  0.2284 -0.1692 -0.2421
13098TIP3    H160785   6.213   5.493   4.575  0.9227 -2.3192  0.1603
13098TIP3    H260786   6.189   5.593   4.686 -0.8160 -0.3671 -1.8908
13099TIP3   OH260787   6.391   2.893  15.558  0.3072  0.9683 -0.4887
13099TIP3    H160788   6.462   2.954  15.537  1.7299 -0.2446  0.5674
13099TIP3    H260789   6.384   2.897  15.654  0.7991 -0.8296 -0.3296
13100TIP3   OH260790   5.199   1.794   2.327 -0.8548 -0.2453 -0.0195
13100TIP3    H160791   5.222   1.762   2.240 -2.7856  0.8066 -0.9621
13100TIP3    H260792   5.136   1.729   2.360  0.5640 -1.1575  1.0506
13101TIP3   OH260793   6.785   5.918  13.361  0.3246  0.1924  0.0902
13101TIP3    H160794   6.716   5.953  13.418  1.8992  0.7048  1.7833
13101TIP3    H260795   6.834   5.995  13.332  0.4006 -0.1880 -0.8202
13102TIP3   OH260796   1.116   1.232   0.152  0.1991 -0.0729  0.5041
13102TIP3    H160797   1.182   1.169   0.125 -0.8275 -1.1898  0.5237
13102TIP3    H260798   1.158   1.283   0.222  2.0076  1.1790 -1.3891
13103TIP3   OH260799   5.379   0.285   3.573  0.0724  0.2202 -0.2167
13103TIP3    H160800   5.334   0.229   3.511 -0.1472 -0.5821  0.6421
13103TIP3    H260801   5.331   0.368   3.569  1.5778  1.0838 -2.9118
13104TIP3   OH260802   4.313   3.604   5.315  0.4415 -0.3094  0.3371
13104TIP3    H160803   4.266   3.593   5.232  0.1647  0.2776  0.4081
13104TIP3    H260804   4.246   3.593   5.382 -0.1695  2.8546  0.3995
13105TIP3   OH260805   1.359   6.364  15.389 -0.2217 -0.5044  0.2782
13105TIP3    H160806   1.297   6.382  15.460 -2.0276 -1.2169 -1.0596
13105TIP3    H260807   1.385   6.451  15.358  1.0405 -0.1585  2.1086
13106TIP3   OH260808   1.331   6.156  16.872  0.2057 -0.1965  0.1419
13106TIP3    H160809   1.338   6.161  16.967 -0.3945  0.5438  0.1544
13106TIP3    H260810   1.379   6.232  16.840  0.5694 -0.5450 -0.1652
13107TIP3   OH260811   1.306   6.412  10.711 -0.2653  0.0293 -0.0640
13107TIP3    H160812   1.363   6.339  10.685  1.3307  1.5268 -0.9588
13107TIP3    H260813   1.326   6.482  10.648  1.1930  2.6455  3.0251
13108TIP3   OH260814   6.322   4.172  11.985  0.2126  0.1808 -0.2925
13108TIP3    H160815   6.409   4.164  12.026  0.6182  0.4823 -1.0628
13108TIP3    H260816   6.338   4.226  11.907 -1.2612  3.3110  1.3604
13109TIP3   OH260817   1.273   0.073   1.979  0.0403  0.3934 -0.4934
13109TIP3    H160818   1.184   0.049   1.955 -0.1440 -0.0409  0.5873
13109TIP3    H260819   1.264   0.123   2.060  0.8435 -0.7368  0.3284
13110TIP3   OH260820   5.524   2.410   4.777 -0.4410  0.5044  0.0242
13110TIP3    H160821   5.516   2.331   4.829  3.8061 -0.9838 -1.1531
13110TIP3    H260822   5.500   2.383   4.688 -1.4212  1.2629  0.0468
13111TIP3   OH260823   0.479   4.605  14.910 -0.0319  0.0231  0.6114
13111TIP3    H160824   0.429   4.552  14.848  1.4103 -0.3396 -0.3011
13111TIP3    H260825   0.444   4.693  14.901  0.8347  0.2006 -1.5435
13112TIP3   OH260826   4.918   5.491   3.229  0.4097 -0.1962 -0.2577
13112TIP3    H160827   4.983   5.526   3.167  1.0661 -2.2397 -0.8011
13112TIP3    H260828   4.835   5.496   3.182  1.0039 -2.4022 -1.7117
13113TIP3   OH260829   3.086   0.682  12.818  0.3764 -0.3845  0.4219
13113TIP3    H160830   3.023   0.703  12.888  1.2208  1.6269  0.6559
13113TIP3    H260831   3.047   0.718  12.739  0.2525 -1.0596  0.1713
13114TIP3   OH260832   2.987   1.316  15.960  0.1268  0.2509 -0.2094
13114TIP3    H160833   2.980   1.306  16.055  2.2002  0.3997 -0.0044
13114TIP3    H260834   3.008   1.408  15.947  2.9622 -0.3657 -0.5422
13115TIP3   OH260835   0.460   6.709   5.901  0.1127  0.1067 -0.3745
13115TIP3    H160836   0.378   6.667   5.924 -0.2706  1.2082  0.3988
13115TIP3    H260837   0.480   6.765   5.977  1.9693 -0.6941 -0.1995
13116TIP3   OH260838   0.397   5.538  12.191  0.1392  0.0733 -0.2615
13116TIP3    H160839   0.334   5.529  12.262 -0.2712 -0.1162 -0.6424
13116TIP3    H260840   0.400   5.452  12.150 -1.5678  0.7950 -2.0624
13117TIP3   OH260841   5.504   0.232  16.217  0.0901  0.0411 -0.1934
13117TIP3    H160842   5.464   0.149  16.244 -0.0879  0.0400 -0.4557
13117TIP3    H260843   5.500   0.231  16.121 -2.0738  1.3777 -0.2020
13118TIP3   OH260844   5.443   0.716  16.699  0.2570 -0.3443  0.5075
13118TIP3    H160845   5.350   0.693  16.700  0.0882  0.3087 -0.1809
13118TIP3    H260846   5.448   0.798  16.747  0.2645  0.3742 -0.6796
13119TIP3   OH260847   1.344   5.802  11.103  0.4236  0.1478  0.5059
13119TIP3    H160848   1.427   5.771  11.066  0.6926  0.4077  0.8852
13119TIP3    H260849   1.334   5.891  11.068 -0.1209 -0.1929 -0.2202
13120TIP3   OH260850   2.270   4.373  16.914  0.1352 -0.2240  0.0148
13120TIP3    H160851   2.329   4.299  16.927  0.9608  0.6393  1.3561
13120TIP3    H260852   2.230   4.356  16.829  2.3244 -0.8244 -0.9684
13121TIP3   OH260853   1.647   4.669   0.116  0.8698 -0.1983  0.1304
13121TIP3    H160854   1.685   4.616   0.046 -1.1048 -0.9201 -0.4901
13121TIP3    H260855   1.646   4.758   0.081 -2.2258 -0.8494 -1.9213
13122TIP3   OH260856   2.669   1.987  13.783 -0.2998  0.5233  0.5221
13122TIP3    H160857   2.689   1.961  13.873 -0.1108  1.7382  0.8518
13122TIP3    H260858   2.597   2.049  13.791  1.4589  2.7668  0.1466
13123TIP3   OH260859   5.665   6.483  15.828  0.8192  0.2406 -0.2761
13123TIP3    H160860   5.661   6.559  15.769 -1.9946  0.5694  0.1967
13123TIP3    H260861   5.652   6.407  15.770 -1.3128  0.5219 -0.2409
13124TIP3   OH260862   1.915   5.349   2.140  0.4775 -0.3562  0.1226
13124TIP3    H160863   1.944   5.279   2.081 -0.9317 -0.4104 -0.5339
13124TIP3    H260864   1.849   5.308   2.196  0.8353  0.0448  0.8575
13125TIP3   OH260865   2.457   3.100  12.462 -0.1603  0.4235 -0.2969
13125TIP3    H160866   2.393   3.081  12.393  0.6782 -1.6430 -0.5611
13125TIP3    H260867   2.405   3.103  12.543 -0.5227 -2.7284 -0.2896
13126TIP3   OH260868   5.653   3.346   2.499 -0.4025  0.0630  0.3627
13126TIP3    H160869   5.623   3.306   2.417  1.1458 -1.9499  0.6834
13126TIP3    H260870   5.573   3.377   2.542 -1.3723 -0.0540 -1.2795
13127TIP3   OH260871   0.215   1.211   4.928 -0.3809 -0.2609  0.0893
13127TIP3    H160872   0.273   1.165   4.989  0.3411 -0.8185 -0.9787
13127TIP3    H260873   0.204   1.149   4.855  0.4930  1.1543 -1.3193
13128TIP3   OH260874   4.375   4.823   2.036 -0.7469  0.4853 -0.3869
13128TIP3    H160875   4.386   4.916   2.016  0.2931  0.6713  0.9010
13128TIP3    H260876   4.454   4.782   2.000  0.0279  0.4940  1.2347
13129TIP3   OH260877   2.259   4.721   1.306 -0.3147 -0.5677  0.1888
13129TIP3    H160878   2.297   4.751   1.224  0.1491  1.6204  1.1288
13129TIP3    H260879   2.257   4.626   1.298 -2.6590 -0.4177 -3.3783
13130TIP3   OH260880   3.183   2.604  11.440  0.3769 -0.1244  0.0404
13130TIP3    H160881   3.122   2.564  11.379 -1.0981  0.2461  1.2045
13130TIP3    H260882   3.128   2.657  11.498  2.0700  2.3837 -0.4809
13131TIP3   OH260883   4.545   4.702   2.553 -1.1767 -0.3171 -0.3853
13131TIP3    H160884   4.590   4.622   2.577  0.1028  0.3500 -0.4471
13131TIP3    H260885   4.544   4.755   2.633  1.4698  1.1561 -1.1821
13132TIP3   OH260886   0.428   3.798   1.570 -0.0694 -0.0825  0.1559
13132TIP3    H160887   0.339   3.806   1.602 -0.1702 -0.5824  0.0023
13132TIP3    H260888   0.479   3.772   1.647 -0.1569 -0.3943  0.1064
13133TIP3   OH260889   5.167   5.960   0.182 -0.1896 -0.5764  0.1331
13133TIP3    H160890   5.136   6.048   0.161 -0.9580 -1.0307 -0.7028
13133TIP3    H260891   5.091   5.904   0.167 -0.1691 -1.2172  2.1096
13134TIP3   OH260892   4.236   2.184  16.651 -0.8356  0.8157 -0.3320
13134TIP3    H160893   4.215   2.135  16.731 -0.9006 -0.5424 -1.1324
13134TIP3    H260894   4.185   2.265  16.658 -0.9354  0.6659  0.9351
13135TIP3   OH260895   6.068   0.894  15.187 -0.3394 -0.5238 -0.1356
13135TIP3    H160896   6.033   0.958  15.125 -0.5870 -0.4290  0.1027
13135TIP3    H260897   6.081   0.815  15.135 -2.7055 -1.1737  0.1640
13136TIP3   OH260898   4.916   5.031  14.502  0.3372 -0.2703  0.2833
13136TIP3    H160899   4.939   5.024  14.409  0.1472  0.9092  0.1325
13136TIP3    H260900   4.919   5.125  14.520 -1.6625 -0.3076  0.9624
13137TIP3   OH260901   1.229   0.496   0.658 -0.3578  0.7252 -0.9303
13137TIP3    H160902   1.185   0.420   0.696 -0.9903  0.3082 -2.4492
13137TIP3    H260903   1.306   0.460   0.614 -0.0099  1.1203 -0.6578
13138TIP3   OH260904   2.575   6.741   0.708  0.4660  0.4791  0.2684
13138TIP3    H160905   2.554   6.680   0.636 -1.1163 -0.5393  1.5187
13138TIP3    H260906   2.586   6.826   0.664 -0.6083 -0.0784 -1.1864
13139TIP3   OH260907   3.422   1.660  13.567 -0.5488  0.1426  0.2190
13139TIP3    H160908   3.443   1.742  13.522  1.6964  0.2714  1.3710
13139TIP3    H260909   3.403   1.686  13.657 -1.9194 -0.4250  0.1157
13140TIP3   OH260910   3.596   1.463   0.318  0.1386  0.2975 -0.2248
13140TIP3    H160911   3.531   1.420   0.373  1.2324 -1.3073 -0.1312
13140TIP3    H260912   3.626   1.538   0.370  0.9362 -1.0197  1.2776
13141TIP3   OH260913   4.491   1.242  13.376 -0.0425 -0.0803 -0.1663
13141TIP3    H160914   4.556   1.184  13.336 -0.4730 -1.5268  1.1826
13141TIP3    H260915   4.482   1.211  13.466 -2.1637  0.4536 -0.1382
13142TIP3   OH260916   2.030   0.167   5.463  0.2894  0.5481  0.3395
13142TIP3    H160917   2.103   0.108   5.446  1.1562  1.4170  0.9057
13142TIP3    H260918   2.057   0.250   5.424 -0.3578  0.9078  0.6427
13143TIP3   OH260919   1.772   5.805   1.028  0.0929 -0.1752 -0.0715
13143TIP3    H160920   1.736   5.867   0.965 -0.8128  0.0506  0.6431
13143TIP3    H260921   1.796   5.858   1.104  1.0306 -0.4642 -0.1434
13144TIP3   OH260922   3.839   2.846   0.389 -0.0763  0.0663 -0.6726
13144TIP3    H160923   3.797   2.865   0.304  0.6268 -0.3372 -1.1177
13144TIP3    H260924   3.922   2.805   0.366  1.0855  1.8153  0.1606
13145TIP3   OH260925   4.771   1.926   6.139 -0.7113 -0.3579  0.2959
13145TIP3    H160926   4.820   1.846   6.117  1.1733  1.1966 -1.5279
13145TIP3    H260927   4.798   1.946   6.229  0.0273 -0.9236  0.2137
13146TIP3   OH260928   1.002   3.493   1.369  0.8883  0.2810  0.5042
13146TIP3    H160929   1.083   3.528   1.407  0.1496  0.0516  2.4007
13146TIP3    H260930   0.932   3.544   1.411 -0.0198 -0.7064  0.2314
13147TIP3   OH260931   6.607   1.237  13.457 -0.1787 -0.0076  0.2822
13147TIP3    H160932   6.650   1.309  13.411  0.2387 -0.6278 -0.3262
13147TIP3    H260933   6.669   1.164  13.451 -2.0994 -1.5766 -2.4125
13148TIP3   OH260934   4.761   6.053  11.319  0.5667 -0.1540 -0.9078
13148TIP3    H160935   4.750   6.096  11.235 -1.2028  0.2960 -0.4803
13148TIP3    H260936   4.727   6.115  11.383 -0.3240 -1.4300 -0.0993
13149TIP3   OH260937   0.160   6.495  15.557  0.1575 -0.5929  0.3275
13149TIP3    H160938   0.191   6.407  15.536 -0.6074 -0.8369  0.1785
13149TIP3    H260939   0.238   6.542  15.585  0.9001 -0.7636 -1.3803
13150TIP3   OH260940   3.369   4.453   6.782 -0.1168  0.2262 -0.0632
13150TIP3    H160941   3.340   4.428   6.694 -1.7902 -2.1452  1.0369
13150TIP3    H260942   3.305   4.411   6.841  1.6333  0.6930  2.3334
13151TIP3   OH260943   3.816   0.857   5.354 -0.3986  0.2406  0.1545
13151TIP3    H160944   3.880   0.928   5.358  1.0268 -1.0508  2.3376
13151TIP3    H260945   3.773   0.858   5.440 -1.3861 -0.6498 -0.2996
13152TIP3   OH260946   4.167   4.307  11.991 -0.2889  0.1046  0.0557
13152TIP3    H160947   4.195   4.215  11.985 -0.3609  0.1105 -0.3764
13152TIP3    H260948   4.190   4.332  12.081 -3.1520 -1.2904  1.3060
13153TIP3   OH260949   2.611   6.456  15.804 -0.2348 -0.5098 -0.1849
13153TIP3    H160950   2.567   6.431  15.723 -1.1380 -1.2751  0.5043
13153TIP3    H260951   2.702   6.428  15.792 -0.1425  0.2009 -1.2574
13154TIP3   OH260952   0.495   4.341   5.183 -0.5221  0.1686  0.2159
13154TIP3    H160953   0.442   4.411   5.146  0.7293 -0.6583 -3.6059
13154TIP3    H260954   0.566   4.385   5.229 -0.4954  1.4021 -0.9674
13155TIP3   OH260955   0.012   6.454  13.060  0.3152 -0.4580 -0.2696
13155TIP3    H160956   0.034   6.539  13.021  0.0926 -0.6183 -0.7520
13155TIP3    H260957  -0.082   6.444  13.042  0.1312 -0.3802  0.6086
13156TIP3   OH260958   3.623   1.259  11.734 -0.3841 -0.1068 -0.2583
13156TIP3    H160959   3.535   1.227  11.714  0.2045 -1.1881 -1.2563
13156TIP3    H260960   3.672   1.180  11.756  0.5994  0.3515 -0.7609
13157TIP3   OH260961   4.266   2.106   2.942  0.0229 -0.1722 -0.7357
13157TIP3    H160962   4.211   2.184   2.945  0.6555  0.3421 -1.7900
13157TIP3    H260963   4.351   2.138   2.912  0.8345 -0.9958  0.5938
13158TIP3   OH260964   0.319   3.802   3.699  0.2350  0.0100 -0.1799
13158TIP3    H160965   0.339   3.714   3.731  1.1214  0.4564  0.5164
13158TIP3    H260966   0.243   3.830   3.751 -0.1314 -0.3861 -0.4942
13159TIP3   OH260967   6.750   1.771  12.519  0.0467 -0.7226  0.6773
13159TIP3    H160968   6.742   1.737  12.608  2.3452 -2.4261  0.3280
13159TIP3    H260969   6.770   1.694  12.465 -3.4938 -0.1644 -1.8166
13160TIP3   OH260970   4.068   1.869  14.644 -0.6547  0.2140  0.0133
13160TIP3    H160971   4.039   1.809  14.713  0.2841  0.0539  0.2786
13160TIP3    H260972   4.073   1.954  14.687 -0.4821  0.1928  0.0358
13161TIP3   OH260973   2.445   0.537   4.561  0.0386  0.0897  0.1441
13161TIP3    H160974   2.398   0.454   4.552  0.7812 -0.2231 -1.0936
13161TIP3    H260975   2.420   0.587   4.483 -0.7247  1.2265  1.0799
13162TIP3   OH260976   6.744   0.776  16.521 -0.4291  0.5606  0.2230
13162TIP3    H160977   6.657   0.734  16.525 -0.6460  0.9386 -0.3874
13162TIP3    H260978   6.755   0.799  16.428  0.1049  0.9873  0.3900
13163TIP3   OH260979   2.492   6.517  16.740  0.1745  0.4193 -0.0884
13163TIP3    H160980   2.447   6.600  16.726 -0.7814 -0.0067  0.3233
13163TIP3    H260981   2.450   6.456  16.680 -1.4007 -0.5274  1.8291
13164TIP3   OH260982   2.084   5.422  11.383 -0.3417 -0.2452 -0.1436
13164TIP3    H160983   2.166   5.471  11.382  0.3513 -1.3655 -0.5239
13164TIP3    H260984   2.087   5.369  11.303 -1.0120 -0.9786  0.3063
13165TIP3   OH260985   4.925   3.941  17.018  1.0659  0.4044  0.2476
13165TIP3    H160986   4.907   3.863  17.070 -1.3486  0.9213  0.3000
13165TIP3    H260987   4.990   3.989  17.069 -0.2635  0.2682  2.1745
13166TIP3   OH260988   3.562   2.718   5.694  0.5578 -0.0274 -0.2881
13166TIP3    H160989   3.628   2.772   5.738  0.8130 -1.7044  1.5798
13166TIP3    H260990   3.555   2.754   5.606  0.9965  2.7327  0.7059
13167TIP3   OH260991   1.684   0.226  11.554 -0.5959 -0.1642 -0.1108
13167TIP3    H160992   1.685   0.133  11.575  1.3978 -0.5933 -1.8308
13167TIP3    H260993   1.680   0.230  11.459  0.3203  1.4751 -0.1230
13168TIP3   OH260994   0.949   2.153   0.687  0.4170  0.4028  0.2452
13168TIP3    H160995   0.863   2.189   0.709 -0.0755  0.0558 -1.0277
13168TIP3    H260996   0.930   2.077   0.632  1.5371  0.0413  0.3295
13169TIP3   OH260997   3.288   3.129  11.367 -0.3462 -0.3968 -0.0787
13169TIP3    H160998   3.309   3.058  11.305 -1.9562 -0.8619 -0.1247
13169TIP3    H260999   3.257   3.200  11.312 -0.5372 -0.3398  0.1028
13170TIP3   OH261000   2.885   0.057  12.481  0.4360 -0.1065  0.2946
13170TIP3    H161001   2.864   0.129  12.541  0.2660 -1.1800  1.5717
13170TIP3    H261002   2.853   0.087  12.396 -0.1907  1.0719  0.9120
13171TIP3   OH261003   1.255   5.697  15.973  0.1010 -0.2550 -0.2303
13171TIP3    H161004   1.282   5.613  16.010 -3.5529 -1.3323  0.4927
13171TIP3    H261005   1.193   5.732  16.037 -0.0338  2.0082 -1.4917
13172TIP3   OH261006   1.231   0.613  14.976 -0.4939  0.2608 -0.2924
13172TIP3    H161007   1.240   0.626  14.882  0.9569  0.1985 -0.1863
13172TIP3    H261008   1.319   0.591  15.006 -1.2053 -1.3028  0.8394
13173TIP3   OH261009   5.961   3.071  14.210  0.4982  0.3379 -0.5447
13173TIP3    H161010   5.964   3.043  14.118  0.2804 -0.9257 -0.1849
13173TIP3    H261011   5.869   3.067  14.233  0.7638 -1.9212  0.4471
13174TIP3   OH261012   0.994   4.881   5.729 -0.4705 -0.0168  0.6346
13174TIP3    H161013   0.912   4.837   5.749 -0.0673  0.0264  2.5316
13174TIP3    H261014   1.058   4.843   5.789  0.6725  0.6973 -0.0754
13175TIP3   OH261015   5.807   0.261  13.062 -0.2829  0.4178 -0.0625
13175TIP3    H161016   5.837   0.331  13.005 -0.0268  0.4435  0.1017
13175TIP3    H261017   5.719   0.240  13.030 -0.4843  1.0179  0.0802
13176TIP3   OH261018   3.999   3.634   4.075 -0.3679 -0.3941  0.2553
13176TIP3    H161019   3.996   3.676   3.989  2.6516 -1.8516 -0.7295
13176TIP3    H261020   3.980   3.704   4.138  2.4096  2.0097 -1.3584
13177TIP3   OH261021   3.964   1.006   4.915  0.0696 -0.3365  0.3201
13177TIP3    H161022   4.042   0.956   4.939  1.5959  0.9653 -1.7120
13177TIP3    H261023   3.962   1.004   4.820 -2.0675  0.2094  0.2954
13178TIP3   OH261024   2.490   5.147   3.924  0.2069 -0.3436  0.4290
13178TIP3    H161025   2.428   5.181   3.989  0.6849  0.8922  0.2550
13178TIP3    H261026   2.544   5.222   3.900  1.2213 -1.2034 -0.0676
13179TIP3   OH261027   2.206   2.422   1.567  0.2958  0.2155 -0.3939
13179TIP3    H161028   2.231   2.462   1.650  0.9581 -0.6652 -0.1590
13179TIP3    H261029   2.129   2.369   1.587 -0.5264  1.2589 -0.6870
13180TIP3   OH261030   5.805   0.679  14.964  0.0118 -0.1019 -0.3365
13180TIP3    H161031   5.805   0.775  14.960 -1.3718  0.0673  1.9966
13180TIP3    H261032   5.713   0.655  14.967  0.3569 -1.4762 -0.2677
13181TIP3   OH261033   0.627   6.305  16.045 -0.2769 -0.0250 -0.4580
13181TIP3    H161034   0.659   6.395  16.046 -0.7574  0.1490 -0.1104
13181TIP3    H261035   0.593   6.291  16.134 -0.3998 -0.4756 -0.5736
13182TIP3   OH261036   5.473   1.781  17.211  0.2301  0.0154  0.3294
13182TIP3    H161037   5.555   1.773  17.163  0.8882  0.5158  1.3168
13182TIP3    H261038   5.500   1.784  17.303 -0.9581 -0.6307  0.7144
13183TIP3   OH261039   2.227   1.197  10.777  0.3972  0.4049  0.4120
13183TIP3    H161040   2.162   1.268  10.774  0.8853  0.8463 -1.3315
13183TIP3    H261041   2.176   1.117  10.765  0.2402  0.8623 -2.7686
13184TIP3   OH261042   4.313   3.451   4.676 -0.0454 -0.2770 -0.3897
13184TIP3    H161043   4.224   3.415   4.684  0.3431 -0.9931  0.8978
13184TIP3    H261044   4.336   3.435   4.584 -0.2838 -2.4333 -0.1168
13185TIP3   OH261045   0.596   1.263   6.076  0.3530 -0.5046  0.0799
13185TIP3    H161046   0.633   1.240   5.991  1.6930 -1.1065  0.7878
13185TIP3    H261047   0.620   1.355   6.089 -0.8038 -0.0789 -0.6428
13186TIP3   OH261048   5.142   2.933  12.145 -0.6657 -0.0327 -0.4232
13186TIP3    H161049   5.188   3.015  12.160  0.4331 -0.6985 -0.0339
13186TIP3    H261050   5.074   2.955  12.081  0.2437  0.9571 -1.0844
13187TIP3   OH261051   6.661   1.987   5.011 -0.5615  0.1070  0.1459
13187TIP3    H161052   6.729   1.982   5.079 -0.8270  1.2789  0.5232
13187TIP3    H261053   6.709   1.998   4.929 -0.1394 -3.3614 -0.1979
13188TIP3   OH261054   6.170   3.050   5.733  0.2979 -0.3118  0.4800
13188TIP3    H161055   6.225   2.986   5.687  1.4640  1.4003 -0.6296
13188TIP3    H261056   6.198   3.045   5.824  0.2287 -1.4871  0.4551
13189TIP3   OH261057   5.895   2.265  13.630 -0.1670  0.2475 -0.2154
13189TIP3    H161058   5.891   2.274  13.726 -0.6378  1.1853 -0.3065
13189TIP3    H261059   5.889   2.355  13.598  0.0430 -0.0578 -1.1317
13190TIP3   OH261060   4.631   6.185  16.440 -0.2180  0.3830  0.1589
13190TIP3    H161061   4.673   6.269  16.458 -0.0944  0.1853  0.8122
13190TIP3    H261062   4.606   6.151  16.526  2.4621 -1.6618  0.2776
13191TIP3   OH261063   1.567   0.475   1.284 -0.4505  0.3643 -0.1351
13191TIP3    H161064   1.522   0.505   1.364  0.3776 -0.8077  0.7998
13191TIP3    H261065   1.633   0.414   1.315 -0.0438 -0.0492 -1.7344
13192TIP3   OH261066   2.230   6.201  13.820 -0.5741  0.4773  0.1920
13192TIP3    H161067   2.195   6.178  13.734 -0.6089 -0.8415  0.5334
13192TIP3    H261068   2.153   6.205  13.877 -0.5112  0.9789  0.2510
13193TIP3   OH261069   3.320   2.808   1.790  0.5463 -0.3672 -0.2640
13193TIP3    H161070   3.264   2.740   1.753 -1.4515  0.4360  1.1798
13193TIP3    H261071   3.370   2.763   1.859 -2.5389 -0.0194  2.4040
13194TIP3   OH261072   4.227   0.969  16.428 -0.1214  0.5761 -0.1506
13194TIP3    H161073   4.189   1.040  16.377 -2.1099  0.8188  1.5409
13194TIP3    H261074   4.273   1.012  16.500  0.5870  0.1903 -0.3631
13195TIP3   OH261075   4.080   2.284   5.046  0.1783  0.9004 -0.8081
13195TIP3    H161076   4.107   2.256   5.133 -0.6816 -0.9453 -1.0883
13195TIP3    H261077   3.986   2.300   5.054  0.0101  0.2832 -1.5045
13196TIP3   OH261078   3.693   4.848   3.384  0.4435  0.3187  0.7851
13196TIP3    H161079   3.650   4.932   3.402  0.3255  0.3670  0.2687
13196TIP3    H261080   3.770   4.871   3.332  0.4772  0.1170  0.7449
13197TIP3   OH261081   0.115   4.667   1.145 -0.2427  0.1403 -0.0113
13197TIP3    H161082   0.046   4.707   1.092 -0.3856 -0.7388 -0.5049
13197TIP3    H261083   0.070   4.637   1.224 -0.2213  0.5240  0.1491
13198TIP3   OH261084   0.953   1.614   5.819  0.6089 -0.8355 -0.5341
13198TIP3    H161085   0.917   1.701   5.800  1.9546  0.2245  1.3706
13198TIP3    H261086   1.036   1.611   5.770  1.7794  0.0194  1.2831
13199TIP3   OH261087   5.564   4.705   1.677 -0.1540  0.2417 -0.3172
13199TIP3    H161088   5.581   4.748   1.593 -0.0628  0.4753 -0.1816
13199TIP3    H261089   5.650   4.671   1.704 -0.7940 -3.3578 -2.2051
13200TIP3   OH261090   1.313   6.156   0.518 -0.4728  0.0856  0.1594
13200TIP3    H161091   1.404   6.129   0.515 -0.6254 -0.3461 -1.2570
13200TIP3    H261092   1.274   6.102   0.586 -0.0916 -1.1262 -0.5581
13201TIP3   OH261093   1.592   1.072  16.246  0.3048 -0.8392 -0.0171
13201TIP3    H161094   1.606   0.979  16.226 -0.8606 -1.3091  1.1803
13201TIP3    H261095   1.575   1.074  16.340  0.4979  0.6241  0.0129
13202TIP3   OH261096   6.255   6.290  16.347 -0.0358 -0.1770 -0.6572
13202TIP3    H161097   6.217   6.354  16.288 -0.9648 -1.3616 -1.3778
13202TIP3    H261098   6.223   6.205  16.316  0.3878 -0.9306  0.8386
13203TIP3   OH261099   2.233   4.430   0.289  0.3256  0.1611 -0.0767
13203TIP3    H161100   2.176   4.439   0.213 -1.2624  0.7421  1.1342
13203TIP3    H261101   2.275   4.516   0.298 -0.4057  0.4736  0.3979
13204TIP3   OH261102   6.062   4.467  15.752 -0.6168  0.3257 -0.0756
13204TIP3    H161103   5.981   4.512  15.731  0.0463  1.9383  0.6824
13204TIP3    H261104   6.109   4.461  15.668 -0.8776  0.6944 -0.2439
13205TIP3   OH261105   2.871   1.955  16.221 -0.0589  0.3691  0.3441
13205TIP3    H161106   2.817   1.887  16.181 -2.3580  0.7546  2.5450
13205TIP3    H261107   2.888   2.018  16.151 -0.0126 -1.1881 -1.0985
13206TIP3   OH261108   3.995   0.706   0.250 -0.0582 -0.5072  0.0694
13206TIP3    H161109   3.947   0.632   0.212 -0.3271 -0.9344  1.1979
13206TIP3    H261110   4.008   0.681   0.342  1.1889  0.1767  0.1013
13207TIP3   OH261111   0.542   4.477   1.828 -0.2323  0.5736  0.5076
13207TIP3    H161112   0.504   4.416   1.891  1.9671 -0.8941  0.5314
13207TIP3    H261113   0.536   4.431   1.744  0.6005  0.7139  0.3615
13208TIP3   OH261114   3.284   0.643  11.652 -0.5883 -0.0289 -0.5852
13208TIP3    H161115   3.349   0.573  11.646  0.1632  0.7288 -1.5234
13208TIP3    H261116   3.326   0.711  11.703 -1.9849 -0.9268  1.9385
13209TIP3   OH261117   6.392   2.615  15.802  0.5033  0.3513  0.6171
13209TIP3    H161118   6.363   2.667  15.877  0.8985  2.2372 -0.4697
13209TIP3    H261119   6.391   2.525  15.833 -3.0621  0.6366  1.7081
13210TIP3   OH261120   5.111   6.145  12.260 -0.0069  0.2923  0.1225
13210TIP3    H161121   5.080   6.065  12.218  3.1391  0.5574 -3.1984
13210TIP3    H261122   5.035   6.204  12.259 -1.4129 -1.4358 -0.5830
13211TIP3   OH261123   3.843   5.134   1.775  0.3302  0.1363 -0.4470
13211TIP3    H161124   3.847   5.065   1.841  0.6003  0.1642 -0.4349
13211TIP3    H261125   3.933   5.145   1.745  0.2301  0.2217 -0.7199
13212TIP3   OH261126   2.034   1.655   0.199 -0.1722  0.3592  0.3321
13212TIP3    H161127   2.083   1.641   0.118  0.1132 -2.1510  0.8358
13212TIP3    H261128   2.100   1.649   0.268 -0.7551 -0.0547  0.8644
13213TIP3   OH261129   1.951   6.487   6.430 -0.1925 -0.0861 -0.3392
13213TIP3    H161130   2.038   6.448   6.421 -0.0544  0.3143 -0.7830
13213TIP3    H261131   1.923   6.463   6.518  1.1501  1.3550  0.5332
13214TIP3   OH261132   1.292   3.830  13.451  0.7444  0.9193 -0.0724
13214TIP3    H161133   1.303   3.834  13.356  1.7554  1.4927  0.0504
13214TIP3    H261134   1.305   3.737  13.472 -1.2591  0.4638 -0.6627
13215TIP3   OH261135   1.537   4.010  14.547 -0.9872  0.3277  0.3510
13215TIP3    H161136   1.541   3.961  14.629  1.1122 -2.8950 -1.4370
13215TIP3    H261137   1.623   4.050  14.538 -2.0383  2.8916  0.8287
13216TIP3   OH261138   3.768   6.803   5.972  0.2862 -0.1676  0.7569
13216TIP3    H161139   3.851   6.837   6.008  0.0532 -0.0808  1.2240
13216TIP3    H261140   3.792   6.720   5.931  1.1291  1.1560 -1.6314
13217TIP3   OH261141   3.587   5.619   3.255  0.6031 -0.7427 -0.7159
13217TIP3    H161142   3.581   5.691   3.193 -0.1119 -1.5872 -1.6683
13217TIP3    H261143   3.523   5.555   3.223 -0.2854 -0.9228  1.2898
13218TIP3   OH261144   5.038   1.836  10.733 -0.2649  0.1542 -0.3088
13218TIP3    H161145   5.078   1.913  10.772 -2.8306 -0.0861  3.2364
13218TIP3    H261146   4.996   1.868  10.653 -1.2772  2.5425  1.0721
13219TIP3   OH261147   2.360   1.998   5.183 -0.3548  0.0123 -0.1294
13219TIP3    H161148   2.321   1.949   5.255  0.5081  1.0554  1.0964
13219TIP3    H261149   2.432   1.943   5.152  0.7084  0.5166  1.3424
13220TIP3   OH261150   0.348   5.443  16.810 -0.7035 -0.6411 -0.2441
13220TIP3    H161151   0.348   5.373  16.746  0.2739 -0.7541 -0.1276
13220TIP3    H261152   0.416   5.419  16.873  0.4520  0.9400 -0.8134
13221TIP3   OH261153   4.787   2.833   3.419 -0.6091  0.5086  0.0218
13221TIP3    H161154   4.780   2.927   3.437 -0.8243  0.2822  1.1619
13221TIP3    H261155   4.732   2.820   3.342 -1.2163  1.1858  0.3283
13222TIP3   OH261156   3.305   0.276   0.567  0.2782  0.2799  0.5457
13222TIP3    H161157   3.309   0.270   0.662 -0.2935  0.0210  0.5575
13222TIP3    H261158   3.261   0.196   0.539  2.0954 -0.5637 -0.0815
13223TIP3   OH261159   2.644   5.251   1.080  0.3688  0.1621  0.1816
13223TIP3    H161160   2.667   5.286   0.995 -1.6904 -0.5417 -0.7310
13223TIP3    H261161   2.669   5.158   1.075 -0.3742 -0.0405  0.0637
13224TIP3   OH261162   5.021   2.524   5.403  0.0307  0.1326  0.0973
13224TIP3    H161163   5.030   2.619   5.416 -0.1683  0.3389 -1.1466
13224TIP3    H261164   5.015   2.513   5.308  0.4516 -1.1724  0.2028
13225TIP3   OH261165   1.360   2.775  14.100  0.6727 -0.4005 -0.1971
13225TIP3    H161166   1.391   2.693  14.137  0.7408  0.2639  1.3168
13225TIP3    H261167   1.395   2.842  14.159  1.4388  0.7957 -1.9386
13226TIP3   OH261168   0.829   3.834  11.960  0.0146 -0.1403 -0.0936
13226TIP3    H161169   0.923   3.844  11.976  0.4462 -1.1256 -1.7673
13226TIP3    H261170   0.792   3.918  11.985  1.5877  0.8783 -0.9470
13227TIP3   OH261171   6.170   0.626  12.551  0.4109  0.1300 -0.6066
13227TIP3    H161172   6.175   0.703  12.608  1.6866  0.8453 -1.6192
13227TIP3    H261173   6.098   0.574  12.587  1.2768  0.4418  1.7414
13228TIP3   OH261174   6.554   0.828   2.699  0.1304  0.1116 -0.2196
13228TIP3    H161175   6.609   0.899   2.732  0.3513 -0.1728  0.0248
13228TIP3    H261176   6.609   0.783   2.635  0.5202 -0.7402  0.6953
13229TIP3   OH261177   2.077   1.911   4.880  0.0697  0.0538 -1.0765
13229TIP3    H161178   2.098   1.945   4.793 -0.9280 -1.0171 -1.7771
13229TIP3    H261179   2.101   1.981   4.941 -0.9302  1.5682 -2.3505
13230TIP3   OH261180   3.908   1.376  15.154 -0.1475 -0.4199 -0.4213
13230TIP3    H161181   3.960   1.311  15.200  1.8427  0.3404 -1.4838
13230TIP3    H261182   3.818   1.346  15.164  0.4732 -1.8704  1.3543
13231TIP3   OH261183   6.199   4.235   3.708  0.0849  0.3184 -0.4051
13231TIP3    H161184   6.197   4.266   3.618  0.1365  0.1005 -0.4802
13231TIP3    H261185   6.282   4.266   3.743 -0.2767  1.0852 -0.1914
13232TIP3   OH261186   3.318   6.784  16.327  0.1565 -0.3899 -0.1758
13232TIP3    H161187   3.232   6.766  16.366 -0.6587 -0.2068 -1.7742
13232TIP3    H261188   3.312   6.876  16.300  0.4502 -0.6731 -1.2448
13233TIP3   OH261189   2.507   5.958   4.046 -0.2737  0.0255 -0.1367
13233TIP3    H161190   2.550   5.961   4.132  1.0190  1.7263 -0.7990
13233TIP3    H261191   2.472   6.046   4.034 -1.1499 -0.4276 -1.0348
13234TIP3   OH261192   2.893   1.336  15.176 -0.1633 -0.2978  0.4693
13234TIP3    H161193   2.800   1.313  15.178 -0.2778 -0.2232 -1.6158
13234TIP3    H261194   2.894   1.430  15.161  0.1941 -0.4713 -0.7682
13235TIP3   OH261195   2.232   3.006  13.973  0.0155  0.0255  0.1838
13235TIP3    H161196   2.253   3.087  13.926  1.5729 -0.9610 -0.9135
13235TIP3    H261197   2.178   2.957  13.912 -1.3463  0.4222  1.0447
13236TIP3   OH261198   4.628   2.806  14.902 -0.0997  0.3770  0.6470
13236TIP3    H161199   4.603   2.735  14.961 -0.5587 -0.0479 -0.0460
13236TIP3    H261200   4.687   2.766  14.839 -0.8221  0.4586 -0.1027
13237TIP3   OH261201   5.956   2.131   2.872  0.0701 -0.5243 -0.3402
13237TIP3    H161202   5.861   2.133   2.863  0.0275  0.3312  0.1670
13237TIP3    H261203   5.988   2.155   2.785 -0.2862  3.6864  0.4729
13238TIP3   OH261204   0.234   4.079  16.712  0.4859 -0.3785  0.5542
13238TIP3    H161205   0.231   4.010  16.646 -0.3279  0.4585 -0.3134
13238TIP3    H261206   0.302   4.139  16.682  0.0126  0.0814  0.4015
13239TIP3   OH261207   1.908   0.996  15.921  0.1081 -0.0790 -0.0372
13239TIP3    H161208   1.841   0.930  15.943  0.7191  0.0333  2.5805
13239TIP3    H261209   1.922   0.986  15.827 -3.2477 -0.4059 -0.6330
13240TIP3   OH261210   4.184   2.460   5.609  0.3257 -0.3038 -0.1665
13240TIP3    H161211   4.164   2.461   5.703 -1.2349  0.6303 -0.4770
13240TIP3    H261212   4.268   2.506   5.602  0.2753 -0.0630  0.7249
13241TIP3   OH261213   4.628   2.504  14.007 -0.3762 -0.1713 -0.5528
13241TIP3    H161214   4.660   2.430  13.956 -0.2541 -0.5064  0.0024
13241TIP3    H261215   4.606   2.467  14.093 -1.5919  0.1823 -0.6901
13242TIP3   OH261216   2.601   2.179   2.431 -0.0069  0.4273  0.1064
13242TIP3    H161217   2.541   2.105   2.436  0.8015 -0.3033 -0.7386
13242TIP3    H261218   2.579   2.221   2.348 -0.8258  1.4880  0.8242
13243TIP3   OH261219   2.708   3.100  12.290  0.0026  0.0342 -0.1338
13243TIP3    H161220   2.736   3.053  12.368 -1.3229  0.5995  0.7129
13243TIP3    H261221   2.619   3.069  12.274  0.3063 -0.1855 -1.5235
13244TIP3   OH261222   1.591   4.464  12.834  0.0635  0.0110  0.0270
13244TIP3    H161223   1.634   4.510  12.762 -1.0260  0.1271 -0.5701
13244TIP3    H261224   1.503   4.501  12.837 -0.4867 -1.2543  0.2528
13245TIP3   OH261225   4.986   1.305  14.377  0.3313  0.1065 -0.3595
13245TIP3    H161226   4.976   1.247  14.453  0.6774 -0.0696 -0.4492
13245TIP3    H261227   5.080   1.323  14.373  0.3019  0.1728 -0.7052
13246TIP3   OH261228   1.538   2.167   6.353  0.1881 -0.0610 -0.2426
13246TIP3    H161229   1.530   2.112   6.431 -1.1906  0.5383  0.0849
13246TIP3    H261230   1.623   2.145   6.316  1.2013  0.1343  1.8214
13247TIP3   OH261231   4.943   0.958  15.171 -0.0986 -0.1648  0.1400
13247TIP3    H161232   4.883   1.031  15.156  1.6306  0.7816 -3.2383
13247TIP3    H261233   4.913   0.918  15.252 -3.7392  1.7030 -0.0930
13248TIP3   OH261234   5.917   0.480   0.189 -0.6822  0.5424 -0.0419
13248TIP3    H161235   5.942   0.423   0.262  1.3241  1.3227 -0.0743
13248TIP3    H261236   5.984   0.465   0.123 -1.8342  0.7137 -1.2996
13249TIP3   OH261237   0.435   2.331  10.726 -0.0213 -0.4970 -0.6648
13249TIP3    H161238   0.524   2.323  10.692  0.4692 -1.1089  0.6940
13249TIP3    H261239   0.398   2.243  10.717 -0.3858 -0.3273 -0.8952
13250TIP3   OH261240   0.270   3.008   5.218 -0.0048  0.0857  0.0771
13250TIP3    H161241   0.329   3.008   5.293  0.4170  1.9894 -0.2168
13250TIP3    H261242   0.326   3.028   5.143 -0.8862  1.1484 -0.3176
13251TIP3   OH261243   2.168   4.825   4.198  0.7202 -0.3904 -0.3356
13251TIP3    H161244   2.264   4.829   4.201  0.6833  0.4439 -0.1227
13251TIP3    H261245   2.149   4.783   4.115  1.2635  0.0907 -0.7131
13252TIP3   OH261246   4.752   5.534   3.812  0.3901 -0.5381  0.2206
13252TIP3    H161247   4.770   5.440   3.813  0.1626 -0.6215 -1.1932
13252TIP3    H261248   4.749   5.559   3.904 -1.4598 -2.3030  0.7158
13253TIP3   OH261249   3.707   0.851   4.086 -0.2817 -0.0736 -0.0764
13253TIP3    H161250   3.650   0.873   4.012 -0.4890  1.4112  0.4823
13253TIP3    H261251   3.718   0.756   4.080  1.1652  0.1585 -3.0647
13254TIP3   OH261252   5.183   5.807   2.764 -0.2222 -0.0604  0.2266
13254TIP3    H161253   5.276   5.827   2.750 -0.0233 -0.3850  1.0136
13254TIP3    H261254   5.155   5.869   2.831 -0.9723  1.0090 -1.0347
13255TIP3   OH261255   5.102   5.852  15.155  0.6601  0.3225 -0.6635
13255TIP3    H161256   5.037   5.896  15.100  0.3588  1.1784  0.3377
13255TIP3    H261257   5.164   5.921  15.178  0.4231  0.1495  0.5883
13256TIP3   OH261258   0.465   4.393  11.823  0.1071  0.4382  0.1076
13256TIP3    H161259   0.462   4.447  11.744  0.6611 -0.4765 -0.5740
13256TIP3    H261260   0.505   4.311  11.793 -0.5085 -0.2597  1.1520
13257TIP3   OH261261   1.748   1.403  13.024  0.2087 -0.3445  0.1576
13257TIP3    H161262   1.723   1.471  13.087  0.9108 -0.3217  0.4221
13257TIP3    H261263   1.776   1.329  13.078  0.0979 -0.5924 -0.1268
13258TIP3   OH261264   0.978   1.920   0.531 -0.0518  0.0841  0.3490
13258TIP3    H161265   1.012   1.838   0.496 -0.3519 -0.6220  1.6484
13258TIP3    H261266   1.032   1.988   0.492 -0.8016 -0.5858 -2.0065
13259TIP3   OH261267   0.244   3.499  12.553  0.5515 -0.7327 -1.0349
13259TIP3    H161268   0.163   3.467  12.593  0.5393  0.1406 -0.3290
13259TIP3    H261269   0.288   3.420  12.522  0.8465 -1.5526  1.2375
13260TIP3   OH261270   4.834   5.871  13.991  0.4895  0.1692  0.0374
13260TIP3    H161271   4.912   5.815  14.001 -0.0701 -0.6235  0.1229
13260TIP3    H261272   4.809   5.893  14.081  0.5655  0.3520  0.0134
13261TIP3   OH261273   2.402   0.535   2.835 -0.2922  0.3869  0.5678
13261TIP3    H161274   2.401   0.514   2.741 -0.8037  0.7474  0.4852
13261TIP3    H261275   2.310   0.529   2.861 -0.4119  2.1599  0.6198
13262TIP3   OH261276   1.076   5.835   3.912  0.5748 -0.0493 -0.0169
13262TIP3    H161277   1.140   5.791   3.968  1.2340 -1.6727 -1.9300
13262TIP3    H261278   1.065   5.921   3.951  2.4361 -0.4333  1.4894
13263TIP3   OH261279   5.242   5.669  16.812 -0.4387  0.2651  0.1597
13263TIP3    H161280   5.328   5.708  16.827 -0.7071  0.5429  1.0737
13263TIP3    H261281   5.234   5.603  16.881 -0.6217 -0.3470 -0.4332
13264TIP3   OH261282   4.662   1.299  11.617  0.2443  0.8261  0.2594
13264TIP3    H161283   4.570   1.322  11.604 -0.8320 -1.4889  2.6783
13264TIP3    H261284   4.680   1.324  11.708  1.3286 -0.6045  0.4775
13265TIP3   OH261285   1.799   4.132  14.982  0.4309  0.1318 -0.0227
13265TIP3    H161286   1.881   4.122  15.031  1.3002  0.2305 -1.3877
13265TIP3    H261287   1.783   4.226  14.980 -0.8751  0.0164  1.9916
13266TIP3   OH261288   3.755   6.727   5.577  0.0436 -0.6492 -0.1694
13266TIP3    H161289   3.663   6.739   5.555  0.1046 -0.4167 -0.3015
13266TIP3    H261290   3.802   6.783   5.516  0.1604  0.8134  1.2127
13267TIP3   OH261291   6.618   6.271  13.696 -0.0243  0.1863 -0.0348
13267TIP3    H161292   6.565   6.229  13.764  1.5021 -2.3660 -0.2840
13267TIP3    H261293   6.693   6.307  13.744  1.0751 -1.6530 -0.2785
13268TIP3   OH261294   0.197   0.118  14.173  0.4540 -0.0342 -0.3053
13268TIP3    H161295   0.212   0.143  14.264  0.7717  1.7512 -0.8080
13268TIP3    H261296   0.104   0.136  14.158  0.5516  0.3020 -0.5137
13269TIP3   OH261297   1.552   2.169   3.777 -0.2067 -0.1350  0.1295
13269TIP3    H161298   1.629   2.194   3.725  0.2172 -0.1439  0.7380
13269TIP3    H261299   1.589   2.134   3.858 -0.8814  1.3965  1.1348
13270TIP3   OH261300   4.977   3.187   2.674  0.2975 -0.0643  0.1193
13270TIP3    H161301   4.889   3.178   2.637 -1.4617 -0.9843  3.9868
13270TIP3    H261302   4.999   3.279   2.660 -0.2625 -0.2484 -2.7182
13271TIP3   OH261303   1.824   4.566  15.175 -0.1430 -0.1845 -0.2137
13271TIP3    H161304   1.876   4.545  15.253  0.5988 -0.1174 -0.6779
13271TIP3    H261305   1.842   4.659  15.159  0.1672 -0.3361 -0.7874
13272TIP3   OH261306   0.675   6.444  12.288  0.4655 -0.2475  0.3323
13272TIP3    H161307   0.584   6.425  12.265  1.5215 -1.1082 -3.8198
13272TIP3    H261308   0.681   6.540  12.283  0.0850 -0.2700 -0.8953
13273TIP3   OH261309   5.243   3.885  14.938 -0.3453 -0.2107 -0.0028
13273TIP3    H161310   5.284   3.965  14.905  0.9555 -1.0542 -0.5133
13273TIP3    H261311   5.212   3.908  15.025  0.2607  0.7677 -0.0323
13274TIP3   OH261312   4.409   6.515   0.964  0.6505 -0.2758 -0.0677
13274TIP3    H161313   4.485   6.540   1.016  0.6169  1.6487 -0.8637
13274TIP3    H261314   4.445   6.462   0.893  1.0362 -0.6928  0.4327
13275TIP3   OH261315   2.530   3.554   0.185  0.0669  0.0252 -0.1075
13275TIP3    H161316   2.452   3.610   0.192 -0.2964 -0.2829 -1.3765
13275TIP3    H261317   2.500   3.478   0.136  0.4889 -1.4570  1.8390
13276TIP3   OH261318   0.971   0.373   2.756 -0.0456  0.6058 -0.1354
13276TIP3    H161319   1.049   0.319   2.770 -0.6697  0.0210  1.2343
13276TIP3    H261320   0.949   0.360   2.664 -0.1455 -1.4620  0.1348
13277TIP3   OH261321   6.690   3.508  14.357  0.4223 -0.5353 -0.3866
13277TIP3    H161322   6.670   3.522  14.265 -0.9574  1.0665  0.1217
13277TIP3    H261323   6.614   3.541  14.404  2.3465  1.6582  1.4537
13278TIP3   OH261324   6.787   2.453   3.417 -0.1235  0.0452  0.2643
13278TIP3    H161325   6.824   2.416   3.497  0.1241  0.4117  0.3202
13278TIP3    H261326   6.807   2.546   3.422  0.3866 -0.0104 -0.4885
13279TIP3   OH261327   0.586   5.476   4.775 -0.2091  0.7019 -0.4239
13279TIP3    H161328   0.666   5.474   4.722  0.2569 -0.6680  0.2766
13279TIP3    H261329   0.617   5.498   4.863 -0.6648  0.6070 -0.2398
13280TIP3   OH261330   6.690   6.290  14.588 -0.4994 -0.2939  0.0011
13280TIP3    H161331   6.614   6.267  14.534  0.6212 -1.8022 -1.0231
13280TIP3    H261332   6.708   6.382  14.567 -0.0784 -0.8263 -2.2935
13281TIP3   OH261333   2.071   0.846   1.272 -0.2916 -0.3526  0.1324
13281TIP3    H161334   2.051   0.938   1.251 -0.9785 -0.7521 -1.0269
13281TIP3    H261335   2.164   0.846   1.293 -0.3275  0.6443  0.3403
13282TIP3   OH261336   1.696   1.683  12.645  0.1172 -0.2148  0.5447
13282TIP3    H161337   1.725   1.596  12.673  0.2408 -0.4177 -0.1792
13282TIP3    H261338   1.630   1.666  12.577 -1.6994  0.2442  2.1054
13283TIP3   OH261339   2.150   5.837   4.461 -0.0918  0.7132 -0.2652
13283TIP3    H161340   2.176   5.777   4.391  0.3084  0.9972 -0.3622
13283TIP3    H261341   2.066   5.873   4.432  0.4781  1.4774 -1.0146
13284TIP3   OH261342   5.663   0.637  12.100 -0.0756 -0.7945 -0.2865
13284TIP3    H161343   5.676   0.688  12.019 -1.5232 -1.5335 -1.0313
13284TIP3    H261344   5.586   0.678  12.141  0.1391 -0.9619  0.2870
13285TIP3   OH261345   1.576   2.266   1.083  0.4140 -0.8222 -0.2205
13285TIP3    H161346   1.514   2.202   1.050  0.9987 -1.3977 -0.2171
13285TIP3    H261347   1.656   2.251   1.032 -0.0647  1.3074 -1.7424
13286TIP3   OH261348   3.132   1.531  16.548  0.2569 -0.1951  0.1625
13286TIP3    H161349   3.135   1.453  16.493  2.1835  0.1520 -0.2891
13286TIP3    H261350   3.057   1.517  16.606 -0.3282 -1.6848 -0.9068
13287TIP3   OH261351   2.880   0.871   1.198 -0.0186  0.5855 -0.8542
13287TIP3    H161352   2.930   0.925   1.259  0.6438 -1.2276  0.3042
13287TIP3    H261353   2.834   0.808   1.254 -0.6515 -0.1436 -2.1378
13288TIP3   OH261354   5.740   1.513   0.382 -0.0351  0.9196  0.1787
13288TIP3    H161355   5.820   1.535   0.430  0.9325  0.2278 -1.0838
13288TIP3    H261356   5.769   1.497   0.292 -1.6572  1.0880 -0.4029
13289TIP3   OH261357   2.173   0.414  15.458 -0.6928  0.5382  0.1828
13289TIP3    H161358   2.191   0.343  15.520  1.1244  0.3679 -0.5109
13289TIP3    H261359   2.091   0.453  15.490  1.0158  1.6244  3.8119
13290TIP3   OH261360   2.438   1.596   3.291  0.0948  0.0986 -0.1816
13290TIP3    H161361   2.354   1.579   3.249 -0.2559  2.3202 -0.5388
13290TIP3    H261362   2.416   1.646   3.370  1.0498  0.9324 -0.4066
13291TIP3   OH261363   0.826   3.470  11.363 -0.4017 -1.1305  0.1024
13291TIP3    H161364   0.820   3.495  11.271  2.5477 -1.0097 -0.1557
13291TIP3    H261365   0.751   3.513  11.405 -0.6533  0.5252 -1.8952
13292TIP3   OH261366   6.223   3.499   1.820 -0.6002 -0.4121  0.2375
13292TIP3    H161367   6.225   3.569   1.755  1.0458  0.8163  1.5393
13292TIP3    H261368   6.286   3.434   1.788  0.1174  0.1342  0.5142
13293TIP3   OH261369   1.009   0.285  16.086  0.5190  0.3945 -0.0901
13293TIP3    H161370   1.049   0.371  16.102  1.2131 -0.1510  1.3614
13293TIP3    H261371   0.964   0.265  16.168 -0.8629 -0.0134 -0.9211
13294TIP3   OH261372   1.623   3.914  13.302 -0.3678 -0.0469 -0.2366
13294TIP3    H161373   1.701   3.893  13.353  0.5504  0.8968 -1.2061
13294TIP3    H261374   1.582   3.829  13.284  1.4132 -0.7371 -1.2355
13295TIP3   OH261375   1.173   3.326   3.162 -0.1951 -0.1597  0.2610
13295TIP3    H161376   1.245   3.381   3.131 -0.4986 -0.2052 -0.5639
13295TIP3    H261377   1.156   3.267   3.089 -1.5925  0.3724  0.1396
13296TIP3   OH261378   2.497   0.660   4.824  0.1613 -0.0665  0.4606
13296TIP3    H161379   2.590   0.681   4.815  0.3494 -1.2139 -0.5511
13296TIP3    H261380   2.467   0.646   4.734 -1.1670  0.9351  0.7235
13297TIP3   OH261381   6.713   6.672   6.196  0.0261 -0.2843 -0.9467
13297TIP3    H161382   6.733   6.747   6.253 -0.8760 -1.4909  1.0669
13297TIP3    H261383   6.795   6.653   6.152  0.2204  2.0179 -1.7115
13298TIP3   OH261384   1.254   2.639   0.628  0.2570 -0.5310 -0.1264
13298TIP3    H161385   1.280   2.636   0.720 -0.6953 -0.0714  0.1621
13298TIP3    H261386   1.332   2.608   0.581  0.5483 -1.3668  0.8600
13299TIP3   OH261387   6.092   5.702   3.227  0.4672  0.4693 -0.8076
13299TIP3    H161388   6.118   5.657   3.146  1.7766  3.1182 -1.9838
13299TIP3    H261389   6.172   5.745   3.257 -0.5712  1.5959  0.4801
13300TIP3   OH261390   1.151   0.754   0.152 -1.0741 -0.4682 -0.1145
13300TIP3    H161391   1.149   0.685   0.218  1.5307  0.0614  0.6463
13300TIP3    H261392   1.103   0.827   0.192 -0.1414 -0.4032  0.9240
13301TIP3   OH261393   1.955   1.253   5.512 -0.4794 -0.1429 -0.1923
13301TIP3    H161394   1.919   1.341   5.497  0.1066  0.5894  2.1899
13301TIP3    H261395   2.048   1.262   5.489 -0.5030 -0.2368 -0.3205
13302TIP3   OH261396   2.306   5.074  15.243  0.1331 -0.1845 -0.0137
13302TIP3    H161397   2.222   5.029  15.233  0.3071 -0.3492 -0.8054
13302TIP3    H261398   2.313   5.129  15.165 -0.4279  1.8210  1.2898
13303TIP3   OH261399   3.947   2.995  10.672  0.3425 -0.4678  0.6347
13303TIP3    H161400   3.945   2.919  10.614  0.4240 -0.7229  0.9596
13303TIP3    H261401   3.998   3.061  10.625  1.9820 -1.3041  1.1587
13304TIP3   OH261402   2.022   1.573  13.635  0.3078  0.0935 -0.3659
13304TIP3    H161403   2.031   1.556  13.541 -0.8115  0.8515 -0.6325
13304TIP3    H261404   2.070   1.502  13.677  1.7617  0.3522 -1.5231
13305TIP3   OH261405   4.334   6.218  15.230 -0.0473  0.4479  0.5141
13305TIP3    H161406   4.261   6.234  15.289 -3.1647  0.5697 -2.9458
13305TIP3    H261407   4.345   6.300  15.181 -0.0303 -0.6087 -1.3740
13306TIP3   OH261408   0.001   3.621   0.999  0.4345  0.5100 -0.0668
13306TIP3    H161409  -0.024   3.672   0.922  1.1870  0.0592 -0.6122
13306TIP3    H261410   0.078   3.572   0.972 -0.5118 -1.2514  0.3068
13307TIP3   OH261411   5.716   1.341  14.671  0.3036 -0.1357 -0.0959
13307TIP3    H161412   5.731   1.426  14.630 -0.5616  0.4196  0.7044
13307TIP3    H261413   5.689   1.362  14.760  0.8408 -1.2827  0.3478
13308TIP3   OH261414   4.035   3.350  13.610 -0.3040 -0.5236 -0.0488
13308TIP3    H161415   4.038   3.416  13.680 -1.2642  0.9478 -1.3186
13308TIP3    H261416   3.944   3.320  13.610 -0.1121 -1.1086 -0.1501
13309TIP3   OH261417   3.372   1.883   2.876 -0.3102 -0.2364 -0.6786
13309TIP3    H161418   3.418   1.889   2.792 -1.6988 -2.1440 -1.6414
13309TIP3    H261419   3.370   1.973   2.908  1.6724  0.3056 -1.8826
13310TIP3   OH261420   3.141   2.263  14.608  0.2481  0.4038 -0.3318
13310TIP3    H161421   3.088   2.338  14.584  0.3472  0.9496  1.0740
13310TIP3    H261422   3.094   2.222  14.681  1.3663  0.4817  0.4593
13311TIP3   OH261423   5.358   1.481   0.131 -0.0217 -0.5074  0.1737
13311TIP3    H161424   5.283   1.503   0.187 -0.6177 -2.6131  0.3154
13311TIP3    H261425   5.409   1.420   0.184  2.0341  1.1659  0.2122
13312TIP3   OH261426   0.215   1.852   4.240 -0.2128 -0.2089 -0.0455
13312TIP3    H161427   0.170   1.905   4.306  0.1284  1.1971 -0.9077
13312TIP3    H261428   0.161   1.773   4.232 -1.2128  0.3817  0.6537
13313TIP3   OH261429   1.665   0.563  11.539 -0.4400  0.5964 -0.2152
13313TIP3    H161430   1.638   0.471  11.533  2.6657 -0.4183 -0.1143
13313TIP3    H261431   1.591   0.612  11.503 -0.9629 -2.1489 -3.2813
13314TIP3   OH261432   6.151   2.913  11.063  0.0481 -0.0596  0.2298
13314TIP3    H161433   6.112   2.933  10.978  1.2699  1.5456 -0.0022
13314TIP3    H261434   6.076   2.907  11.123 -0.7011  0.9706 -0.5617
13315TIP3   OH261435   5.610   0.326  17.133  0.2460  0.0456  0.1061
13315TIP3    H161436   5.651   0.271  17.066  2.3674  0.0075  1.3203
13315TIP3    H261437   5.553   0.266  17.181  0.0391 -0.3267 -0.5993
13316TIP3   OH261438   2.383   4.190   3.842  0.8653  0.2407 -0.2691
13316TIP3    H161439   2.380   4.259   3.776  1.2063  2.5317  1.9836
13316TIP3    H261440   2.473   4.158   3.839  0.9072  0.4004 -0.8289
13317TIP3   OH261441   1.654   6.544  17.012 -0.2554  0.1772 -0.2931
13317TIP3    H161442   1.699   6.521  16.931 -0.1520 -0.0061 -0.1883
13317TIP3    H261443   1.703   6.619  17.046  1.5214 -1.4784  1.0436
13318TIP3   OH261444   3.043   3.972   1.734 -0.1133 -0.1861 -0.6071
13318TIP3    H161445   3.094   4.053   1.738  0.1249 -0.2059 -2.4086
13318TIP3    H261446   2.956   3.997   1.766  0.7833  0.0183  1.8022
13319TIP3   OH261447   1.050   1.782  13.855  0.9163  1.0188 -0.5840
13319TIP3    H161448   1.026   1.821  13.939  1.1445  0.5731 -0.3109
13319TIP3    H261449   1.146   1.775  13.859  0.7520 -2.0428  0.4897
13320TIP3   OH261450   4.407   4.465   2.745  0.2677 -0.5815  0.6196
13320TIP3    H161451   4.390   4.398   2.811  1.5420 -1.2754  0.2804
13320TIP3    H261452   4.323   4.478   2.701 -0.4943 -0.4309  2.0527
13321TIP3   OH261453   6.243   6.392   4.728  0.8358 -0.2218  0.4624
13321TIP3    H161454   6.223   6.313   4.678  1.0567  0.2647 -0.4090
13321TIP3    H261455   6.181   6.390   4.801  1.5400 -1.7466  1.0650
13322TIP3   OH261456   6.113   2.584   6.189 -0.1290  0.6110 -0.3141
13322TIP3    H161457   6.154   2.665   6.156 -0.8707  1.2902  0.3808
13322TIP3    H261458   6.021   2.608   6.203 -0.3024 -0.2854  0.1485
13323TIP3   OH261459   2.158   5.305  13.086 -0.1272  0.1046  0.6171
13323TIP3    H161460   2.073   5.280  13.051 -0.3116  2.3382 -0.7457
13323TIP3    H261461   2.138   5.349  13.168 -0.0813 -1.0744  1.2834
13324TIP3   OH261462   6.153   2.293  16.112 -0.2074 -0.4718 -0.1621
13324TIP3    H161463   6.179   2.302  16.021  0.1947  1.1596  0.0716
13324TIP3    H261464   6.058   2.288  16.110 -0.1601 -1.3253 -0.7126
13325TIP3   OH261465   6.616   3.862  12.100 -0.4283 -0.2075  0.2422
13325TIP3    H161466   6.605   3.915  12.021 -0.1583 -1.4865 -0.6996
13325TIP3    H261467   6.553   3.791  12.091  1.2636 -1.7513 -0.0794
13326TIP3   OH261468   6.110   5.764  10.693 -0.5609 -0.1259  0.0631
13326TIP3    H161469   6.048   5.723  10.633  1.2836 -0.1008 -2.0078
13326TIP3    H261470   6.097   5.718  10.776 -2.5230 -0.8845 -0.6093
13327TIP3   OH261471   5.876   2.080  16.544 -0.1444 -0.2460 -1.0360
13327TIP3    H161472   5.924   2.080  16.461  0.6296 -0.0869 -0.6012
13327TIP3    H261473   5.864   2.172  16.566  1.1848 -0.2614 -0.1272
13328TIP3   OH261474   6.405   3.273  16.136 -0.2951  0.3799  0.7172
13328TIP3    H161475   6.331   3.236  16.182  0.3817 -0.2334  1.3413
13328TIP3    H261476   6.475   3.278  16.202  0.1670  1.1172  0.1986
13329TIP3   OH261477   2.186   5.814  15.871  0.3292  0.2098  0.1654
13329TIP3    H161478   2.254   5.785  15.810 -1.0483  0.1699 -1.4006
13329TIP3    H261479   2.145   5.888  15.827 -0.5208  0.3534  1.1770
13330TIP3   OH261480   1.098   3.543   5.913  0.3504  0.6572 -0.2873
13330TIP3    H161481   1.085   3.508   5.825  0.6493  0.9206 -0.4371
13330TIP3    H261482   1.047   3.624   5.915 -2.3423 -0.9605  0.8400
13331TIP3   OH261483   1.520   2.486  11.661  0.3792  0.0478  0.0808
13331TIP3    H161484   1.502   2.421  11.594 -1.0645 -0.5328  0.9732
13331TIP3    H261485   1.436   2.529  11.675  0.5056 -0.2161  1.8720
13332TIP3   OH261486   3.190   0.407   4.155 -0.1734 -0.3229  0.8858
13332TIP3    H161487   3.226   0.389   4.242  0.4531 -0.5394  0.5875
13332TIP3    H261488   3.197   0.324   4.108  0.2276 -0.0093  0.3779
13333TIP3   OH261489   2.769   2.109  10.649  0.0095  0.4106 -0.6754
13333TIP3    H161490   2.810   2.144  10.729  0.9027 -1.5481 -0.2119
13333TIP3    H261491   2.752   2.186  10.595  1.4644  1.5926  0.4600
13334TIP3   OH261492   2.904   4.615   2.244 -0.3383 -0.1411 -0.2572
13334TIP3    H161493   2.967   4.599   2.173 -0.1307  1.6213 -0.5287
13334TIP3    H261494   2.922   4.705   2.272 -1.2413 -0.3796  1.2150
13335TIP3   OH261495   4.914   3.404  14.900 -0.6178  0.2646  0.7125
13335TIP3    H161496   4.860   3.325  14.907 -1.3395  0.8037  1.3164
13335TIP3    H261497   4.926   3.416  14.805 -1.9164  0.3749  0.5409
13336TIP3   OH261498   5.902   6.701   2.027 -0.6198  0.4003 -0.1247
13336TIP3    H161499   5.903   6.791   1.995  0.4924  0.3175 -0.3408
13336TIP3    H261500   5.983   6.691   2.078 -1.1238 -0.2365  0.5932
13337TIP3   OH261501   5.570   5.571   1.698  0.0961 -0.3165  0.3592
13337TIP3    H161502   5.563   5.631   1.623 -0.7275 -0.6053  0.1941
13337TIP3    H261503   5.553   5.484   1.661 -0.2364 -0.4721  0.8620
13338TIP3   OH261504   0.690   4.687   2.347 -0.3942  0.1198 -0.1693
13338TIP3    H161505   0.757   4.639   2.397  0.0697 -0.2837 -1.1535
13338TIP3    H261506   0.627   4.620   2.322 -2.1260  0.7359  2.1558
13339TIP3   OH261507   6.360   5.097   0.436  0.4652  0.4192  0.2278
13339TIP3    H161508   6.442   5.140   0.415  0.4743  0.9116  1.2157
13339TIP3    H261509   6.293   5.164   0.423  0.3073  0.2651  0.2375
13340TIP3   OH261510   2.412   2.999  14.427  0.0934  0.4841  0.5192
13340TIP3    H161511   2.475   3.030  14.361 -0.5602 -2.6432 -1.8400
13340TIP3    H261512   2.343   3.066  14.427  1.0237  1.4981 -0.5824
13341TIP3   OH261513   3.317   2.576   0.706 -0.3810  0.4603 -0.0305
13341TIP3    H161514   3.383   2.641   0.732  0.2785 -0.3808  0.4286
13341TIP3    H261515   3.244   2.591   0.767  0.1511  0.1592  0.6920
13342TIP3   OH261516   3.068   0.470  11.590  0.7651 -0.3045 -0.1250
13342TIP3    H161517   3.007   0.517  11.648  0.5797 -0.2867 -0.3332
13342TIP3    H261518   3.152   0.513  11.604  0.3826  0.8094 -1.1273
13343TIP3   OH261519   0.410   0.652   0.838 -0.1470 -0.6405  0.3349
13343TIP3    H161520   0.323   0.669   0.873  0.4013 -0.2809  1.5792
13343TIP3    H261521   0.451   0.594   0.903  1.5909  1.5971  1.3487
13344TIP3   OH261522   3.442   5.818   1.997  0.2391 -0.1247 -0.0476
13344TIP3    H161523   3.437   5.897   1.944 -0.0920  0.0192  0.1909
13344TIP3    H261524   3.457   5.850   2.086  0.8605 -0.3661 -0.0647
13345TIP3   OH261525   4.701   1.931  17.159 -0.1773  0.2273 -0.4162
13345TIP3    H161526   4.784   1.915  17.113 -0.4961  1.1500 -1.3480
13345TIP3    H261527   4.725   1.982  17.236  0.2543 -0.5657 -0.0112
13346TIP3   OH261528   1.061   4.219   3.805  0.2691  0.2906 -0.2275
13346TIP3    H161529   0.994   4.282   3.780 -0.8151  0.7556  3.2098
13346TIP3    H261530   1.023   4.134   3.784  0.7990  0.6275 -2.8451
13347TIP3   OH261531   2.138   1.370  11.475  0.0867  0.2733 -0.2921
13347TIP3    H161532   2.196   1.446  11.484 -0.4074  0.5866  0.2676
13347TIP3    H261533   2.054   1.400  11.508 -0.2554 -0.3540 -0.5886
13348TIP3   OH261534   2.948   0.470   4.062 -0.2617  0.7571  0.4773
13348TIP3    H161535   3.031   0.427   4.085 -1.3100 -0.6906  1.7856
13348TIP3    H261536   2.955   0.557   4.103  0.3706  0.4405  1.0762
13349TIP3   OH261537   5.141   4.218  11.823 -0.3661  0.6033 -0.9148
13349TIP3    H161538   5.077   4.148  11.806 -0.1359  0.2827 -0.4863
13349TIP3    H261539   5.095   4.299  11.801 -0.9886  0.3927 -0.4168
13350TIP3   OH261540   5.032   0.036   5.269  0.0997  0.0543 -0.3012
13350TIP3    H161541   5.090   0.064   5.340  0.7429  0.1419 -0.8615
13350TIP3    H261542   4.985   0.116   5.245 -0.2295 -0.0077  0.1219
13351TIP3   OH261543   4.862   1.070  16.604  0.0260 -0.1103 -0.2941
13351TIP3    H161544   4.934   1.132  16.611  0.8138 -0.9634 -0.5251
13351TIP3    H261545   4.902   0.985  16.623 -1.7163 -0.2449  3.6509
13352TIP3   OH261546   2.009   4.432  15.413 -0.2990  0.2195  0.6994
13352TIP3    H161547   2.067   4.360  15.437  0.5133  0.5266 -0.3018
13352TIP3    H261548   2.053   4.510  15.447 -0.0908  0.4567 -0.0909
13353TIP3   OH261549   3.890   0.930  12.262  0.4361 -0.1369  0.1994
13353TIP3    H161550   3.878   0.835  12.262 -0.2952 -0.0781  2.1417
13353TIP3    H261551   3.847   0.959  12.182 -1.3476 -1.2459  0.7010
13354TIP3   OH261552   6.104   3.530   1.116  0.1080  0.2134  0.2259
13354TIP3    H161553   6.138   3.616   1.090 -1.3109  0.8209  0.2799
13354TIP3    H261554   6.021   3.549   1.159 -1.1537 -1.2982 -1.4012
13355TIP3   OH261555   3.399   2.960  14.519  0.4476  0.2501  0.2770
13355TIP3    H161556   3.487   2.989  14.543  0.2747  0.1120  1.1022
13355TIP3    H261557   3.348   2.969  14.599  0.0866 -1.1765  0.2234
13356TIP3   OH261558   1.931   5.361  10.879  0.0028 -0.3791 -0.4461
13356TIP3    H161559   1.880   5.341  10.801 -0.4964 -1.5820  0.1600
13356TIP3    H261560   1.890   5.438  10.916  0.0636  0.0266 -1.2045
13357TIP3   OH261561   4.197   0.560   0.416  0.1823 -0.0612  0.5426
13357TIP3    H161562   4.149   0.609   0.484 -3.1382 -0.6606 -1.1525
13357TIP3    H261563   4.174   0.469   0.432 -0.1421 -0.2642 -0.9942
13358TIP3   OH261564   3.841   3.677   0.527 -0.1962 -0.1732  0.7938
13358TIP3    H161565   3.754   3.644   0.505 -0.5930  1.6343 -0.5704
13358TIP3    H261566   3.866   3.628   0.606 -2.1678 -1.1662  0.8607
13359TIP3   OH261567   3.632   4.089   5.644 -0.7760 -0.4370 -0.3011
13359TIP3    H161568   3.595   4.135   5.569  0.4486 -1.5991 -1.6989
13359TIP3    H261569   3.712   4.049   5.609  1.1030  0.8848  2.2069
13360TIP3   OH261570   3.044   1.442  10.992  0.0475  0.4411  0.3326
13360TIP3    H161571   3.020   1.487  10.911 -0.7603 -0.8685 -0.1861
13360TIP3    H261572   2.974   1.378  11.006  2.0128 -1.9316  0.0569
13361TIP3   OH261573   4.280   6.034   5.556 -0.0612 -0.5542 -0.0141
13361TIP3    H161574   4.286   6.129   5.569  2.2145 -0.9288  2.5455
13361TIP3    H261575   4.207   6.007   5.611 -0.9329 -0.3158 -1.0084
13362TIP3   OH261576   2.864   4.928   6.240  0.2951  0.0625 -0.5945
13362TIP3    H161577   2.803   4.859   6.268 -0.4919  0.9926  0.0567
13362TIP3    H261578   2.864   4.923   6.145 -1.6686  0.7327 -0.6831
13363TIP3   OH261579   3.409   3.788  15.994  0.0037 -0.1237 -0.3279
13363TIP3    H161580   3.353   3.796  15.917 -0.8213  0.8737  0.3478
13363TIP3    H261581   3.349   3.799  16.068  0.9829  0.1899  0.4397
13364TIP3   OH261582   3.421   2.915   4.933 -0.2399 -0.0275 -0.4173
13364TIP3    H161583   3.373   2.841   4.898 -2.2816  1.0718 -0.0860
13364TIP3    H261584   3.402   2.987   4.872 -0.1038  0.7597  0.4421
13365TIP3   OH261585   6.414   4.861  16.219 -0.4917  0.3374 -0.1830
13365TIP3    H161586   6.383   4.850  16.309  0.3406  1.0131  0.2026
13365TIP3    H261587   6.488   4.922  16.226  0.3931 -0.5670 -1.1597
13366TIP3   OH261588   1.372   2.152  11.952 -0.2192 -0.0776 -0.2864
13366TIP3    H161589   1.357   2.066  11.913 -0.1244 -1.3868  2.3840
13366TIP3    H261590   1.335   2.214  11.888 -3.2062 -2.2470 -0.8838
13367TIP3   OH261591   1.732   2.559   1.618 -0.1971 -0.3803  0.2398
13367TIP3    H161592   1.744   2.498   1.544  1.9377  0.1632  0.0744
13367TIP3    H261593   1.783   2.520   1.689  1.0534  1.0629  0.1828
13368TIP3   OH261594   5.124   5.721  16.192 -0.0813 -0.2078  0.1086
13368TIP3    H161595   5.085   5.646  16.147 -1.7978  0.5759  0.1791
13368TIP3    H261596   5.049   5.777  16.213  0.7258 -0.1311  3.2510
13369TIP3   OH261597   1.469   3.926  12.627  0.1950 -0.4515  0.1956
13369TIP3    H161598   1.413   3.853  12.654  0.7843 -1.2412 -0.6659
13369TIP3    H261599   1.557   3.901  12.656  0.2773  0.3229  0.6528
13370TIP3   OH261600   6.328   3.459  15.932  0.3428 -0.0723  0.1508
13370TIP3    H161601   6.271   3.402  15.880  0.5220  1.0238 -1.3109
13370TIP3    H261602   6.356   3.405  16.006 -0.3360 -1.5236 -0.6233
13371TIP3   OH261603   5.122   4.078   6.318  0.4194  0.1917  0.5027
13371TIP3    H161604   5.095   4.151   6.374  0.1965  0.7719 -0.3379
13371TIP3    H261605   5.041   4.049   6.277  0.4322 -0.8629  1.2092
13372TIP3   OH261606   6.432   2.659   3.520  0.3655  0.3020  0.0622
13372TIP3    H161607   6.425   2.563   3.516  0.5636  0.3090 -0.4171
13372TIP3    H261608   6.483   2.683   3.443 -1.9676  1.0254 -1.3608
13373TIP3   OH261609   2.004   5.531  12.526  0.0042 -0.4870 -0.8463
13373TIP3    H161610   2.026   5.601  12.465  1.7598  0.0217  0.3010
13373TIP3    H261611   1.970   5.577  12.604 -1.1214 -1.0645 -0.9748
13374TIP3   OH261612   5.793   1.842   2.021  0.5962  0.1599  0.2464
13374TIP3    H161613   5.847   1.919   2.038  2.0846 -0.3296 -1.8790
13374TIP3    H261614   5.842   1.770   2.061  1.1004 -0.1555 -0.8990
13375TIP3   OH261615   3.710   1.660   1.783 -0.0133  0.1353  0.0898
13375TIP3    H161616   3.795   1.666   1.741 -0.4221 -0.4504 -0.8574
13375TIP3    H261617   3.679   1.750   1.789  1.4385  0.5760  2.1440
13376TIP3   OH261618   0.345   1.672   2.067  0.3848  0.4109 -0.4823
13376TIP3    H161619   0.396   1.645   1.991  0.6932  1.2956 -0.5965
13376TIP3    H261620   0.339   1.767   2.060  0.3788  0.4983  0.5748
13377TIP3   OH261621   5.517   1.795   1.574  0.0529  0.0966  0.0694
13377TIP3    H161622   5.480   1.842   1.650 -0.1485 -0.9341  0.6207
13377TIP3    H261623   5.444   1.744   1.540  0.8120 -1.6040  0.8925
13378TIP3   OH261624   3.542   4.921  16.124  0.1447 -0.0158  0.0329
13378TIP3    H161625   3.618   4.883  16.080 -0.6549 -1.5712 -0.0628
13378TIP3    H261626   3.497   4.846  16.162 -0.9088  0.9747  0.7777
13379TIP3   OH261627   0.768   5.949  11.408  0.0195 -0.2150 -0.2277
13379TIP3    H161628   0.846   5.895  11.417  0.7822  0.5869 -1.6391
13379TIP3    H261629   0.700   5.888  11.378 -0.2363 -1.1255  2.0183
13380TIP3   OH261630   1.354   4.236   3.314 -0.2861  0.0608  0.1812
13380TIP3    H161631   1.305   4.246   3.395 -0.9062 -1.4265  0.0181
13380TIP3    H261632   1.419   4.169   3.333  0.1213  0.3121 -0.3063
13381TIP3   OH261633   2.784   2.129   3.515  0.3335 -0.5771 -1.1455
13381TIP3    H161634   2.864   2.180   3.523  0.4954 -1.0309  0.8751
13381TIP3    H261635   2.813   2.042   3.486  1.3080 -2.0528  3.3685
13382TIP3   OH261636   1.097   2.898  12.893  0.6757  0.3247  0.0396
13382TIP3    H161637   1.047   2.926  12.969  0.4375 -0.0405  0.0191
13382TIP3    H261638   1.137   2.979  12.859  1.6081  0.3515  1.1372
13383TIP3   OH261639   0.351   3.778  15.523  0.2040  0.1280  0.2883
13383TIP3    H161640   0.359   3.843  15.592  2.8169 -0.3691  0.5430
13383TIP3    H261641   0.440   3.747  15.508 -0.7377 -2.3351 -0.8501
13384TIP3   OH261642   3.696   4.897  16.861 -0.4212 -0.1493  0.3269
13384TIP3    H161643   3.680   4.986  16.830  0.0787 -0.5753 -1.2330
13384TIP3    H261644   3.642   4.842  16.805  0.0570 -0.9007  0.5856
13385TIP3   OH261645   2.358   6.722  16.330 -0.4587 -0.0767  0.3905
13385TIP3    H161646   2.446   6.752  16.308 -1.3344  2.3449 -0.1357
13385TIP3    H261647   2.324   6.687  16.248 -0.8074  1.2683 -0.0661
13386TIP3   OH261648   0.279   1.902  15.690 -0.4998  0.0398 -0.0178
13386TIP3    H161649   0.288   1.853  15.608 -0.1793  2.5000 -1.5656
13386TIP3    H261650   0.265   1.993  15.662 -2.2636  0.7150  2.6624
13387TIP3   OH261651   4.870   3.843   2.694  0.1739 -0.0806  0.0874
13387TIP3    H161652   4.799   3.882   2.643 -1.4919 -0.4649  1.9975
13387TIP3    H261653   4.868   3.750   2.668 -0.8431 -0.3291  0.9448
13388TIP3   OH261654   3.272   6.425   0.089  0.0200 -0.1806 -0.0386
13388TIP3    H161655   3.199   6.456   0.143  2.7678  2.4462  2.6357
13388TIP3    H261656   3.248   6.448  -0.000 -1.8069  2.0348  0.9178
13389TIP3   OH261657   0.412   2.996  15.416  0.1630 -0.8074  0.0074
13389TIP3    H161658   0.369   2.958  15.339  1.2404 -0.6171 -0.7040
13389TIP3    H261659   0.399   2.930  15.484 -0.0925 -1.3572 -0.5497
13390TIP3   OH261660   0.097   4.867   6.420 -0.2310  1.2829  0.1014
13390TIP3    H161661   0.163   4.807   6.454 -0.4657  0.8639 -0.1636
13390TIP3    H261662   0.025   4.862   6.483 -1.4359 -0.8854 -1.3031
13391TIP3   OH261663   5.952   0.722  12.106  0.3558  0.1106  0.0760
13391TIP3    H161664   5.860   0.696  12.104 -0.0849  1.3750  1.7372
13391TIP3    H261665   5.950   0.816  12.089  1.2812  0.2508  0.7107
13392TIP3   OH261666   6.455   1.525   0.179  0.8762  0.1548 -0.0525
13392TIP3    H161667   6.428   1.437   0.206  0.8701  0.4855  1.0537
13392TIP3    H261668   6.492   1.564   0.258  0.4072  1.3395 -0.4019
13393TIP3   OH261669   1.600   0.126   2.781 -0.3085 -0.2883 -0.5353
13393TIP3    H161670   1.540   0.129   2.706  0.1812 -3.8938 -1.2869
13393TIP3    H261671   1.553   0.075   2.847  0.7798 -0.6019  0.0205
13394TIP3   OH261672   0.147   6.262   5.751  0.1194  0.2906  0.4287
13394TIP3    H161673   0.149   6.189   5.689  0.0176 -1.9344  2.8559
13394TIP3    H261674   0.238   6.273   5.778  0.0422  0.5874  0.5720
13395TIP3   OH261675   5.225   2.901  12.977 -0.6996  0.3164 -0.1285
13395TIP3    H161676   5.196   2.937  13.061 -0.1914  1.5226 -0.4518
13395TIP3    H261677   5.254   2.977  12.927  0.3749 -0.5507 -0.8651
13396TIP3   OH261678   4.463   6.628  16.855  0.9991 -0.0160  0.2734
13396TIP3    H161679   4.481   6.648  16.947  0.2776  0.2298  0.3692
13396TIP3    H261680   4.411   6.548  16.857  2.7280 -1.2060 -0.0437
13397TIP3   OH261681   5.114   5.516  16.379  0.1851  0.2064 -0.3874
13397TIP3    H161682   5.103   5.566  16.460 -0.9784 -0.5244 -0.0734
13397TIP3    H261683   5.140   5.581  16.313  0.4888  0.9077  0.4159
13398TIP3   OH261684   5.951   4.830  11.405 -0.5630 -0.0756  0.6097
13398TIP3    H161685   5.904   4.824  11.322 -3.9022 -1.5852  2.4192
13398TIP3    H261686   5.947   4.742  11.441  1.2632  0.4159  2.1985
13399TIP3   OH261687   3.072   4.512   3.446 -0.1935  0.1084 -0.1268
13399TIP3    H161688   2.988   4.500   3.402 -1.0929 -1.1138  1.8080
13399TIP3    H261689   3.083   4.607   3.451 -1.5803  0.2879 -0.1856
13400TIP3   OH261690   2.175   1.672   0.467  0.6725 -0.6731 -0.6269
13400TIP3    H161691   2.143   1.762   0.459 -1.1761 -1.0651  1.3199
13400TIP3    H261692   2.148   1.645   0.555  3.7265 -2.1985 -0.0272
13401TIP3   OH261693   2.127   0.805  17.158  0.1629  0.2677 -0.4180
13401TIP3    H161694   2.167   0.807  17.071  1.1893  0.2788  0.0332
13401TIP3    H261695   2.034   0.822  17.143  0.6289  2.2914 -1.3301
13402TIP3   OH261696   0.018   0.997  14.987 -0.3875 -0.4066 -0.2789
13402TIP3    H161697   0.095   0.952  15.022 -0.5933 -0.1241  0.5650
13402TIP3    H261698   0.022   0.983  14.893  1.0219  0.1048 -0.3108
13403TIP3   OH261699   5.666   6.739  13.682 -0.1748  0.4205  0.1937
13403TIP3    H161700   5.715   6.680  13.625 -1.1196  0.8032 -1.0601
13403TIP3    H261701   5.689   6.827  13.650  1.4079  0.8197  2.1892
13404TIP3   OH261702   2.675   3.045  16.390 -0.2605  0.1820 -0.3394
13404TIP3    H161703   2.598   2.994  16.414 -0.8642  1.4243  0.4450
13404TIP3    H261704   2.746   2.980  16.385 -1.1563 -0.8417 -0.1879
13405TIP3   OH261705   4.569   4.381   2.227  0.1230  0.0343 -0.6189
13405TIP3    H161706   4.582   4.303   2.173  0.0731 -0.3945 -0.0238
13405TIP3    H261707   4.653   4.427   2.224  0.9629 -1.3088  1.0020
13406TIP3   OH261708   1.885   5.903  12.286 -0.1003  0.1136  0.5371
13406TIP3    H161709   1.965   5.944  12.321  1.2425 -0.7857 -1.2776
13406TIP3    H261710   1.825   5.976  12.274  1.7771  1.4750 -1.4188
13407TIP3   OH261711   4.228   6.743   1.749 -0.0978 -0.0485  0.7710
13407TIP3    H161712   4.141   6.768   1.721  1.0198  2.0137 -1.1638
13407TIP3    H261713   4.227   6.753   1.844 -1.7388  0.5971  0.7148
13408TIP3   OH261714   0.266   5.606  12.982 -0.0843  0.0516 -0.0656
13408TIP3    H161715   0.314   5.536  13.027 -1.2765 -2.1847 -2.0061
13408TIP3    H261716   0.222   5.654  13.053 -0.1928 -1.9518  1.3298
13409TIP3   OH261717   0.784   4.875  17.225 -0.4495  0.0421  0.4356
13409TIP3    H161718   0.878   4.877  17.208  0.0883 -1.3025  2.8055
13409TIP3    H261719   0.748   4.822  17.153  0.5509  0.6387 -0.5355
13410TIP3   OH261720   5.822   3.080   2.132  0.9130  0.3289  0.2245
13410TIP3    H161721   5.779   2.994   2.132  2.4807 -0.5002  0.5367
13410TIP3    H261722   5.796   3.120   2.049 -1.0489  0.2032  0.7441
13411TIP3   OH261723   0.422   5.798  17.215  0.1788  0.2271  0.0341
13411TIP3    H161724   0.498   5.855  17.227 -0.4450  0.9897  0.4945
13411TIP3    H261725   0.436   5.756  17.130  1.1595  0.2796  0.1651
13412TIP3   OH261726   3.198   1.428   5.866 -0.3226 -0.2025  0.2930
13412TIP3    H161727   3.267   1.430   5.799 -1.4035 -0.0540 -0.8349
13412TIP3    H261728   3.143   1.503   5.846  0.2211  0.8189  2.3461
13413TIP3   OH261729   1.882   1.732   1.657 -0.0828  0.7104  0.3640
13413TIP3    H161730   1.852   1.791   1.588  0.1169  0.4779  0.0819
13413TIP3    H261731   1.970   1.764   1.678 -0.2911  1.0234  0.7829
13414TIP3   OH261732   2.693   1.686  12.734 -0.4474  0.1186 -0.8587
13414TIP3    H161733   2.600   1.663  12.729 -0.1993 -3.0612  3.2301
13414TIP3    H261734   2.738   1.607  12.703  0.8196  0.5404 -0.1441
13415TIP3   OH261735   6.232   4.153  14.582 -0.1793  0.9003 -0.1408
13415TIP3    H161736   6.180   4.092  14.530  0.9090 -1.8266  1.7668
13415TIP3    H261737   6.307   4.174  14.526 -0.1478 -0.1862 -0.5261
13416TIP3   OH261738   0.547   0.872   5.336  0.4368 -0.1951  0.0097
13416TIP3    H161739   0.513   0.822   5.261  0.0678  0.7689 -0.4917
13416TIP3    H261740   0.507   0.831   5.412  0.5740 -1.0030 -0.3414
13417TIP3   OH261741   4.165   6.410  11.300  0.1023  0.2436 -0.3461
13417TIP3    H161742   4.133   6.366  11.221 -0.1402 -0.6020  0.2045
13417TIP3    H261743   4.233   6.469  11.268  0.5478 -0.6411 -1.1145
13418TIP3   OH261744   5.262   6.226  13.677 -0.4347  0.7862  0.0458
13418TIP3    H161745   5.293   6.309  13.642  0.2452 -0.2338 -1.9333
13418TIP3    H261746   5.321   6.160  13.640 -2.1136 -0.7679 -0.0332
13419TIP3   OH261747   0.632   1.451   5.432  0.3154 -0.2779  0.2847
13419TIP3    H161748   0.547   1.475   5.471  0.1758  1.5686 -0.9943
13419TIP3    H261749   0.693   1.515   5.468  1.2512 -1.6730  1.2840
13420TIP3   OH261750   0.083   3.476  16.210 -0.1988  0.0397  0.1929
13420TIP3    H161751  -0.011   3.493  16.214 -0.2170 -0.2378  0.9631
13420TIP3    H261752   0.098   3.449  16.119 -1.0774 -1.1743  0.3827
13421TIP3   OH261753   2.802   0.978   4.993  0.0718  0.2086  0.0165
13421TIP3    H161754   2.735   1.031   5.037 -0.2321 -1.1691  1.2923
13421TIP3    H261755   2.761   0.892   4.983  0.7926  0.0114 -1.4141
13422TIP3   OH261756   1.221   3.421   5.149 -0.4107 -0.3053  0.0260
13422TIP3    H161757   1.294   3.416   5.087 -0.2722 -0.5132  0.2011
13422TIP3    H261758   1.207   3.514   5.163 -0.0461 -0.2659  0.1410
13423TIP3   OH261759   4.442   4.853  12.956 -0.7531  0.1920  0.3189
13423TIP3    H161760   4.443   4.771  12.907 -0.9695  0.3895 -0.0177
13423TIP3    H261761   4.416   4.919  12.892 -0.8637  0.4776  0.6565
13424TIP3   OH261762   1.782   3.112  14.042 -0.3093  0.0477 -0.1801
13424TIP3    H161763   1.774   3.204  14.067  0.8039  0.0356  0.3008
13424TIP3    H261764   1.748   3.064  14.117  2.3988  0.0265  1.1584
13425TIP3   OH261765   1.597   3.402  10.881  0.0944  0.1929  0.5392
13425TIP3    H161766   1.527   3.337  10.874  0.2152  0.2265 -1.4044
13425TIP3    H261767   1.554   3.485  10.863  0.8511  0.0545 -2.2866
13426TIP3   OH261768   6.069   1.422   6.768  0.0007 -0.1804  0.3175
13426TIP3    H161769   6.145   1.432   6.826  0.6904  0.9102 -0.7284
13426TIP3    H261770   6.097   1.458   6.684 -1.3983 -0.5505 -0.3492
13427TIP3   OH261771   5.512   1.374  13.494 -0.4470 -0.2194  0.8101
13427TIP3    H161772   5.558   1.442  13.543 -1.7338  0.9055  0.5045
13427TIP3    H261773   5.423   1.408  13.482 -0.9568 -1.6892  0.1178
13428TIP3   OH261774   2.839   4.215  14.374 -0.1805 -0.1117 -0.4772
13428TIP3    H161775   2.821   4.306  14.353  1.9252 -0.0084 -2.1690
13428TIP3    H261776   2.935   4.207  14.368 -0.2571 -2.2703  0.2845
13429TIP3   OH261777   5.364   6.726   2.584  0.2066 -0.0219 -0.2904
13429TIP3    H161778   5.416   6.646   2.576  0.1555 -0.0630 -0.2141
13429TIP3    H261779   5.276   6.701   2.555  0.3585  0.1882 -0.9571
13430TIP3   OH261780   2.077   4.437  11.916  0.4606 -0.3191  0.0484
13430TIP3    H161781   2.029   4.496  11.974  0.5698  0.4906 -0.6677
13430TIP3    H261782   2.022   4.359  11.911 -0.0890  0.0372  0.3609
13431TIP3   OH261783   0.405   3.379   3.191 -0.0445  0.1029  0.1752
13431TIP3    H161784   0.488   3.352   3.231  0.0308 -0.2564 -0.2166
13431TIP3    H261785   0.411   3.347   3.101 -0.3666  0.5773 -0.0188
13432TIP3   OH261786   2.718   2.773  15.107 -0.4284  0.2435 -0.2371
13432TIP3    H161787   2.682   2.749  15.192 -0.1279 -3.1726 -0.9360
13432TIP3    H261788   2.798   2.821  15.128 -1.7018  1.8297  1.3161
13433TIP3   OH261789   1.641   4.183   0.547 -0.2119  0.2289  0.2550
13433TIP3    H161790   1.672   4.199   0.458  0.5322  2.2455  0.8249
13433TIP3    H261791   1.580   4.110   0.539 -1.1392  1.1853 -2.1095
13434TIP3   OH261792   1.228   3.690   1.749 -0.1014 -0.3285  0.1163
13434TIP3    H161793   1.258   3.775   1.717  0.3388 -0.6521 -0.3470
13434TIP3    H261794   1.290   3.669   1.820  0.3225 -0.6526 -0.3423
13435TIP3   OH261795   4.147   1.328   2.617 -0.4753 -0.1202  0.6877
13435TIP3    H161796   4.121   1.307   2.707 -0.6651 -1.3744  0.3527
13435TIP3    H261797   4.243   1.321   2.618 -0.5638 -1.7313  0.4323
13436TIP3   OH261798   4.296   2.203   5.507 -0.1394  0.6270 -0.9461
13436TIP3    H161799   4.262   2.282   5.548 -1.9636 -1.2853  1.6001
13436TIP3    H261800   4.391   2.215   5.506 -0.2877  2.3200  0.5546
13437TIP3   OH261801   1.134   1.160  15.695  0.1732 -0.2861 -0.0508
13437TIP3    H161802   1.128   1.237  15.752 -0.0977 -1.2535  1.2856
13437TIP3    H261803   1.054   1.110  15.714 -0.4194 -0.1751 -2.0263
13438TIP3   OH261804   0.544   4.185   4.424 -0.5214 -0.5573  0.1998
13438TIP3    H161805   0.529   4.090   4.421 -1.2429 -0.4387 -0.0178
13438TIP3    H261806   0.553   4.204   4.518 -0.2621 -0.8540  0.2385
13439TIP3   OH261807   5.922   0.271   0.909 -0.8319  0.1832  0.0553
13439TIP3    H161808   5.902   0.342   0.970 -1.6371  0.1255 -0.1316
13439TIP3    H261809   5.935   0.314   0.825 -2.7644  0.0004 -0.3689
13440TIP3   OH261810   3.989   2.899  13.112 -0.1911 -0.0680  0.0320
13440TIP3    H161811   4.010   2.859  13.197 -0.5223  0.7749  0.5274
13440TIP3    H261812   3.948   2.829  13.062 -1.1684 -0.2507  1.0385
13441TIP3   OH261813   4.246   2.726   4.401 -0.4167 -0.0235  0.7948
13441TIP3    H161814   4.154   2.704   4.412 -0.4069 -0.3483  0.2969
13441TIP3    H261815   4.268   2.694   4.313 -0.0160  0.6923  0.6256
13442TIP3   OH261816   0.823   0.545   6.109  0.4195  0.1146  0.3445
13442TIP3    H161817   0.754   0.493   6.150 -1.5098  2.8279  0.7452
13442TIP3    H261818   0.828   0.625   6.161  1.1139  1.6831 -1.9718
13443TIP3   OH261819   4.118   6.260  16.161 -0.0411  0.0418 -0.2030
13443TIP3    H161820   4.194   6.271  16.219  0.0636  0.0939 -0.3481
13443TIP3    H261821   4.155   6.269  16.073 -0.2119  0.0367 -0.2738
13444TIP3   OH261822   5.456   2.179   1.640  0.2203 -0.0132  0.1465
13444TIP3    H161823   5.436   2.270   1.619  0.4356  0.3208  1.3337
13444TIP3    H261824   5.549   2.179   1.664  0.0463 -0.4072  0.8510
13445TIP3   OH261825   3.858   4.224   5.097  0.0260 -0.3493  0.6789
13445TIP3    H161826   3.771   4.258   5.117 -0.6683 -0.8525 -1.3201
13445TIP3    H261827   3.916   4.299   5.108 -0.8516  0.3521  0.6323
13446TIP3   OH261828   2.292   5.783   4.826 -0.3507 -0.1540 -0.1774
13446TIP3    H161829   2.247   5.864   4.802  0.5953  0.6675  0.6900
13446TIP3    H261830   2.222   5.717   4.831 -0.8644  0.0978 -2.8950
13447TIP3   OH261831   6.031   5.059  16.135  0.1006  0.1288  0.3682
13447TIP3    H161832   5.951   5.053  16.082 -0.9186 -0.7436  1.9367
13447TIP3    H261833   6.099   5.084  16.072 -1.1817 -0.1725 -1.2129
13448TIP3   OH261834   4.839   6.485   3.369  0.4226 -0.1945 -0.7695
13448TIP3    H161835   4.820   6.413   3.308  1.1801 -1.1539  0.0857
13448TIP3    H261836   4.931   6.506   3.353  0.5827 -0.3448 -0.0711
13449TIP3   OH261837   6.569   3.538  11.614 -0.0874 -0.6655  0.4852
13449TIP3    H161838   6.548   3.460  11.563  1.5325  0.2914 -1.7828
13449TIP3    H261839   6.536   3.611  11.561  0.8528  0.3304  1.2294
13450TIP3   OH261840   2.904   2.276   4.783 -0.2141  0.5109  0.4033
13450TIP3    H161841   2.831   2.329   4.815  2.1876  2.4225  3.2012
13450TIP3    H261842   2.951   2.249   4.862  3.2371  1.0843 -1.2644
13451TIP3   OH261843   6.596   3.837   6.208  0.5303  0.2196  0.2539
13451TIP3    H161844   6.578   3.813   6.117  0.8443  0.2682  0.1776
13451TIP3    H261845   6.585   3.756   6.257 -4.3055  0.9587  0.9313
13452TIP3   OH261846   6.179   3.973   5.344 -0.3671 -0.2275 -0.0919
13452TIP3    H161847   6.103   4.027   5.321 -0.0699  0.0350 -0.4446
13452TIP3    H261848   6.140   3.888   5.368 -0.8041  0.0260  0.1195
13453TIP3   OH261849   3.877   5.384   5.647 -0.3772  0.4101 -0.8147
13453TIP3    H161850   3.903   5.460   5.595 -0.7108  0.8708 -0.3145
13453TIP3    H261851   3.800   5.350   5.603 -0.5620  0.7025 -0.7202
13454TIP3   OH261852   5.630   4.670  12.890  0.3176 -0.0281  0.3820
13454TIP3    H161853   5.608   4.578  12.906 -2.1027  0.6544  1.4898
13454TIP3    H261854   5.662   4.671  12.800  1.2534 -2.0474  0.6222
13455TIP3   OH261855   3.137   2.002  15.257 -0.1452  0.0705  0.9073
13455TIP3    H161856   3.114   2.094  15.243 -0.3951  0.1462  1.7693
13455TIP3    H261857   3.095   1.955  15.185 -0.8487  0.5218  1.0132
13456TIP3   OH261858   5.136   2.377   5.603 -0.0052 -0.3317  0.3300
13456TIP3    H161859   5.188   2.309   5.560  0.6017 -0.1646  0.7757
13456TIP3    H261860   5.111   2.436   5.532 -0.0998 -0.7420  0.0186
13457TIP3   OH261861   5.037   2.619  15.399  0.5224  0.2725  0.8755
13457TIP3    H161862   5.067   2.528  15.392  0.0403  0.2107 -3.2988
13457TIP3    H261863   4.943   2.612  15.419  0.6889 -0.0891  1.5441
13458TIP3   OH261864   3.089   6.786  15.414  0.2164 -0.2631  0.2440
13458TIP3    H161865   3.008   6.835  15.403  0.6630  0.0963 -2.2035
13458TIP3    H261866   3.064   6.695  15.400 -0.2360 -0.5674  2.6203
13459TIP3   OH261867   0.798   1.669   0.196  0.0325 -0.4374  0.4917
13459TIP3    H161868   0.792   1.749   0.144 -0.6561  0.1607  1.4609
13459TIP3    H261869   0.709   1.654   0.228  0.5604 -0.4182  2.0334
13460TIP3   OH261870   2.421   1.806   5.909  0.1028  0.6547 -0.3379
13460TIP3    H161871   2.401   1.758   5.990 -2.1393  1.6908 -0.2122
13460TIP3    H261872   2.453   1.739   5.849 -0.5497 -0.5628  0.6245
13461TIP3   OH261873   0.042   4.563   2.325 -0.3205 -0.8909  0.6193
13461TIP3    H161874   0.006   4.651   2.336 -0.4493 -0.2626 -3.4111
13461TIP3    H261875   0.132   4.570   2.358 -0.5235  0.5860  0.9320
13462TIP3   OH261876   5.855   2.903  11.868  0.2773 -0.3061 -0.2105
13462TIP3    H161877   5.928   2.945  11.913 -0.5093 -1.9645  2.9303
13462TIP3    H261878   5.806   2.975  11.829  2.5718  0.9946 -0.8759
13463TIP3   OH261879   4.960   6.559  16.810 -0.0003 -0.0573 -0.3081
13463TIP3    H161880   5.019   6.608  16.753 -1.0113 -1.4249 -2.7083
13463TIP3    H261881   4.926   6.624  16.872 -1.1066  2.2913 -3.1513
13464TIP3   OH261882   4.750   0.068  13.254  0.1388 -0.3181  0.1283
13464TIP3    H161883   4.708   0.135  13.200 -1.3353 -0.9855  0.3739
13464TIP3    H261884   4.840   0.097  13.264  0.3331  0.0763 -2.2659
13465TIP3   OH261885   3.350   4.359  13.412  0.0298 -0.8268  0.1514
13465TIP3    H161886   3.301   4.279  13.395 -1.4409  0.3663 -1.5889
13465TIP3    H261887   3.416   4.361  13.342  0.0904 -0.5310  0.2189
13466TIP3   OH261888   1.149   1.665   4.129 -0.2180 -0.2087 -0.3045
13466TIP3    H161889   1.239   1.632   4.128 -0.3771 -0.6360 -0.6666
13466TIP3    H261890   1.148   1.730   4.199  0.2342 -0.5865  0.0522
13467TIP3   OH261891   5.513   0.219  15.927 -0.0619 -0.1879  0.0842
13467TIP3    H161892   5.538   0.311  15.923  1.0177 -0.4942 -2.1856
13467TIP3    H261893   5.418   0.219  15.924 -0.2843  0.8803  3.5580
13468TIP3   OH261894   5.443   0.452  14.787  0.1986  0.1717  0.2538
13468TIP3    H161895   5.539   0.443  14.790  0.0294 -1.6393  2.0647
13468TIP3    H261896   5.411   0.363  14.773 -1.2622  0.6307  0.5842
13469TIP3   OH261897   2.692   1.012  14.495 -0.3851 -0.3681  0.2664
13469TIP3    H161898   2.752   0.943  14.466 -0.1838  1.1518 -3.6173
13469TIP3    H261899   2.649   1.041  14.414 -0.3125  4.1361  1.5694
13470TIP3   OH261900   1.174   4.770   5.537 -0.3073  0.5637  0.2450
13470TIP3    H161901   1.101   4.801   5.590 -0.2438 -0.2895  0.8609
13470TIP3    H261902   1.207   4.693   5.584  0.8351  0.7923 -0.1487
13471TIP3   OH261903   4.172   5.872   0.603  0.1158 -0.2446  0.0443
13471TIP3    H161904   4.122   5.908   0.530  0.9470 -1.2639 -1.0713
13471TIP3    H261905   4.190   5.947   0.659 -1.1326  0.4406 -0.4336
13472TIP3   OH261906   0.397   6.460  16.989  0.3037  0.4402 -0.2351
13472TIP3    H161907   0.301   6.459  16.983  0.2747  1.6936 -0.4091
13472TIP3    H261908   0.417   6.419  17.073 -0.3437 -0.4439 -0.4989
13473TIP3   OH261909   4.222   5.183   2.949 -0.6275  0.2296  0.7747
13473TIP3    H161910   4.201   5.272   2.923 -0.2951 -0.3979 -1.9149
13473TIP3    H261911   4.315   5.185   2.970 -0.2388  0.2490 -0.8281
13474TIP3   OH261912   6.557   5.655  16.590  0.6020  0.1224 -0.1225
13474TIP3    H161913   6.492   5.595  16.626  2.3358 -1.4003  0.6582
13474TIP3    H261914   6.520   5.684  16.507 -0.4483 -1.8042 -0.3883
13475TIP3   OH261915   0.503   2.148  11.504 -0.1618  0.4679 -0.7516
13475TIP3    H161916   0.477   2.156  11.412 -1.2155  0.3273 -0.4838
13475TIP3    H261917   0.589   2.189  11.508  0.5921 -0.8551 -2.0889
13476TIP3   OH261918   2.415   5.344  12.096  0.3839 -0.1645 -0.1796
13476TIP3    H161919   2.368   5.421  12.063  0.3288 -0.2477 -0.2973
13476TIP3    H261920   2.496   5.379  12.132  0.0193  0.0418  0.4673
13477TIP3   OH261921   5.333   3.965  12.950  0.1771  0.0673 -0.3308
13477TIP3    H161922   5.267   4.031  12.928  0.2608  0.4149  0.4362
13477TIP3    H261923   5.385   3.955  12.871 -0.6542 -0.0449 -0.8746
13478TIP3   OH261924   2.721   2.047   0.547 -0.2452 -0.2832  0.5947
13478TIP3    H161925   2.718   1.972   0.486 -2.0465 -0.3532  0.7067
13478TIP3    H261926   2.764   2.012   0.625 -1.1670 -1.2553  0.6908
13479TIP3   OH261927   4.920   0.652  12.439  0.0162  0.1841  0.1021
13479TIP3    H161928   4.921   0.747  12.452  0.8011 -0.0071  1.6790
13479TIP3    H261929   4.827   0.629  12.439 -0.1662  0.9078  0.0286
13480TIP3   OH261930   4.875   2.726  11.015 -0.0642  0.1779  0.8197
13480TIP3    H161931   4.952   2.738  10.960 -1.1550  0.7054 -0.6710
13480TIP3    H261932   4.908   2.726  11.105  1.8092 -1.0152  0.1642
13481TIP3   OH261933   4.916   1.770  12.955  0.0987  0.0370 -0.0728
13481TIP3    H161934   4.961   1.817  13.025  0.5070 -0.3161 -0.0951
13481TIP3    H261935   4.855   1.834  12.918 -1.6244 -0.3576  1.9475
13482TIP3   OH261936   2.981   1.498   0.837 -0.0010  0.6527 -0.4689
13482TIP3    H161937   3.010   1.469   0.923  2.4753  1.6417 -0.8764
13482TIP3    H261938   2.929   1.577   0.854  1.1540  1.3165  0.1118
13483TIP3   OH261939   4.083   6.631  11.663  0.2837 -0.1308  0.2030
13483TIP3    H161940   4.094   6.692  11.589 -1.5739  0.7842  0.6343
13483TIP3    H261941   4.043   6.554  11.624 -1.3296  0.6145  0.3275
13484TIP3   OH261942   6.727   5.065   4.377 -0.0936 -0.4546  0.4292
13484TIP3    H161943   6.676   4.985   4.392  1.9924 -1.6473  1.5094
13484TIP3    H261944   6.745   5.099   4.465  0.8160  0.0423  0.0581
13485TIP3   OH261945   2.873   5.945  14.560  0.1650  0.3694  0.0390
13485TIP3    H161946   2.829   6.004  14.621  1.3265  0.1257  1.1756
13485TIP3    H261947   2.920   6.003  14.500 -0.2681  0.6080 -0.0731
13486TIP3   OH261948   6.259   1.976   5.145 -0.3204  0.2062 -0.6815
13486TIP3    H161949   6.213   1.990   5.062 -0.8745 -1.0499 -0.6077
13486TIP3    H261950   6.192   1.943   5.204  0.3541 -0.1471 -0.1039
13487TIP3   OH261951   1.840   4.170   1.624  0.1615  0.2383  0.4011
13487TIP3    H161952   1.888   4.113   1.685 -2.0784 -2.0241  0.2129
13487TIP3    H261953   1.898   4.178   1.549  0.1743 -2.7963 -0.0192
13488TIP3   OH261954   0.668   6.348   3.303  0.1192  0.0639 -0.3311
13488TIP3    H161955   0.670   6.374   3.395  0.7622 -0.1240 -0.2858
13488TIP3    H261956   0.577   6.325   3.286  0.0550 -0.1935  0.3445
13489TIP3   OH261957   3.639   4.252   3.898  0.0926 -0.0037  0.2173
13489TIP3    H161958   3.550   4.272   3.929 -0.1012 -0.3449 -0.1102
13489TIP3    H261959   3.666   4.331   3.851 -0.5431 -0.3703 -0.7934
13490TIP3   OH261960   6.471   1.749   4.506 -0.1187  0.4044  0.4463
13490TIP3    H161961   6.409   1.807   4.462 -0.8463  1.0928  2.2660
13490TIP3    H261962   6.426   1.723   4.587  2.0034  1.0556  1.9165
13491TIP3   OH261963   3.848   2.888  11.594 -0.1763 -0.2142  0.6977
13491TIP3    H161964   3.938   2.921  11.594 -0.4437  1.0846 -3.5530
13491TIP3    H261965   3.794   2.966  11.607 -0.6847 -0.2151 -1.1436
13492TIP3   OH261966   2.874   6.240   5.118 -0.5648  0.0170  0.1336
13492TIP3    H161967   2.837   6.312   5.067 -0.3124  0.7169  0.9082
13492TIP3    H261968   2.902   6.176   5.053  0.9730  1.4677 -0.7122
13493TIP3   OH261969   3.335   4.210   5.777 -0.2584 -0.1038 -0.6797
13493TIP3    H161970   3.394   4.220   5.852  1.4501 -2.2434 -1.6355
13493TIP3    H261971   3.287   4.129   5.794 -2.3798  1.1493 -0.3480
13494TIP3   OH261972   2.042   2.028  11.684  0.2411  0.2358  0.7671
13494TIP3    H161973   2.100   2.103  11.676  0.7753 -0.0161  2.0530
13494TIP3    H261974   2.072   1.982  11.763 -1.7625  0.1688  1.5674
13495TIP3   OH261975   0.982   0.079  11.444 -0.5051 -0.1265  0.2591
13495TIP3    H161976   1.025  -0.007  11.452  1.0448  0.7985  2.8186
13495TIP3    H261977   1.013   0.113  11.360  1.2829 -0.8533  0.5748
13496TIP3   OH261978   1.296   2.914   0.229  0.1279  0.3123 -0.0496
13496TIP3    H161979   1.293   2.884   0.320  2.1809 -1.2738 -0.4275
13496TIP3    H261980   1.355   2.852   0.186  0.2380  1.8128 -2.1774
13497TIP3   OH261981   1.449   0.596   6.644  0.2989  0.8807  0.1235
13497TIP3    H161982   1.476   0.674   6.595  0.2060  0.3006 -0.8592
13497TIP3    H261983   1.520   0.533   6.630 -0.3379  0.2517 -0.3559
13498TIP3   OH261984   1.003   5.557   1.601 -0.7462  0.1288  0.2620
13498TIP3    H161985   0.916   5.520   1.592  0.1498 -2.0085 -0.2493
13498TIP3    H261986   1.018   5.561   1.696 -0.6321 -1.5019  0.3369
13499TIP3   OH261987   4.890   4.205  16.953  0.1472 -0.1024 -0.0308
13499TIP3    H161988   4.875   4.141  16.883  1.8687  0.6316 -1.1476
13499TIP3    H261989   4.846   4.168  17.029 -0.4986 -1.6847 -1.1179
13500TIP3   OH261990   3.326   5.252   3.740  0.2763  0.2148  0.6718
13500TIP3    H161991   3.332   5.293   3.827 -0.6128  0.5885  0.5585
13500TIP3    H261992   3.393   5.297   3.688  0.8171 -0.0127  1.1606
13501TIP3   OH261993   0.040   1.704  17.068 -0.3776 -0.3314 -0.1347
13501TIP3    H161994   0.104   1.713  17.139  1.3232 -1.2809 -1.4691
13501TIP3    H261995   0.082   1.746  16.993 -0.4548 -2.5605 -1.5271
13502TIP3   OH261996   4.319   4.769  16.926  0.4617 -0.6365  0.0159
13502TIP3    H161997   4.362   4.759  16.841  2.2916 -2.2078  1.0626
13502TIP3    H261998   4.321   4.863  16.943 -0.5030 -0.2220 -1.9195
13503TIP3   OH261999   6.425   2.124  10.393 -0.1505 -0.1775  0.3746
13503TIP3    H162000   6.400   2.216  10.404 -0.0065 -0.2296  1.1449
13503TIP3    H262001   6.510   2.128  10.348  0.3243  0.0932  1.2803
13504TIP3   OH262002   2.584   6.692   1.802  0.5857  0.0886 -0.1464
13504TIP3    H162003   2.668   6.674   1.759  1.1143 -0.4958  1.0795
13504TIP3    H262004   2.582   6.632   1.876 -0.9504  0.0695 -0.1856
13505TIP3   OH262005   4.710   2.069   3.199  0.0686 -0.4636  0.1791
13505TIP3    H162006   4.745   2.152   3.231 -1.5820  1.0034 -1.5905
13505TIP3    H262007   4.699   2.016   3.278 -0.2568  1.5550  1.5687
13506TIP3   OH262008   2.761   0.099   0.265 -0.7396  0.0228 -0.1545
13506TIP3    H162009   2.823   0.146   0.320 -1.1356  0.8069 -0.3559
13506TIP3    H262010   2.715   0.168   0.217 -0.2835 -0.6543 -1.5972
13507TIP3   OH262011   6.491   2.994  16.300 -1.0144  0.2617  0.3740
13507TIP3    H162012   6.513   2.956  16.385 -0.4766  1.0474  0.5987
13507TIP3    H262013   6.403   3.030  16.312 -1.2968 -0.3999  0.3276
13508TIP3   OH262014   5.297   5.604  14.429 -0.4482  0.3631 -0.4937
13508TIP3    H162015   5.237   5.653  14.485 -0.8298 -2.2293  1.5606
13508TIP3    H262016   5.383   5.612  14.471 -0.7184 -1.5244  0.5457
13509TIP3   OH262017   0.304   3.980   3.474  0.2912 -0.2151 -0.5475
13509TIP3    H162018   0.296   4.071   3.502 -0.7436 -0.2033 -0.8391
13509TIP3    H262019   0.316   3.931   3.556  1.4652  0.2261 -0.4373
13510TIP3   OH262020   4.248   2.748   1.586 -0.0171 -0.3387  0.1896
13510TIP3    H162021   4.162   2.720   1.616  0.9614 -1.9160  1.7501
13510TIP3    H262022   4.296   2.666   1.572  1.1061  0.4905 -1.1016
13511TIP3   OH262023   3.780   0.321   1.849 -0.1500 -1.0927  0.5650
13511TIP3    H162024   3.711   0.295   1.911 -0.0549 -0.9819  0.7157
13511TIP3    H262025   3.859   0.279   1.883  0.3069  0.5335  1.6138
13512TIP3   OH262026   4.591   2.353  12.657 -0.0600  0.0652 -1.4151
13512TIP3    H162027   4.582   2.434  12.606  0.8398 -0.4703 -2.4528
13512TIP3    H262028   4.507   2.308  12.645 -0.0167  0.1539 -2.0450
13513TIP3   OH262029   6.375   1.188   5.608  0.4697 -0.3646 -0.3319
13513TIP3    H162030   6.308   1.176   5.541  1.2715  0.5823 -1.3365
13513TIP3    H262031   6.458   1.168   5.563  1.2441  2.4328 -0.3225
13514TIP3   OH262032   5.581   5.598  14.450  0.6807  0.8482  0.1017
13514TIP3    H162033   5.535   5.571  14.371  0.4779  1.3448  0.0472
13514TIP3    H262034   5.668   5.623  14.419  0.7899  0.4835  0.1173
13515TIP3   OH262035   6.391   0.838  11.476 -0.1894  0.0497  0.1032
13515TIP3    H162036   6.354   0.900  11.539  0.3424 -0.0219  0.4957
13515TIP3    H262037   6.382   0.752  11.518  0.2178  0.0079  0.1114
13516TIP3   OH262038   4.063   4.315   2.979  0.3386  0.0697 -0.2525
13516TIP3    H162039   4.041   4.225   2.954  1.0097 -0.5447  1.2291
13516TIP3    H262040   3.980   4.354   3.005 -0.1195  0.2288 -1.8542
13517TIP3   OH262041   1.455   1.203  14.684 -0.3293  0.0235 -0.1054
13517TIP3    H162042   1.515   1.134  14.712 -0.1888 -0.3334 -1.2250
13517TIP3    H262043   1.509   1.262  14.632 -0.5088  0.8378  0.6309
13518TIP3   OH262044   1.097   4.452   5.486  0.2855 -0.4311 -0.6641
13518TIP3    H162045   1.173   4.467   5.543 -1.0124  0.6228  0.8857
13518TIP3    H262046   1.049   4.381   5.529 -0.8367  0.5451 -0.2458
13519TIP3   OH262047   3.696   0.320   5.521 -0.1573 -0.4447 -0.3455
13519TIP3    H162048   3.783   0.301   5.487  0.1648 -0.1945  0.3105
13519TIP3    H262049   3.636   0.302   5.448  0.4081 -0.9864 -0.6839
13520TIP3   OH262050   4.425   1.354   2.645 -0.4361 -0.0672  0.1294
13520TIP3    H162051   4.490   1.284   2.642 -0.5639 -0.1529 -1.0483
13520TIP3    H262052   4.469   1.428   2.602 -1.5513 -0.5299 -1.9537
13521TIP3   OH262053   3.271   1.347  16.089  0.0884 -0.4539 -0.1454
13521TIP3    H162054   3.235   1.404  16.021  0.9956 -0.4458 -0.6494
13521TIP3    H262055   3.253   1.258  16.058  1.4894 -0.4768 -1.0103
13522TIP3   OH262056   4.290   1.012   1.073 -0.0631  0.1428  0.5179
13522TIP3    H162057   4.308   1.079   1.139  1.9907 -0.2457  0.4091
13522TIP3    H262058   4.352   1.031   1.003 -1.8551  0.2255 -1.1020
13523TIP3   OH262059   0.642   6.472   5.348  0.4861 -0.4405 -0.5505
13523TIP3    H162060   0.681   6.547   5.392 -0.0832 -0.4836  0.0440
13523TIP3    H262061   0.567   6.508   5.300  1.1020 -0.3930 -1.4990
13524TIP3   OH262062   6.623   5.965  16.179  0.6690  0.2644 -0.3867
13524TIP3    H162063   6.660   5.891  16.227  0.4005 -0.2089 -0.9034
13524TIP3    H262064   6.554   5.999  16.236  0.4656 -0.1861 -0.3645
13525TIP3   OH262065   5.586   0.575  14.499  0.3740  0.4344 -0.2416
13525TIP3    H162066   5.498   0.536  14.499 -0.4245  2.1196 -1.3390
13525TIP3    H262067   5.619   0.561  14.587 -0.8697 -0.5078  0.1005
13526TIP3   OH262068   4.007   5.190   4.679 -0.2355  0.0439 -0.3931
13526TIP3    H162069   4.015   5.280   4.650 -0.0780 -0.4789 -2.0926
13526TIP3    H262070   3.940   5.193   4.748 -0.6536  1.3655 -0.8200
13527TIP3   OH262071   5.711   4.566   0.072 -0.0845 -0.8169  0.3445
13527TIP3    H162072   5.807   4.559   0.074 -0.0519 -0.3162  1.0442
13527TIP3    H262073   5.690   4.569  -0.021  0.5983 -0.7754  0.1793
13528TIP3   OH262074   2.885   4.828  15.971  0.2705  0.7035  0.0159
13528TIP3    H162075   2.880   4.907  15.916  0.8278  0.4136 -0.4525
13528TIP3    H262076   2.840   4.761  15.921 -1.3034  0.9911  0.9443
13529TIP3   OH262077   2.487   3.306  11.771  0.5238  0.7042 -0.0322
13529TIP3    H162078   2.406   3.353  11.790  0.0265  0.4285 -1.4226
13529TIP3    H262079   2.521   3.282  11.858 -0.2344  1.8783  0.6120
13530TIP3   OH262080   2.639   3.156   5.305 -0.7724 -0.2278  0.4428
13530TIP3    H162081   2.694   3.091   5.348  1.0973  0.2919 -1.0245
13530TIP3    H262082   2.580   3.186   5.373  0.3109 -1.3001  1.9266
13531TIP3   OH262083   2.336   3.481   3.286 -0.2442  0.8210  0.4791
13531TIP3    H162084   2.425   3.452   3.266  0.5212  2.9084  0.6132
13531TIP3    H262085   2.295   3.406   3.329  1.5161 -0.1085  0.6222
13532TIP3   OH262086   0.040   6.609   2.101 -0.1319 -0.2892  0.9615
13532TIP3    H162087   0.075   6.570   2.021  0.0716 -0.3426  1.0763
13532TIP3    H262088  -0.055   6.604   2.090 -0.1683  1.6423 -0.2442
13533TIP3   OH262089   1.435   1.983   4.735  0.1796  0.1838 -0.6466
13533TIP3    H162090   1.481   1.947   4.812 -0.6352 -0.2160 -0.3302
13533TIP3    H262091   1.428   1.909   4.675 -0.1180  0.2184 -0.6564
13534TIP3   OH262092   4.740   6.452  13.349  0.0304  0.4140  0.3647
13534TIP3    H162093   4.727   6.499  13.431 -0.9393  2.4993 -0.8951
13534TIP3    H262094   4.668   6.390  13.345  0.3796 -0.0806  1.2916
13535TIP3   OH262095   2.525   0.196  10.317  0.2324 -0.3813  0.3165
13535TIP3    H162096   2.473   0.150  10.384  0.1735 -1.5947 -0.5291
13535TIP3    H262097   2.471   0.192  10.238 -0.4425  2.4907  0.5377
13536TIP3   OH262098   1.310   3.907   1.595 -0.1137  0.3761 -0.7617
13536TIP3    H162099   1.325   3.965   1.669  1.5002 -0.3072 -0.5226
13536TIP3    H262100   1.277   3.965   1.526 -2.9815  0.8254  0.8323
13537TIP3   OH262101   6.127   2.132   6.434 -0.5617 -0.2327 -0.2731
13537TIP3    H162102   6.172   2.216   6.429 -2.2016  0.6388 -1.5198
13537TIP3    H262103   6.055   2.148   6.495 -0.8330 -0.7498 -0.4506
13538TIP3   OH262104   5.478   2.534   6.427  0.2004  0.0467  0.0605
13538TIP3    H162105   5.512   2.586   6.354 -1.5489  0.7883 -0.2706
13538TIP3    H262106   5.386   2.521   6.405 -0.0128 -0.9106  1.4746
13539TIP3   OH262107   0.339   6.089   4.478 -0.0821 -0.1019  0.0420
13539TIP3    H162108   0.258   6.088   4.428 -0.1633  0.8434  0.1404
13539TIP3    H262109   0.319   6.040   4.558 -0.2760 -0.6636 -0.3422
13540TIP3   OH262110   1.840   1.906   4.531 -0.2401 -0.1021 -0.1818
13540TIP3    H162111   1.855   1.986   4.581 -1.4921 -0.1265  0.2753
13540TIP3    H262112   1.925   1.862   4.530  0.4991  1.2873 -0.5612
13541TIP3   OH262113   6.100   3.491   6.393 -0.0641 -0.4078  0.3952
13541TIP3    H162114   6.053   3.568   6.361  0.0765 -0.7244 -0.6059
13541TIP3    H262115   6.180   3.526   6.432  0.3067 -0.0674 -0.6228
13542TIP3   OH262116   2.947   5.550   3.339  0.0350  0.9045  0.1737
13542TIP3    H162117   2.965   5.639   3.370 -0.2044  0.8151  0.5677
13542TIP3    H262118   2.888   5.513   3.404  1.4098 -0.1171  0.8923
13543TIP3   OH262119   2.273   3.232   0.088 -0.0196 -0.0760 -0.5252
13543TIP3    H162120   2.178   3.228   0.075  0.0181 -0.7409 -0.6278
13543TIP3    H262121   2.292   3.159   0.146  0.1706  1.2991  1.2200
13544TIP3   OH262122   1.102   3.878   3.847 -0.2714 -0.4246  0.6866
13544TIP3    H162123   1.062   3.924   3.921 -0.1790 -0.4450  0.7494
13544TIP3    H262124   1.039   3.889   3.776  0.4067  1.0588  0.2852
13545TIP3   OH262125   3.778   6.215  16.954  0.1962  0.0268  0.6368
13545TIP3    H162126   3.729   6.188  17.031  1.3322 -0.6280  1.1654
13545TIP3    H262127   3.712   6.246  16.892 -0.8080 -0.3128  1.5158
13546TIP3   OH262128   2.584   3.522  16.196 -0.4551  0.2029  0.6737
13546TIP3    H162129   2.530   3.444  16.185 -0.4453  0.1837  0.7610
13546TIP3    H262130   2.547   3.586  16.135 -0.0810 -0.0725  0.1606
13547TIP3   OH262131   5.033   3.046   0.193  0.0836  0.5253 -0.6384
13547TIP3    H162132   5.008   3.113   0.129 -1.1799  0.5155 -0.1819
13547TIP3    H262133   4.958   3.041   0.252  1.3879  0.8521  1.1187
13548TIP3   OH262134   4.330   3.071   0.758 -0.5516  0.0971 -0.4422
13548TIP3    H162135   4.350   3.051   0.667  2.0376 -2.2653  0.5054
13548TIP3    H262136   4.416   3.084   0.799 -1.6834  2.1721  1.4965
13549TIP3   OH262137   6.313   6.061  11.554  0.2889  0.2380  0.1089
13549TIP3    H162138   6.405   6.086  11.544  0.2689  0.0619 -0.5693
13549TIP3    H262139   6.314   5.965  11.562  0.4935  0.4027  4.1293
13550TIP3   OH262140   3.487   1.622   2.962 -0.3979 -0.3276  0.0229
13550TIP3    H162141   3.453   1.708   2.938  1.6329  0.2425 -1.0952
13550TIP3    H262142   3.432   1.560   2.914 -3.1113  0.1225  2.3134
13551TIP3   OH262143   3.965   2.864   6.782  0.0453 -0.1110  0.6903
13551TIP3    H162144   3.969   2.960   6.777 -0.8206 -0.1223 -0.6402
13551TIP3    H262145   4.025   2.834   6.713 -0.4996 -0.5103  0.3892
13552TIP3   OH262146   6.551   6.641   3.332 -0.5161  0.2213  0.2937
13552TIP3    H162147   6.628   6.655   3.387 -0.7287 -0.5121  0.7913
13552TIP3    H262148   6.478   6.631   3.394 -0.8058 -0.3333 -0.1286
13553TIP3   OH262149   2.105   6.044  15.025 -0.1450 -0.0630 -0.1686
13553TIP3    H162150   2.101   6.136  14.999 -0.7312 -0.3927 -1.3441
13553TIP3    H262151   2.187   6.036  15.074  0.8476  0.7099 -1.6344
13554TIP3   OH262152   3.944   4.807   3.923  0.8495 -0.2056 -0.1702
13554TIP3    H162153   3.879   4.803   3.993 -0.6713  2.5926 -1.2797
13554TIP3    H262154   3.926   4.731   3.868  0.7286 -1.2827  1.3073
13555TIP3   OH262155   6.635   6.241   0.358  0.2352 -0.1407 -0.8918
13555TIP3    H162156   6.659   6.328   0.326  0.1593  0.1401 -0.2005
13555TIP3    H262157   6.554   6.255   0.407  0.4267 -0.5368 -0.4530
13556TIP3   OH262158   5.630   5.858   2.461  0.5905  0.0886 -0.2907
13556TIP3    H162159   5.557   5.917   2.440 -0.1595 -1.1046 -1.1777
13556TIP3    H262160   5.689   5.866   2.386  0.4305 -0.3603 -0.4684
13557TIP3   OH262161   2.104   3.429   6.557 -0.3716 -0.2999  0.3314
13557TIP3    H162162   2.035   3.369   6.531 -0.8500  0.7886 -1.0385
13557TIP3    H262163   2.181   3.373   6.571 -0.6919 -1.1902 -1.3189
13558TIP3   OH262164   4.018   0.116   0.197 -0.7271 -0.4769  1.0610
13558TIP3    H162165   3.968   0.193   0.171 -1.3461 -1.6293 -1.4657
13558TIP3    H262166   3.971   0.043   0.158  0.9184 -1.9611  1.7476
13559TIP3   OH262167   5.321   3.560   0.402 -0.6038 -0.3677  0.3308
13559TIP3    H162168   5.350   3.558   0.311  1.1791 -2.4882  0.8490
13559TIP3    H262169   5.260   3.487   0.410 -2.3197  1.0092  0.4441
13560TIP3   OH262170   6.138   5.190   0.812  0.1049  0.1487 -0.1832
13560TIP3    H162171   6.182   5.152   0.888 -0.5090 -0.1372  0.0347
13560TIP3    H262172   6.096   5.115   0.770  0.4416  0.3040 -0.8095
13561TIP3   OH262173   0.579   6.164   4.638  0.0205  0.2665  0.0471
13561TIP3    H162174   0.634   6.087   4.648 -1.1788 -0.3686  2.5074
13561TIP3    H262175   0.516   6.140   4.571 -1.1047 -1.4452  1.6241
13562TIP3   OH262176   0.264   0.968   5.795  0.4066  0.3877 -0.1286
13562TIP3    H162177   0.359   0.963   5.789  0.8929  1.3888  3.9144
13562TIP3    H262178   0.246   1.061   5.812 -1.4547  0.3823 -1.7078
13563TIP3   OH262179   5.850   6.165  16.819 -0.6605  0.2216  0.0158
13563TIP3    H162180   5.917   6.218  16.775 -0.1435 -0.5740 -0.1725
13563TIP3    H262181   5.768   6.187  16.774 -0.4466  0.8321 -0.0786
13564TIP3   OH262182   3.896   3.319   0.157  0.2103 -0.0447 -0.0262
13564TIP3    H162183   3.950   3.242   0.139 -0.2155 -0.4783  0.5349
13564TIP3    H262184   3.806   3.290   0.141  0.1036  0.5903 -0.6703
13565TIP3   OH262185   0.973   1.457   0.838 -0.1360  0.1371 -0.8040
13565TIP3    H162186   0.899   1.407   0.873 -1.2516  1.1204 -1.6987
13565TIP3    H262187   0.937   1.544   0.821  2.0243  1.7057  1.8300
13566TIP3   OH262188   1.693   3.376   5.928 -0.3347 -0.5285 -0.2306
13566TIP3    H162189   1.718   3.283   5.924 -0.2775 -0.5027 -0.5132
13566TIP3    H262190   1.638   3.389   5.851  0.6044 -0.0490 -0.8365
13567TIP3   OH262191   5.232   3.967  15.449 -0.3155  1.0846 -0.3917
13567TIP3    H162192   5.318   3.927  15.435 -0.6398  0.0795  0.4107
13567TIP3    H262193   5.252   4.053  15.488  0.3513  1.3347 -1.2525
13568TIP3   OH262194   0.250   6.656  12.140  0.0466  0.1929  0.2117
13568TIP3    H162195   0.165   6.620  12.164  0.2359  0.5517  1.5287
13568TIP3    H262196   0.263   6.729  12.201  2.4838 -1.5250  2.0054
13569TIP3   OH262197   1.227   5.429  14.476 -0.6169  0.3797 -0.0514
13569TIP3    H162198   1.310   5.476  14.466 -1.1796  1.4755  0.2623
13569TIP3    H262199   1.201   5.407  14.386  0.0918 -0.1137 -0.1372
13570TIP3   OH262200   2.892   5.830  15.800  0.6295 -0.0642 -0.2784
13570TIP3    H162201   2.898   5.740  15.767 -0.0427  0.6323 -2.4658
13570TIP3    H262202   2.977   5.845  15.841  1.5050 -1.0827 -1.6071
13571TIP3   OH262203   1.891   5.644  16.278  0.2233  0.0872  0.0421
13571TIP3    H162204   1.840   5.645  16.196 -0.5145 -1.4800  0.4353
13571TIP3    H262205   1.861   5.565  16.323  0.5311  0.9847  1.8938
13572TIP3   OH262206   4.080   5.170  11.637 -0.1691 -0.5664  0.0251
13572TIP3    H162207   4.021   5.229  11.590  0.6528  0.3833  0.1360
13572TIP3    H262208   4.027   5.094  11.658 -0.5035 -1.2234 -2.7653
13573TIP3   OH262209   3.317   6.413   2.614  0.2364 -0.3719 -0.3467
13573TIP3    H162210   3.242   6.355   2.615  0.0634 -0.2228 -1.9645
13573TIP3    H262211   3.390   6.359   2.643 -0.0979 -1.1600 -0.9296
13574TIP3   OH262212   4.238   4.544   3.474  0.1532  0.4546 -0.1110
13574TIP3    H162213   4.309   4.566   3.414  0.6089 -0.4802  0.0676
13574TIP3    H262214   4.270   4.573   3.560  0.6298 -0.5766  0.0780
13575TIP3   OH262215   5.645   5.325  12.609 -0.1712  0.3564 -0.6306
13575TIP3    H162216   5.680   5.404  12.650 -0.0561 -0.0069 -0.0126
13575TIP3    H262217   5.714   5.259  12.622 -0.2557  0.1621 -1.1637
13576TIP3   OH262218   6.204   3.944  11.388 -0.4171 -0.2837  0.1522
13576TIP3    H162219   6.293   3.979  11.383  0.5511 -2.5889  0.2904
13576TIP3    H262220   6.193   3.894  11.308 -2.5806  1.9546 -1.0974
13577TIP3   OH262221   3.035   4.418   0.582 -0.4019  0.3995  0.0120
13577TIP3    H162222   2.971   4.348   0.567  1.0907 -1.0731  0.2251
13577TIP3    H262223   3.010   4.457   0.665 -2.0937  1.1069 -0.7869
13578TIP3   OH262224   5.715   6.113  13.336 -0.0010  0.0770 -0.0060
13578TIP3    H162225   5.628   6.144  13.312 -0.2844 -0.2161  0.6160
13578TIP3    H262226   5.716   6.021  13.310  0.2927  0.1950 -0.4319
13579TIP3   OH262227   5.073   4.946   0.978  0.6120  0.6898 -0.3182
13579TIP3    H162228   4.984   4.910   0.977  0.5014  0.9614 -0.2129
13579TIP3    H262229   5.113   4.909   1.056  0.7491  0.1852 -0.6227
13580TIP3   OH262230   4.079   2.642  16.088  0.3351 -0.5660 -0.0901
13580TIP3    H162231   4.156   2.695  16.067  0.5836  0.1762  2.2899
13580TIP3    H262232   4.004   2.700  16.074  0.5614  0.2730  1.7834
13581TIP3   OH262233   4.696   0.926  13.012  0.1379 -0.1145 -0.5892
13581TIP3    H162234   4.745   0.914  12.930 -0.8163  1.0672 -1.3603
13581TIP3    H262235   4.688   0.837  13.047 -0.6192 -0.8638 -2.4895
13582TIP3   OH262236   3.030   4.591  11.504 -0.0338  0.3550 -0.0651
13582TIP3    H162237   3.015   4.684  11.524 -1.0754  0.0375  0.7157
13582TIP3    H262238   2.943   4.553  11.503  0.2961 -0.4313 -1.4334
13583TIP3   OH262239   3.872   5.543   6.652  0.5249 -0.2273 -0.2140
13583TIP3    H162240   3.909   5.475   6.597 -0.6047  0.6054 -2.1230
13583TIP3    H262241   3.792   5.570   6.606  0.7137  2.0873  0.6534
13584TIP3   OH262242   1.442   1.812   5.018  0.7048  0.1692 -0.4538
13584TIP3    H162243   1.533   1.796   4.992  0.1378 -2.8742 -0.9327
13584TIP3    H262244   1.396   1.731   4.996 -2.2389  1.7349 -0.5673
13585TIP3   OH262245   3.589   6.298  16.277  0.3578  0.1939  0.2275
13585TIP3    H162246   3.672   6.344  16.266  0.0828  0.3482 -1.6771
13585TIP3    H262247   3.552   6.332  16.358  2.1862  0.0413  1.1560
13586TIP3   OH262248   1.808   3.690   0.900 -0.8769  0.3828 -0.1156
13586TIP3    H162249   1.818   3.628   0.827  1.9480  0.8798 -0.2838
13586TIP3    H262250   1.754   3.644   0.964 -2.3892 -0.5630 -1.9741
13587TIP3   OH262251   1.567   3.987   5.843  0.0038 -0.2541 -0.0920
13587TIP3    H162252   1.579   3.991   5.748  0.0436  0.7016 -0.0554
13587TIP3    H262253   1.591   3.897   5.866  1.6827 -0.0206 -0.7563
13588TIP3   OH262254   0.650   4.022   5.358  0.0503 -0.2689 -0.4637
13588TIP3    H162255   0.665   4.024   5.264  0.6809 -1.1449 -0.3880
13588TIP3    H262256   0.577   3.961   5.369  0.2726 -0.5105 -0.3433
13589TIP3   OH262257   0.485   2.127   1.597  0.2927 -0.0351  0.4514
13589TIP3    H162258   0.460   2.174   1.676  0.8501  0.5683  0.2746
13589TIP3    H262259   0.402   2.095   1.561 -0.0581  0.5292  0.7475
13590TIP3   OH262260   3.658   5.604   6.470  0.0247 -0.6084  0.5690
13590TIP3    H162261   3.665   5.694   6.437  2.6078 -0.9262 -0.0239
13590TIP3    H262262   3.616   5.555   6.400 -0.4552 -0.0693  0.4739
13591TIP3   OH262263   2.964   4.418  12.116  0.0103 -0.5478 -0.0168
13591TIP3    H162264   2.929   4.333  12.143 -1.9711  0.0791 -0.4644
13591TIP3    H262265   2.912   4.482  12.165 -0.8444  0.4830 -2.1651
13592TIP3   OH262266   0.772   1.624   4.271  0.1563 -0.1288 -0.3307
13592TIP3    H162267   0.811   1.586   4.193  0.0943  0.6133 -0.7356
13592TIP3    H262268   0.846   1.642   4.329  0.2910  0.0690 -0.5592
13593TIP3   OH262269   3.675   0.925  10.895 -0.3622  0.3665 -0.0248
13593TIP3    H162270   3.610   0.903  10.828  0.7014 -1.6579 -0.4992
13593TIP3    H262271   3.747   0.965  10.846  0.2658 -0.7874 -0.0771
13594TIP3   OH262272   5.255   2.549   0.823  0.4379  0.5922 -0.5354
13594TIP3    H162273   5.162   2.557   0.843  0.5278 -1.8528  1.3376
13594TIP3    H262274   5.284   2.639   0.805 -1.8355  1.6865  0.8883
13595TIP3   OH262275   5.978   3.708  15.473  0.0593  0.7819 -0.5067
13595TIP3    H162276   5.943   3.644  15.410  0.9280  1.0389 -1.2716
13595TIP3    H262277   5.901   3.737  15.522 -0.3609 -0.8674 -0.1035
13596TIP3   OH262278   0.916   0.623  11.704  0.5030  0.0657 -0.8097
13596TIP3    H162279   0.847   0.612  11.769  0.6465 -2.5907 -0.9899
13596TIP3    H262280   0.993   0.647  11.756  0.2161 -0.3443 -0.1695
13597TIP3   OH262281   1.651   1.353  14.548  0.2040  0.6682  0.1140
13597TIP3    H162282   1.728   1.306  14.515  0.5960 -0.8109  2.8372
13597TIP3    H262283   1.687   1.414  14.613 -0.8404  0.4895  0.8810
13598TIP3   OH262284   4.990   2.003  14.992  0.0095  0.1669 -0.1904
13598TIP3    H162285   5.024   2.085  15.026  1.8110  0.0497 -1.5688
13598TIP3    H262286   4.935   1.968  15.062  2.0045  0.8532  1.8146
13599TIP3   OH262287   3.772   0.690  13.664 -0.1371  0.0603  0.0987
13599TIP3    H162288   3.851   0.660  13.620 -1.3221 -2.1736 -0.6776
13599TIP3    H262289   3.793   0.688  13.757  1.6777  2.6610 -0.1350
13600TIP3   OH262290   4.128   4.904   1.735  0.5332 -0.0582  0.4095
13600TIP3    H162291   4.199   4.965   1.755  1.7852 -0.3480 -2.7338
13600TIP3    H262292   4.069   4.912   1.810  2.4086  2.3406  1.7817
13601TIP3   OH262293   2.859   5.801   3.187  0.1164 -0.4906 -0.2646
13601TIP3    H162294   2.917   5.831   3.256  0.0394  1.6413 -1.0593
13601TIP3    H262295   2.771   5.826   3.217  0.0869  0.4921 -1.1090
13602TIP3   OH262296   0.759   1.732   2.512  0.6882 -0.5391  0.8178
13602TIP3    H162297   0.738   1.808   2.459 -0.7208 -1.0116  0.6736
13602TIP3    H262298   0.703   1.741   2.589  1.4219 -0.7933  1.3932
13603TIP3   OH262299   3.098   4.693  15.803 -0.1301 -0.1118 -0.5331
13603TIP3    H162300   3.005   4.715  15.806 -0.1607 -0.3351  0.8510
13603TIP3    H262301   3.141   4.762  15.854  0.4205 -0.2089 -0.8562
13604TIP3   OH262302   5.793   5.896  17.020  0.7447  0.0151  0.0083
13604TIP3    H162303   5.730   5.944  16.966  0.6593  0.1832  0.2553
13604TIP3    H262304   5.759   5.905  17.109  0.9126 -0.2167  0.0960
13605TIP3   OH262305   2.529   2.303  16.397 -0.2509 -0.1460  0.0710
13605TIP3    H162306   2.510   2.261  16.313  1.0637 -1.1685  0.2409
13605TIP3    H262307   2.619   2.335  16.387  0.1806 -0.8953  1.2969
13606TIP3   OH262308   3.690   0.075  16.522  0.3805 -0.5049  0.8172
13606TIP3    H162309   3.672   0.041  16.435  1.5688  0.3509  0.2155
13606TIP3    H262310   3.645   0.159  16.526  0.5731 -0.4030  0.9068
13607TIP3   OH262311   3.035   3.907  12.742  0.2715 -0.0084  0.4433
13607TIP3    H162312   3.077   3.859  12.671 -0.4691  2.2699 -1.6873
13607TIP3    H262313   3.068   3.997  12.733 -1.3286  0.7728  1.7449
13608TIP3   OH262314   1.252   4.094  11.742  0.9246  0.3467 -0.4186
13608TIP3    H162315   1.272   4.000  11.744 -1.4739 -0.2069  1.6068
13608TIP3    H262316   1.174   4.100  11.687  0.0568  0.9052  0.8506
13609TIP3   OH262317   2.436   4.879   4.143  0.1809  0.6594 -0.3523
13609TIP3    H162318   2.417   4.885   4.050  0.6334  0.6296 -0.4477
13609TIP3    H262319   2.507   4.941   4.158  1.5227 -0.7990 -0.4269
13610TIP3   OH262320   5.653   2.867   2.149  0.0876 -0.1902  0.5166
13610TIP3    H162321   5.566   2.845   2.182 -0.2975  0.4256 -0.0471
13610TIP3    H262322   5.664   2.815   2.069 -0.4828  0.9575 -0.3538
13611TIP3   OH262323   4.422   0.925  15.444 -0.6421  0.4653  0.1729
13611TIP3    H162324   4.460   0.866  15.509  0.1766 -1.1516 -1.6705
13611TIP3    H262325   4.494   0.984  15.420 -1.1504  1.5480  1.2110
13612TIP3   OH262326   1.338   3.583  13.562 -0.0978 -0.4933 -0.2925
13612TIP3    H162327   1.344   3.529  13.484 -2.6685 -2.2399  0.5760
13612TIP3    H262328   1.368   3.525  13.633  1.2794  0.7321  0.1608
13613TIP3   OH262329   2.693   4.765  14.175  0.0047  1.2736  0.7636
13613TIP3    H162330   2.753   4.834  14.147  0.9837 -0.2301 -1.0849
13613TIP3    H262331   2.624   4.765  14.109  0.8216 -0.4580 -0.1503
13614TIP3   OH262332   5.610   0.887   4.124  0.0561 -0.5413 -0.1313
13614TIP3    H162333   5.521   0.894   4.159 -0.0359  1.4332 -0.6481
13614TIP3    H262334   5.630   0.975   4.092  1.7461 -1.2526 -1.1391
13615TIP3   OH262335   0.941   4.664   6.315 -0.4165  0.2313  0.3049
13615TIP3    H162336   0.907   4.721   6.384  0.6718  0.9128  0.3032
13615TIP3    H262337   1.035   4.660   6.332 -0.2637 -0.3258 -0.6158
13616TIP3   OH262338   3.201   4.016  10.613 -1.3082 -0.0182 -0.5212
13616TIP3    H162339   3.291   4.021  10.644 -1.7439  3.4778  0.5344
13616TIP3    H262340   3.192   3.926  10.582  1.7763 -1.2080  1.5601
13617TIP3   OH262341   6.221   3.057  12.812 -0.0207 -0.5909 -0.0240
13617TIP3    H162342   6.300   3.109  12.793 -2.1757  2.0651 -2.7268
13617TIP3    H262343   6.227   2.982  12.754  0.1263  0.1004 -0.9284
13618TIP3   OH262344   1.567   3.371   0.887 -0.3985  0.2772  0.0747
13618TIP3    H162345   1.534   3.406   0.969 -2.1752 -0.5019 -0.2639
13618TIP3    H262346   1.610   3.289   0.911 -0.9470  0.0341  0.2200
13619TIP3   OH262347   2.218   1.928   0.629 -0.3542  0.3778 -0.1027
13619TIP3    H162348   2.204   1.988   0.703 -0.5341  0.9261 -0.5775
13619TIP3    H262349   2.147   1.947   0.568 -0.6434 -0.6057 -0.0827
13620TIP3   OH262350   3.193   1.251  12.037  0.2409 -0.3605  0.1923
13620TIP3    H162351   3.137   1.175  12.025  0.4699 -0.4132 -0.5930
13620TIP3    H262352   3.166   1.288  12.121 -3.5770  1.7519 -1.6826
13621TIP3   OH262353   3.424   3.062   0.106  0.0544 -0.4257  0.1229
13621TIP3    H162354   3.408   2.975   0.070 -1.6425 -0.2552  0.3928
13621TIP3    H262355   3.337   3.097   0.124  0.7640  0.4230  2.1934
13622TIP3   OH262356   2.840   4.169  13.052 -0.3589  0.0063 -0.1900
13622TIP3    H162357   2.858   4.075  13.048 -0.1217  0.0571 -0.3164
13622TIP3    H262358   2.850   4.192  13.144 -0.8997 -0.1882 -0.0806
13623TIP3   OH262359   6.655   3.366  13.978  0.0575  0.3423  0.2315
13623TIP3    H162360   6.563   3.345  13.993 -0.0248  1.1323  0.8460
13623TIP3    H262361   6.680   3.311  13.903 -0.8500 -0.0209  0.1878
13624TIP3   OH262362   6.125   3.291   0.320  0.6952  0.4255 -0.2384
13624TIP3    H162363   6.055   3.282   0.385  0.2740  1.0513 -0.5889
13624TIP3    H262364   6.203   3.313   0.371  0.6249 -0.2041  0.1496
13625TIP3   OH262365   1.705   3.111  14.468 -0.1622  0.2858  0.6478
13625TIP3    H162366   1.656   3.118  14.550  0.2140  2.2274  0.7716
13625TIP3    H262367   1.687   3.194  14.422 -0.7703 -0.9508 -1.4929
13626TIP3   OH262368   4.211   3.722   3.739  0.0056  0.2567  0.0339
13626TIP3    H162369   4.158   3.788   3.784  0.5639  0.7361 -0.0035
13626TIP3    H262370   4.159   3.642   3.744 -0.0884  0.3782  1.2464
13627TIP3   OH262371   4.055   3.250   3.274 -0.2243  0.6329 -0.1055
13627TIP3    H162372   3.971   3.295   3.281  0.3434  1.6117  0.6017
13627TIP3    H262373   4.038   3.162   3.306 -0.9844  0.8178  0.0210
13628TIP3   OH262374   3.114   2.760  14.994 -0.0822  0.0355  0.5338
13628TIP3    H162375   3.165   2.816  14.935 -0.9101  0.2096 -0.0250
13628TIP3    H262376   3.054   2.820  15.039  1.2239  0.0792  2.3671
13629TIP3   OH262377   2.996   3.840  14.458  0.0118 -0.4477 -0.0093
13629TIP3    H162378   3.031   3.766  14.409  1.2396  1.1656 -1.7199
13629TIP3    H262379   2.965   3.901  14.391 -3.8860 -0.6503  1.3654
13630TIP3   OH262380   1.464   0.690  11.742  0.6383 -0.1195 -0.3572
13630TIP3    H162381   1.411   0.766  11.768  0.2712 -0.8037  1.0000
13630TIP3    H262382   1.553   0.713  11.771  0.4379 -0.3915  0.5217
13631TIP3   OH262383   4.348   2.253  12.549  0.2737 -0.5666 -0.6247
13631TIP3    H162384   4.281   2.186  12.565 -0.0572 -0.4218 -1.3750
13631TIP3    H262385   4.314   2.305  12.476  1.2872 -0.6066 -1.1488
13632TIP3   OH262386   4.828   3.583   2.315  0.2413  0.1931  0.1393
13632TIP3    H162387   4.921   3.569   2.297  0.5667  1.5852  0.5956
13632TIP3    H262388   4.783   3.526   2.253  1.3978  0.5875 -1.1164
13633TIP3   OH262389   0.874   2.202   6.363  0.0323 -0.1435 -0.2003
13633TIP3    H162390   0.919   2.284   6.345  2.1950 -1.2112 -0.0413
13633TIP3    H262391   0.782   2.220   6.346  0.5375  2.1058 -0.8140
13634TIP3   OH262392   4.077   0.649  11.119  0.5185 -0.1268 -0.1975
13634TIP3    H162393   4.009   0.652  11.052  1.5695 -0.0226 -1.2977
13634TIP3    H262394   4.034   0.610  11.196 -0.8258  0.1645 -0.7761
13635TIP3   OH262395   3.355   2.676  14.123  0.9731  0.1467 -0.0796
13635TIP3    H162396   3.290   2.606  14.125  0.3226  0.7468 -0.0715
13635TIP3    H262397   3.416   2.650  14.053  1.8254 -1.3675  1.1536
13636TIP3   OH262398   4.866   3.473  16.173 -0.4638  0.2007  0.0739
13636TIP3    H162399   4.878   3.378  16.167  1.5402  0.3180  1.2427
13636TIP3    H262400   4.813   3.496  16.097 -2.6780 -2.0794  0.8292
13637TIP3   OH262401   4.606   3.849   1.492 -0.0174 -0.0035 -0.5637
13637TIP3    H162402   4.579   3.921   1.435 -0.6123 -0.0150 -0.2998
13637TIP3    H262403   4.537   3.783   1.482  0.9868 -0.9466 -1.5269
13638TIP3   OH262404   1.173   1.434  16.506 -0.1972 -0.4571 -0.2814
13638TIP3    H162405   1.132   1.519  16.523  0.0885 -0.1690 -1.0233
13638TIP3    H262406   1.162   1.420  16.412 -0.3681 -1.3101 -0.1436
13639TIP3   OH262407   2.187   4.793  12.272  0.4958  0.6751  0.0094
13639TIP3    H162408   2.135   4.847  12.214 -1.1155 -1.4851 -0.6865
13639TIP3    H262409   2.165   4.824  12.360  0.6675  1.9941 -0.3888
13640TIP3   OH262410   6.418   1.774   3.767  0.0409  0.2654  0.1975
13640TIP3    H162411   6.369   1.768   3.685  1.4733  2.5229 -0.9213
13640TIP3    H262412   6.485   1.706   3.759  0.5079  0.8142 -0.7809
13641TIP3   OH262413   5.369   6.594   5.435 -0.6212  0.3879 -0.3093
13641TIP3    H162414   5.389   6.506   5.468  0.7978  0.8360  0.0585
13641TIP3    H262415   5.448   6.645   5.452 -1.3490  1.6902 -0.7214
13642TIP3   OH262416   2.251   5.650  16.879 -0.4827  0.4544  0.3179
13642TIP3    H162417   2.229   5.725  16.933  1.2020  1.5162 -0.3820
13642TIP3    H262418   2.339   5.669  16.846  0.4630 -2.3155  0.9606
13643TIP3   OH262419   3.244   0.148   4.112 -0.2566  0.1088  0.1652
13643TIP3    H162420   3.282   0.072   4.067  0.4630 -0.8567  2.2548
13643TIP3    H262421   3.298   0.158   4.190 -0.1313  3.0266 -0.1939
13644TIP3   OH262422   0.098   5.175  13.248  0.7791 -0.5657  0.6047
13644TIP3    H162423   0.172   5.133  13.203  0.1967  1.0266 -2.0537
13644TIP3    H262424   0.131   5.262  13.272 -0.0116 -0.0973  0.0208
13645TIP3   OH262425   3.757   5.948   0.414  0.1309  0.1203  0.6780
13645TIP3    H162426   3.813   6.019   0.444 -0.0370  0.0177  1.2303
13645TIP3    H262427   3.709   5.920   0.491 -0.6375  0.1593  0.2304
13646TIP3   OH262428   6.260   4.270  14.198 -0.1258  0.0906 -0.2076
13646TIP3    H162429   6.179   4.237  14.238  0.6890 -3.0046 -0.8902
13646TIP3    H262430   6.230   4.326  14.126 -1.6790 -0.8370 -0.3180
13647TIP3   OH262431   2.912   4.449   1.402  0.4300 -0.2613 -0.4538
13647TIP3    H162432   2.993   4.423   1.445 -0.2903  0.8285  1.7002
13647TIP3    H262433   2.876   4.368   1.365  0.4454 -1.5628  2.1806
13648TIP3   OH262434   1.767   1.752   4.278  0.6056 -0.2470 -0.4897
13648TIP3    H162435   1.833   1.702   4.230  2.3472 -0.0316  1.5463
13648TIP3    H262436   1.818   1.809   4.336 -1.3780  1.2987 -0.1695
13649TIP3   OH262437   3.278   6.317  12.383 -0.3382 -0.2089 -0.6702
13649TIP3    H162438   3.331   6.239  12.369 -0.8431 -0.5185 -0.8646
13649TIP3    H262439   3.328   6.368  12.448 -0.3987 -1.0740  0.0772
13650TIP3   OH262440   1.052   6.114  14.619 -0.0902  0.1257  0.1635
13650TIP3    H162441   0.990   6.187  14.620  0.6153  0.8264  2.8415
13650TIP3    H262442   1.062   6.090  14.712  1.5271 -1.8010 -0.4329
13651TIP3   OH262443   6.052   2.418   2.872 -0.2125  0.2267  0.1530
13651TIP3    H162444   5.983   2.385   2.929  0.3915 -0.5333  0.4499
13651TIP3    H262445   6.097   2.485   2.924  0.7738 -0.9437  0.8404
13652TIP3   OH262446   3.620   4.302   5.205  0.3621 -1.0023  0.0961
13652TIP3    H162447   3.628   4.398   5.211  1.0229 -1.1197  1.3724
13652TIP3    H262448   3.596   4.274   5.293  0.4815 -2.0508 -0.1916
13653TIP3   OH262449   4.139   3.097  13.695 -0.4498 -0.2821 -0.2467
13653TIP3    H162450   4.097   3.181  13.681 -0.5331 -0.7062 -2.9538
13653TIP3    H262451   4.169   3.100  13.786 -0.4928  2.6200 -0.2623
13654TIP3   OH262452   0.220   3.441   2.545 -0.0167 -0.2376  0.0361
13654TIP3    H162453   0.219   3.535   2.565  1.0927  0.3118 -2.1819
13654TIP3    H262454   0.128   3.414   2.554  0.0510  0.3100  3.6041
13655TIP3   OH262455   6.605   6.031  13.512  0.2686 -0.4179 -0.0754
13655TIP3    H162456   6.557   6.083  13.447 -0.7337 -0.5203  0.5552
13655TIP3    H262457   6.633   6.094  13.578 -0.1227 -0.5254  0.2026
13656TIP3   OH262458   4.829   6.570   1.598 -0.1552 -0.2051  0.2594
13656TIP3    H162459   4.800   6.660   1.588  2.7032  0.8675  0.5425
13656TIP3    H262460   4.753   6.517   1.576 -2.1354  2.2525  0.7431
13657TIP3   OH262461   6.613   3.984   0.575  0.6028  0.3389 -0.0605
13657TIP3    H162462   6.541   3.991   0.638  0.9734 -0.2738  0.4477
13657TIP3    H262463   6.580   4.025   0.495 -0.1835  0.3689  0.2740
13658TIP3   OH262464   1.258   4.164  13.426 -0.3458 -0.2482 -0.0612
13658TIP3    H162465   1.271   4.086  13.480 -0.9569 -1.0197 -0.9998
13658TIP3    H262466   1.303   4.145  13.344 -0.4596  0.4089 -0.2824
13659TIP3   OH262467   3.602   1.588  15.579 -0.5002  0.1960  0.5087
13659TIP3    H162468   3.598   1.551  15.491 -0.2249  0.7953  0.2395
13659TIP3    H262469   3.592   1.513  15.637  0.0908 -0.3066 -0.0265
13660TIP3   OH262470   4.936   1.815  14.421  0.0751  0.3465  0.4354
13660TIP3    H162471   4.944   1.840  14.329 -0.3957 -0.4190  0.1765
13660TIP3    H262472   4.857   1.761  14.424  0.6232 -0.4352  1.1189
13661TIP3   OH262473   1.347   5.949  15.090 -0.2701 -0.3344  0.0212
13661TIP3    H162474   1.362   6.043  15.081 -2.2049  0.0801  0.6117
13661TIP3    H262475   1.364   5.930  15.182  1.0926 -0.7905 -0.3042
13662TIP3   OH262476   4.269   0.111   4.423 -0.7436 -0.1171 -0.5671
13662TIP3    H162477   4.193   0.070   4.381  0.2028 -1.5797 -0.9118
13662TIP3    H262478   4.280   0.195   4.377  0.3392 -1.6926 -3.4219
13663TIP3   OH262479   5.698   5.827  12.492 -0.4044 -0.5824  0.0625
13663TIP3    H162480   5.627   5.870  12.541 -0.6747 -0.6896 -0.2337
13663TIP3    H262481   5.655   5.759  12.441  0.2525 -2.6788  2.1151
13664TIP3   OH262482   6.669   3.830   4.644  0.1324 -0.9155 -0.1748
13664TIP3    H162483   6.695   3.789   4.562 -0.2854  0.5000 -1.0434
13664TIP3    H262484   6.573   3.837   4.638  0.2531  1.1104 -0.5503
13665TIP3   OH262485   1.759   2.819  14.916 -0.2406 -0.6374 -0.7199
13665TIP3    H162486   1.739   2.835  14.823  0.6282 -0.9813 -0.9795
13665TIP3    H262487   1.682   2.773  14.949  0.1753 -2.1422 -1.7406
13666TIP3   OH262488   1.807   0.772  13.010 -0.0199 -0.8008 -0.3674
13666TIP3    H162489   1.779   0.681  13.004  0.1989 -0.9234  0.3785
13666TIP3    H262490   1.838   0.794  12.922 -1.2473 -1.0520 -0.8768
13667TIP3   OH262491   4.445   2.982   3.646 -0.1543 -0.4765 -0.2027
13667TIP3    H162492   4.411   2.893   3.638  0.1573 -0.5471 -0.8497
13667TIP3    H262493   4.375   3.031   3.688 -1.2745 -0.5118 -1.9194
13668TIP3   OH262494   2.104   2.100   5.130  0.7097 -0.2549  0.2644
13668TIP3    H162495   2.196   2.089   5.155  0.4697 -4.7324 -0.1060
13668TIP3    H262496   2.057   2.103   5.214  0.9734 -1.4631  0.4756
13669TIP3   OH262497   6.270   0.925   1.067 -0.5321  0.2163  0.5024
13669TIP3    H162498   6.249   0.855   1.005 -3.1350 -0.7979  2.3457
13669TIP3    H262499   6.345   0.893   1.116 -0.7468 -0.6100  0.2988
13670TIP3   OH262500   4.938   6.424   5.398 -0.1307  0.5374  0.2612
13670TIP3    H162501   4.955   6.517   5.381 -0.1970  0.4928 -0.0518
13670TIP3    H262502   4.880   6.424   5.475 -0.4578  0.7726  0.0207
13671TIP3   OH262503   1.206   0.318  16.985  0.0448 -0.2976  0.5702
13671TIP3    H162504   1.212   0.390  17.049 -1.5010  0.5470 -0.1823
13671TIP3    H262505   1.253   0.351  16.908 -1.9379  0.5913 -0.3232
13672TIP3   OH262506   3.725   4.325  11.941  0.3829  0.1580 -0.5309
13672TIP3    H162507   3.809   4.362  11.915  0.4862  0.8293  0.7258
13672TIP3    H262508   3.727   4.235  11.906  0.7642  0.7949 -2.2440
13673TIP3   OH262509   2.750   5.514   1.037  0.3671  0.6097  0.1806
13673TIP3    H162510   2.804   5.482   0.965 -0.7200  0.9244 -0.8004
13673TIP3    H262511   2.756   5.609   1.031  0.5012  0.6355  0.6895
13674TIP3   OH262512   3.086   5.426   6.002 -0.0809  0.0244 -0.2709
13674TIP3    H162513   3.025   5.399   6.070  0.8739  0.0052  0.5995
13674TIP3    H262514   3.171   5.432   6.046 -0.1199  4.3902 -0.2775
13675TIP3   OH262515   6.042   6.182   0.157  0.2315 -0.9092  0.5345
13675TIP3    H162516   5.997   6.173   0.073  1.6661 -2.5628 -0.1194
13675TIP3    H262517   5.981   6.143   0.221 -0.9055  0.4368  0.3138
13676TIP3   OH262518   0.016   0.607   0.550  0.3003 -0.1035  0.5972
13676TIP3    H162519   0.048   0.684   0.503  0.2908 -0.6927 -0.3970
13676TIP3    H262520   0.081   0.593   0.619  2.6238 -1.5978 -1.7026
13677TIP3   OH262521   6.751   3.313  12.941  0.1586 -0.0574 -0.5681
13677TIP3    H162522   6.772   3.225  12.974  0.5724  0.1990 -0.1342
13677TIP3    H262523   6.770   3.309  12.847 -0.7668 -0.7168 -0.7436
13678TIP3   OH262524   1.476   4.477  16.519 -0.1744  0.7384  0.1001
13678TIP3    H162525   1.509   4.502  16.433 -0.5575  0.2260 -0.2016
13678TIP3    H262526   1.514   4.390  16.535 -1.7867 -0.1167 -0.5059
13679TIP3   OH262527   4.467   0.681  14.919 -0.3187  0.1218 -0.2917
13679TIP3    H162528   4.411   0.631  14.978  1.1810  0.0952  1.1727
13679TIP3    H262529   4.491   0.759  14.968 -0.7716  1.1885 -1.6966
13680TIP3   OH262530   5.730   5.829   3.301 -0.1242  0.2142 -0.3118
13680TIP3    H162531   5.685   5.770   3.361 -1.0190  0.2082 -0.9678
13680TIP3    H262532   5.669   5.902   3.289  0.3681  0.5801 -0.6110
13681TIP3   OH262533   2.158   4.371   3.942  0.5067  0.0795  0.1148
13681TIP3    H162534   2.208   4.290   3.952  0.6340  0.2957  1.4048
13681TIP3    H262535   2.190   4.409   3.860 -0.2329 -1.6261 -1.0486
13682TIP3   OH262536   2.051   4.445   4.614 -0.0238 -0.7017 -0.0805
13682TIP3    H162537   2.130   4.484   4.653  1.0806 -3.8884  1.2044
13682TIP3    H262538   2.061   4.459   4.520  0.9730  0.7842  0.2052
13683TIP3   OH262539   2.700   5.331  15.583 -0.1575 -0.0561  0.0058
13683TIP3    H162540   2.696   5.306  15.491  1.1874  0.0761 -0.0988
13683TIP3    H262541   2.641   5.270  15.627 -0.9950  0.0359 -0.9624
13684TIP3   OH262542   2.854   5.202   3.359  0.4267 -0.1632 -0.2833
13684TIP3    H162543   2.893   5.168   3.278  0.5292  0.9382 -0.7178
13684TIP3    H262544   2.927   5.244   3.404  1.1399 -3.4612  1.9875
13685TIP3   OH262545   4.997   3.671   3.991 -0.4019  0.4152 -0.9809
13685TIP3    H162546   5.019   3.578   3.983 -0.7366  0.1065  1.1290
13685TIP3    H262547   4.902   3.673   3.985 -0.4840  0.4506  0.1558
13686TIP3   OH262548   3.136   0.898  13.474  0.1923 -0.5166  0.5084
13686TIP3    H162549   3.222   0.871  13.441 -0.0425  0.5024 -1.0311
13686TIP3    H262550   3.135   0.868  13.565  1.6374 -1.7451  0.1596
13687TIP3   OH262551   5.386   4.893  15.138 -0.1658  0.1146 -0.1299
13687TIP3    H162552   5.430   4.821  15.094  0.1085 -0.1748  0.6107
13687TIP3    H262553   5.456   4.945  15.177 -0.4652 -0.7593  1.6932
13688TIP3   OH262554   4.763   3.564  12.511 -0.1494  0.2960 -0.8425
13688TIP3    H162555   4.814   3.643  12.526 -1.3415  0.9311  0.0170
13688TIP3    H262556   4.699   3.563  12.582 -0.4841 -1.1773 -1.1342
13689TIP3   OH262557   1.964   6.211  14.545 -0.3535 -0.8870 -0.4884
13689TIP3    H162558   1.875   6.240  14.561  0.0828  0.4940 -0.4812
13689TIP3    H262559   2.017   6.291  14.546  0.7374 -1.5553 -1.5359
13690TIP3   OH262560   2.318   4.402   2.931 -0.6568 -0.4175 -0.3950
13690TIP3    H162561   2.255   4.375   2.864  1.2651 -1.9242 -1.6962
13690TIP3    H262562   2.336   4.494   2.910  0.4545 -1.0442 -2.5030
13691TIP3   OH262563   1.614   3.612   1.245  0.1223  0.3966 -0.3124
13691TIP3    H162564   1.594   3.589   1.336 -0.7733  3.0225  0.2453
13691TIP3    H262565   1.710   3.611   1.241  0.2196  1.2950  1.0030
13692TIP3   OH262566   2.673   1.810   4.425 -0.8230 -0.0051  0.4330
13692TIP3    H162567   2.676   1.818   4.520 -0.7726  0.5164  0.3936
13692TIP3    H262568   2.682   1.900   4.393  1.0760 -0.3325 -0.1107
13693TIP3   OH262569   0.869   5.291   0.004 -0.1261 -0.2809  0.6859
13693TIP3    H162570   0.865   5.268  -0.089  1.7972 -1.5008  0.8497
13693TIP3    H262571   0.815   5.225   0.048 -0.9828  0.2572  0.4651
13694TIP3   OH262572   1.898   4.725  17.296  0.1078  0.1089  0.0232
13694TIP3    H162573   1.852   4.717  17.213 -0.3371 -2.3892  0.4211
13694TIP3    H262574   1.989   4.743  17.272 -0.1392  0.0746 -0.9784
13695TIP3   OH262575   3.106   1.333  13.992 -0.7242 -0.2932 -0.1672
13695TIP3    H162576   3.095   1.321  13.898 -0.0795  2.0003 -0.6036
13695TIP3    H262577   3.185   1.386  14.001 -0.5993 -0.7026  1.7060
13696TIP3   OH262578   0.264   0.529  11.237 -0.0490 -0.2136 -0.1765
13696TIP3    H162579   0.281   0.510  11.145  0.9793 -0.1552 -0.0081
13696TIP3    H262580   0.319   0.467  11.285  0.9406  1.0639  0.3830
13697TIP3   OH262581   1.135   3.861  16.603 -0.7066 -0.1277 -0.1719
13697TIP3    H162582   1.124   3.805  16.680  0.2199 -0.2962 -0.1426
13697TIP3    H262583   1.050   3.904  16.591 -0.9415 -0.3094  0.7779
13698TIP3   OH262584   5.519   5.791   2.049 -0.0458 -0.0478 -0.0556
13698TIP3    H162585   5.569   5.833   1.979  0.9461 -1.4569 -0.2370
13698TIP3    H262586   5.584   5.738   2.096 -0.7522  0.5959  1.7410
13699TIP3   OH262587   0.074   5.857   0.549  0.2571 -0.2890  0.1942
13699TIP3    H162588  -0.004   5.885   0.502  0.3315 -0.2296  0.1050
13699TIP3    H262589   0.100   5.775   0.508 -0.4107 -0.9069  0.9665
13700TIP3   OH262590   3.902   2.332   1.276 -0.2969 -0.4249  0.2916
13700TIP3    H162591   3.991   2.300   1.285 -0.7322 -1.6002  0.5627
13700TIP3    H262592   3.905   2.421   1.311  0.8373 -0.3151 -0.0400
13701TIP3   OH262593   0.647   3.039   4.085  0.1749 -0.2131 -0.2045
13701TIP3    H162594   0.569   3.094   4.076  0.3475  0.2183  0.8145
13701TIP3    H262595   0.660   3.030   4.180  1.3718 -0.2598 -0.3512
13702TIP3   OH262596   3.425   3.278   3.332 -0.0480  0.4107  0.4190
13702TIP3    H162597   3.439   3.367   3.365  0.7143  0.1149  0.9136
13702TIP3    H262598   3.389   3.230   3.406 -1.5884  0.5770 -0.1810
13703TIP3   OH262599   3.667   0.817  17.065  0.5416  0.3436  0.0654
13703TIP3    H162600   3.700   0.835  16.977  1.8840  1.8074  0.8180
13703TIP3    H262601   3.614   0.894  17.087 -0.1913 -0.2346  0.3717
13704TIP3   OH262602   6.782   5.387  11.847 -0.2561  0.0817  0.1226
13704TIP3    H162603   6.857   5.332  11.824 -0.2981 -0.0700  0.3420
13704TIP3    H262604   6.813   5.441  11.920 -0.0649  0.6940 -0.4095
13705TIP3   OH262605   1.702   3.197   2.655  0.2884  0.2053 -0.0511
13705TIP3    H162606   1.703   3.154   2.570 -1.8096  1.4083 -0.7573
13705TIP3    H262607   1.759   3.274   2.643  1.3431 -0.5210  0.1814
13706TIP3   OH262608   1.576   4.128   6.203  0.6194 -0.4485 -0.0997
13706TIP3    H162609   1.524   4.175   6.138  2.0270 -0.1473 -1.0571
13706TIP3    H262610   1.580   4.188   6.278  0.5107 -0.0098 -0.4388
13707TIP3   OH262611   2.909   2.520   3.400  0.0365 -0.3859 -0.2962
13707TIP3    H162612   2.833   2.462   3.398  0.3515 -0.8670  0.7651
13707TIP3    H262613   2.983   2.462   3.419  0.4840  0.2406 -0.0872
13708TIP3   OH262614   0.964   0.185  16.942 -0.1320 -0.4351  0.1260
13708TIP3    H162615   1.050   0.217  16.969 -0.4750 -0.1196  0.8781
13708TIP3    H262616   0.980   0.139  16.859  0.3276  2.0780 -1.2799
13709TIP3   OH262617   4.163   2.919   6.169  0.1457 -0.1440  0.4271
13709TIP3    H162618   4.133   2.976   6.098  1.1573 -0.1132  0.0222
13709TIP3    H262619   4.105   2.942   6.243 -1.5541 -0.8550 -0.6248
13710TIP3   OH262620   2.290   1.671   4.410  0.4162 -0.1877  0.2418
13710TIP3    H162621   2.351   1.620   4.463 -1.7618 -1.2022  1.9392
13710TIP3    H262622   2.234   1.606   4.368 -1.9397  0.6347  1.8600
13711TIP3   OH262623   1.442   5.843  12.123  0.4538  0.6381 -0.0471
13711TIP3    H162624   1.504   5.788  12.170 -0.6881 -0.7707 -0.1112
13711TIP3    H262625   1.373   5.863  12.187 -0.2357  0.1483 -0.6119
13712TIP3   OH262626   1.337   5.289   2.133  0.8255 -0.0844 -0.0117
13712TIP3    H162627   1.294   5.359   2.181 -1.0142 -1.7952  1.0153
13712TIP3    H262628   1.301   5.295   2.044  2.2090  1.4296 -0.5276
13713TIP3   OH262629   6.239   6.219   0.737  0.0763  0.6378  0.2282
13713TIP3    H162630   6.291   6.200   0.815 -1.1774  1.2699  1.2749
13713TIP3    H262631   6.174   6.149   0.734  0.3251  0.4304 -0.4575
13714TIP3   OH262632   5.224   6.124   1.346  0.2527  0.3010 -0.3079
13714TIP3    H162633   5.294   6.176   1.306  2.1976 -0.0535  2.3339
13714TIP3    H262634   5.221   6.155   1.437 -1.1603 -1.6012  0.3594
13715TIP3   OH262635   0.431   4.075   2.716  0.1049  0.1753 -0.1515
13715TIP3    H162636   0.363   4.032   2.769 -0.6616  1.5814  0.0732
13715TIP3    H262637   0.512   4.062   2.766 -0.2933 -0.0598  0.4499
13716TIP3   OH262638   0.060   1.844  14.622  0.1763  0.9291  0.0929
13716TIP3    H162639   0.066   1.940  14.629 -1.1424  1.1859 -1.5614
13716TIP3    H262640   0.122   1.822  14.552  0.4556  0.5795  0.4511
13717TIP3   OH262641   4.239   0.817   5.351  0.4886  0.1361 -0.1384
13717TIP3    H162642   4.195   0.769   5.281  1.1182 -1.0035  0.2211
13717TIP3    H262643   4.178   0.814   5.425  0.2765  0.4061 -0.3028
13718TIP3   OH262644   5.666   3.780   1.500  0.6258 -0.5290  0.9399
13718TIP3    H162645   5.697   3.860   1.458  0.3199 -0.4465  0.8729
13718TIP3    H262646   5.617   3.734   1.432  0.0416 -0.3461  1.2323
13719TIP3   OH262647   4.874   3.104  13.764  0.1729  0.2662  0.2224
13719TIP3    H162648   4.950   3.156  13.736  0.9864 -1.1959 -0.4044
13719TIP3    H262649   4.798   3.151  13.728  0.8763  1.0324 -0.2947
13720TIP3   OH262650   3.716   3.829   4.344 -0.2919 -0.1545 -0.1100
13720TIP3    H162651   3.631   3.847   4.303 -0.0076  0.3733 -0.4672
13720TIP3    H262652   3.773   3.900   4.314  0.6578 -1.2541 -0.9749
13721TIP3   OH262653   0.983   1.891  14.114  0.4756  0.7267 -0.0122
13721TIP3    H162654   0.996   1.824  14.181  1.3949  0.2867 -0.6209
13721TIP3    H262655   1.003   1.974  14.159  1.9485  0.3646  0.0506
13722TIP3   OH262656   6.192   3.746  12.540 -0.1051 -0.3106  0.0694
13722TIP3    H162657   6.239   3.766  12.459  2.8435 -0.8661  1.4996
13722TIP3    H262658   6.203   3.652  12.552 -0.5675 -0.2550  1.0677
13723TIP3   OH262659   0.710   6.095  13.993  0.7135 -0.0680  0.2894
13723TIP3    H162660   0.677   6.179  14.025 -0.2666 -0.1640 -0.4460
13723TIP3    H262661   0.752   6.055  14.069 -1.1968 -0.1205  1.3692
13724TIP3   OH262662   5.589   1.514  15.191  0.5992  0.1085  0.2966
13724TIP3    H162663   5.667   1.531  15.244  0.4763  2.4642 -0.1837
13724TIP3    H262664   5.549   1.600  15.179 -1.8509 -0.9871  0.1352
13725TIP3   OH262665   5.881   2.336   3.077 -0.9487  0.2067  0.3360
13725TIP3    H162666   5.913   2.282   3.149 -0.1904  0.8312  0.4788
13725TIP3    H262667   5.786   2.327   3.081 -0.8814 -0.2691  1.0158
13726TIP3   OH262668   4.703   3.039   4.211 -0.7657 -0.0300 -0.0278
13726TIP3    H162669   4.790   3.007   4.186 -0.4181  0.1335  0.9246
13726TIP3    H262670   4.642   2.981   4.166 -0.1538 -0.4819 -0.2832
13727TIP3   OH262671   1.621   1.567  16.657  0.0704  0.3470 -0.6192
13727TIP3    H162672   1.646   1.543  16.746 -0.0909 -0.4645 -0.7800
13727TIP3    H262673   1.638   1.661  16.652  2.3892 -0.0056 -0.5032
13728TIP3   OH262674   2.320   1.802  10.962  0.4294  0.4685 -0.5088
13728TIP3    H162675   2.318   1.850  11.044  0.6559 -1.4440  0.6947
13728TIP3    H262676   2.260   1.849  10.904  0.8114  2.2665  0.4997
13729TIP3   OH262677   6.285   5.942   2.888 -0.2285 -0.0158 -0.1162
13729TIP3    H162678   6.348   5.872   2.869  2.3322  2.0768 -0.0062
13729TIP3    H262679   6.253   5.969   2.802  0.3277  0.0035 -0.3236
13730TIP3   OH262680   4.331   1.459   6.655 -0.2978  0.4652  0.1504
13730TIP3    H162681   4.338   1.542   6.607 -1.0176  0.7678  0.5417
13730TIP3    H262682   4.420   1.423   6.655 -0.1595  0.7919 -0.8080
13731TIP3   OH262683   3.632   5.554  11.694  0.7735 -0.0216 -0.2128
13731TIP3    H162684   3.555   5.520  11.648 -0.8532  1.6195  1.1109
13731TIP3    H262685   3.665   5.478  11.743 -1.6022 -0.2743  1.1865
13732TIP3   OH262686   1.723   5.622   5.121  0.1331 -0.8593  0.0581
13732TIP3    H162687   1.813   5.648   5.099  0.0952 -1.0842 -0.3768
13732TIP3    H262688   1.676   5.705   5.128  0.2138 -0.7635 -0.4390
13733TIP3   OH262689   4.017   0.729   3.831  0.0683  0.2627  0.8748
13733TIP3    H162690   4.020   0.811   3.880  1.3186  0.9854 -0.3131
13733TIP3    H262691   4.058   0.665   3.889 -0.4535  0.5864  1.6145
13734TIP3   OH262692   4.192   2.211   2.278  0.4386  0.2300 -0.1880
13734TIP3    H162693   4.215   2.142   2.341 -0.7959  0.3522  0.4335
13734TIP3    H262694   4.187   2.291   2.331 -0.4078  0.3750 -0.4751
13735TIP3   OH262695   4.492   0.683  16.467  0.1255  0.0145  0.0618
13735TIP3    H162696   4.401   0.655  16.458  0.0468  0.2490  0.1332
13735TIP3    H262697   4.491   0.746  16.539  0.5274 -0.8509  0.8441
13736TIP3   OH262698   3.325   0.389   4.415 -0.3990  0.2762  0.3735
13736TIP3    H162699   3.332   0.386   4.511  1.2229 -0.2599  0.2633
13736TIP3    H262700   3.414   0.373   4.384 -1.4118 -3.2066 -1.2793
13737TIP3   OH262701   1.327   0.099   0.531  0.0825 -0.5769 -0.0099
13737TIP3    H162702   1.361   0.156   0.601 -1.4599  0.0022  0.2959
13737TIP3    H262703   1.403   0.086   0.473  0.7415  0.9914  0.4309
13738TIP3   OH262704   5.867   3.890   2.294 -0.3546 -0.3107 -0.1953
13738TIP3    H162705   5.874   3.984   2.312 -0.0600 -0.2370 -0.6743
13738TIP3    H262706   5.851   3.850   2.380 -1.8379  0.3006 -0.1696
13739TIP3   OH262707   6.650   0.397  11.660 -0.2589  0.1061 -0.3286
13739TIP3    H162708   6.625   0.453  11.586  1.0691  2.0098  0.5839
13739TIP3    H262709   6.729   0.352  11.630  0.0512  0.5703 -0.2053
13740TIP3   OH262710   1.836   1.970  17.013  0.2551  0.1247 -0.3226
13740TIP3    H162711   1.931   1.969  17.026  0.2978 -0.9181 -0.6072
13740TIP3    H262712   1.815   2.061  16.996  1.3357  0.2323 -1.1661
13741TIP3   OH262713   2.126   0.192  16.098  0.1124 -0.5323 -0.0626
13741TIP3    H162714   2.068   0.266  16.121  0.1127 -0.9025  1.1827
13741TIP3    H262715   2.210   0.233  16.078  0.3948 -0.2523  1.6155
13742TIP3   OH262716   4.853   4.318  16.167 -0.4305 -0.2590 -0.0824
13742TIP3    H162717   4.926   4.353  16.219  1.7473 -2.6868 -1.3157
13742TIP3    H262718   4.892   4.296  16.082 -2.1805 -3.1259 -0.2726
13743TIP3   OH262719   1.298   3.549  14.190  0.3827 -0.0410  0.2271
13743TIP3    H162720   1.287   3.638  14.156  0.1285 -0.4198 -0.6931
13743TIP3    H262721   1.282   3.558  14.284 -0.9589  0.6598 -0.0463
13744TIP3   OH262722   4.025   5.068  11.969  0.2558  0.0975 -0.2978
13744TIP3    H162723   4.086   5.070  11.895 -1.0919 -0.4940 -1.4644
13744TIP3    H262724   4.043   4.984  12.013  1.9882  1.0376  0.9211
13745TIP3   OH262725   2.231   5.479  11.765  0.4060 -0.0271  0.0003
13745TIP3    H162726   2.141   5.450  11.751  0.8020 -0.5311 -1.6251
13745TIP3    H262727   2.285   5.415  11.719  1.6178  0.2432  0.9936
13746TIP3   OH262728   0.804   5.338  13.686 -0.7228 -0.0674  0.3902
13746TIP3    H162729   0.819   5.405  13.753  1.8294 -1.2911  1.1730
13746TIP3    H262730   0.826   5.381  13.604 -0.9177  0.5879  0.6778
13747TIP3   OH262731   6.296   2.772  14.542 -0.2070  0.1863  0.2654
13747TIP3    H162732   6.329   2.862  14.542 -0.1810  0.1764  0.1766
13747TIP3    H262733   6.204   2.780  14.569 -0.0872  0.1969  0.6777
13748TIP3   OH262734   3.220   1.858  11.238  0.0633  0.1434 -0.0403
13748TIP3    H162735   3.226   1.765  11.217  1.5686  0.0700  0.5399
13748TIP3    H262736   3.135   1.868  11.281 -0.5881 -0.7444 -1.0621
13749TIP3   OH262737   1.289   4.256   2.828 -0.9619 -0.5768 -0.1093
13749TIP3    H162738   1.376   4.258   2.786 -0.2677 -1.9771  1.1798
13749TIP3    H262739   1.299   4.308   2.907 -1.1073 -1.2574  0.3650
13750TIP3   OH262740   1.209   2.325   3.350 -0.1775  0.1913  0.4749
13750TIP3    H162741   1.148   2.314   3.422  0.0637 -0.4703  0.5836
13750TIP3    H262742   1.159   2.300   3.272  0.0967 -0.8236  0.6193
13751TIP3   OH262743   0.210   0.898  13.590  0.9034  0.0683 -0.0006
13751TIP3    H162744   0.221   0.817  13.540  0.6024  0.6859 -1.1196
13751TIP3    H262745   0.237   0.967  13.529 -0.4217  0.9278  0.3539
13752TIP3   OH262746   3.085   5.309  12.522 -0.1374 -0.3310  0.1358
13752TIP3    H162747   3.099   5.218  12.549  1.8994  0.0509  0.5079
13752TIP3    H262748   3.002   5.334  12.562 -1.4500 -2.4266 -1.0992
13753TIP3   OH262749   4.002   0.912  11.993  0.0411 -0.8387 -0.1509
13753TIP3    H162750   4.071   0.904  12.058  0.1405 -0.9002 -0.2622
13753TIP3    H262751   4.018   0.841  11.932 -0.4955 -1.2394  0.1655
13754TIP3   OH262752   4.475   6.234  13.767 -0.3829  0.4479  0.4227
13754TIP3    H162753   4.406   6.300  13.759 -1.3074 -0.6213 -0.8676
13754TIP3    H262754   4.462   6.177  13.691  1.2898 -0.3808  0.7284
13755TIP3   OH262755   6.376   6.344   1.265  0.6327  0.1613  0.0872
13755TIP3    H162756   6.342   6.420   1.313  2.0499  1.3271 -0.6841
13755TIP3    H262757   6.444   6.308   1.322  0.4873 -0.0731  0.1147
13756TIP3   OH262758   6.562   0.454   1.972  0.0427  0.0933  0.0546
13756TIP3    H162759   6.602   0.511   1.906  0.4278 -0.2930 -0.0540
13756TIP3    H262760   6.523   0.513   2.035  0.7834  0.4806  0.1570
13757TIP3   OH262761   2.581   2.095   5.418 -0.4580  0.0578 -0.5977
13757TIP3    H162762   2.507   2.101   5.479  0.8014 -0.0602  1.0219
13757TIP3    H262763   2.612   2.185   5.410  0.7852 -0.2067  0.8179
13758TIP3   OH262764   0.647   3.748  16.523 -0.1933 -0.2079 -0.2886
13758TIP3    H162765   0.634   3.769  16.431  0.2727 -3.3811 -1.2135
13758TIP3    H262766   0.593   3.811  16.571  0.3170  2.1575 -2.6265
13759TIP3   OH262767   5.424   2.709   1.466 -0.6129  0.0321  0.3051
13759TIP3    H162768   5.435   2.778   1.531  0.2209  0.7558 -0.5772
13759TIP3    H262769   5.330   2.707   1.447 -0.4031  2.7592 -1.5707
13760TIP3   OH262770   2.655   4.930  13.105 -0.0872  0.2715 -0.0972
13760TIP3    H162771   2.564   4.949  13.125 -0.5595  0.5790 -2.2941
13760TIP3    H262772   2.690   5.012  13.070  1.7798  0.8862  2.8730
13761TIP3   OH262773   2.321   0.696   1.835 -0.3010  0.0904  0.1010
13761TIP3    H162774   2.336   0.780   1.792  0.5305 -0.5974 -1.0294
13761TIP3    H262775   2.388   0.692   1.903 -1.7119  1.2464  1.6524
13762TIP3   OH262776   5.227   3.380  17.204 -0.1521  0.1732 -0.1403
13762TIP3    H162777   5.138   3.364  17.171  0.4262  0.5592 -1.9944
13762TIP3    H262778   5.222   3.360  17.298 -1.7380 -1.6156 -0.5509
13763TIP3   OH262779   5.020   3.299   3.153  0.7599  0.2221  0.4195
13763TIP3    H162780   5.048   3.390   3.164  0.5997  0.4548 -0.9255
13763TIP3    H262781   5.062   3.271   3.072 -2.2066  0.3230 -1.2830
13764TIP3   OH262782   4.484   4.012  13.162  0.1540  0.0593 -0.1312
13764TIP3    H162783   4.411   4.028  13.102  0.1656  0.7352  0.0256
13764TIP3    H262784   4.444   3.985  13.244  0.1496 -1.2274 -0.5334
13765TIP3   OH262785   2.643   6.777  11.971  0.3432 -0.4409  0.7070
13765TIP3    H162786   2.548   6.789  11.970  0.2982  0.4838  3.8021
13765TIP3    H262787   2.677   6.848  11.916 -0.7153  0.8499  1.6424
13766TIP3   OH262788   4.124   6.073  13.721 -0.4162 -0.0313  0.0549
13766TIP3    H162789   4.165   6.148  13.765  0.5038 -0.4195 -0.1120
13766TIP3    H262790   4.121   6.005  13.788  1.5982 -0.8446 -0.6029
13767TIP3   OH262791   0.676   6.653   4.043  0.8461  0.0996 -0.2438
13767TIP3    H162792   0.647   6.658   4.134  1.2597 -0.9813 -0.0377
13767TIP3    H262793   0.753   6.595   4.045  0.4969 -0.4302 -1.3601
13768TIP3   OH262794   1.223   1.658   1.320 -0.1952 -0.3418  0.7764
13768TIP3    H162795   1.185   1.584   1.274  1.6783  0.4111 -2.2757
13768TIP3    H262796   1.149   1.717   1.335 -1.1380 -1.3206  0.1644
13769TIP3   OH262797   1.311   1.600  11.042 -0.5919  0.5209 -0.1225
13769TIP3    H162798   1.262   1.671  11.083 -0.9388  0.1543  0.1168
13769TIP3    H262799   1.288   1.606  10.949  0.5231  1.6113 -0.3589
13770TIP3   OH262800   2.019   4.232   2.958 -0.3284  0.2202  0.0275
13770TIP3    H162801   2.060   4.174   2.894  1.7250  1.7401 -0.1269
13770TIP3    H262802   1.981   4.303   2.906 -0.5315  0.3672  0.3725
13771TIP3   OH262803   1.528   4.661   2.574  0.3966 -0.0845 -0.2965
13771TIP3    H162804   1.617   4.641   2.544  0.6171  2.7604 -1.9825
13771TIP3    H262805   1.479   4.678   2.494 -1.5367 -0.9517  0.6394
13772TIP3   OH262806   3.613   0.374   3.016 -0.1716 -0.2182 -0.2833
13772TIP3    H162807   3.689   0.422   2.984  1.3741 -2.3543  0.0097
13772TIP3    H262808   3.631   0.358   3.109 -2.0040  1.0671  0.3491
13773TIP3   OH262809   4.214   5.711  13.473 -0.5735  0.1424  0.5001
13773TIP3    H162810   4.236   5.783  13.414  0.2548  0.4580  1.1635
13773TIP3    H262811   4.276   5.720  13.545  0.1929 -1.7947  0.1506
13774TIP3   OH262812   1.650   1.673  13.732 -0.2204  0.0330 -0.5863
13774TIP3    H162813   1.571   1.725  13.723 -0.3765  0.2977  1.6921
13774TIP3    H262814   1.721   1.733  13.713 -0.5059 -0.3165 -3.0870
13775TIP3   OH262815   2.750   5.184  14.219  0.1659 -0.1832 -0.1114
13775TIP3    H162816   2.772   5.126  14.146  2.7215 -1.1737  1.3042
13775TIP3    H262817   2.805   5.261  14.205 -2.0324  1.2782 -1.1149
13776TIP3   OH262818   4.156   0.449  10.652 -0.5852  0.1217 -0.4546
13776TIP3    H162819   4.146   0.542  10.628 -0.7329  0.1258 -0.3769
13776TIP3    H262820   4.166   0.450  10.747  1.3171  0.2187 -0.6148
13777TIP3   OH262821   1.011   4.433   6.123  0.0136 -0.1118  0.3701
13777TIP3    H162822   0.933   4.468   6.167  0.3057 -0.6996  1.3845
13777TIP3    H262823   1.019   4.344   6.155 -1.0178 -1.4017 -2.5508
13778TIP3   OH262824   2.132   6.247   1.615  0.3266  0.4187 -0.2930
13778TIP3    H162825   2.083   6.329   1.619 -0.7344 -0.1598 -0.8550
13778TIP3    H262826   2.136   6.217   1.706  2.1246  1.8433  0.1637
13779TIP3   OH262827   5.566   2.818   5.439  0.2541 -0.7194 -0.4810
13779TIP3    H162828   5.515   2.759   5.494  0.4203  0.6679  1.2218
13779TIP3    H262829   5.510   2.895   5.428  1.4267  0.2737  0.3077
13780TIP3   OH262830   2.055   0.575   2.267  0.3444 -0.1157 -0.5989
13780TIP3    H162831   2.138   0.580   2.314  0.3831 -1.6805 -0.4367
13780TIP3    H262832   2.070   0.509   2.200 -0.5620  0.0980 -1.0255
13781TIP3   OH262833   3.491   1.954   2.105  0.1408  0.0083 -0.2044
13781TIP3    H162834   3.565   1.965   2.046  0.3819 -1.5085 -0.2135
13781TIP3    H262835   3.429   2.023   2.079  0.7880  0.1684 -1.3637
13782TIP3   OH262836   6.031   5.645  11.980 -0.6758 -0.7244  0.1536
13782TIP3    H162837   5.948   5.648  11.934 -1.7589 -1.6393  1.9317
13782TIP3    H262838   6.083   5.715  11.941 -2.4060  0.1088 -0.7603
13783TIP3   OH262839   2.422   3.133   2.212  0.0514 -0.0544  0.2322
13783TIP3    H162840   2.356   3.185   2.257 -0.1873 -1.6025  1.8140
13783TIP3    H262841   2.388   3.122   2.123 -0.6462  1.1147  0.3367
13784TIP3   OH262842   6.805   3.943  14.098 -0.7021 -0.3344  0.0333
13784TIP3    H162843   6.729   3.925  14.044 -1.0853  0.5845  0.2450
13784TIP3    H262844   6.872   3.883  14.066 -1.8800 -2.0954  0.7201
13785TIP3   OH262845   1.313   2.552  11.822 -0.3552 -0.6283 -0.5543
13785TIP3    H162846   1.229   2.594  11.843  0.2171  0.1877  0.1741
13785TIP3    H262847   1.288   2.472  11.775 -1.4996  0.0848 -1.2203
13786TIP3   OH262848   0.591   2.848  14.552  0.4717 -0.2296 -0.2964
13786TIP3    H162849   0.534   2.871  14.626  0.0463 -2.3677  0.0883
13786TIP3    H262850   0.579   2.921  14.490 -0.7814  0.5700  0.8264
13787TIP3   OH262851   1.740   2.256   6.542  0.2721  0.0095 -0.2165
13787TIP3    H162852   1.652   2.274   6.577 -0.7247 -0.0788 -2.4882
13787TIP3    H262853   1.775   2.343   6.521  0.8071  0.0537  0.8230
13788TIP3   OH262854   6.592   0.115   4.737 -0.5325  0.2625  0.0379
13788TIP3    H162855   6.630   0.201   4.752  1.1049 -0.7150  1.8651
13788TIP3    H262856   6.666   0.059   4.714 -1.4808 -0.8075 -0.5420
13789TIP3   OH262857   1.519   0.291   1.543  0.4257 -0.4219  0.3331
13789TIP3    H162858   1.521   0.386   1.540  2.5932 -0.3293  2.0183
13789TIP3    H262859   1.450   0.270   1.606  0.5070  0.0507  0.5779
13790TIP3   OH262860   5.066   0.072   4.354  0.5320  0.1066  0.4179
13790TIP3    H162861   5.119   0.117   4.288 -0.3714  0.0417 -0.3712
13790TIP3    H262862   5.112  -0.011   4.370 -0.1574 -0.6820 -1.4606
13791TIP3   OH262863   3.083   4.270  13.620 -0.3616 -0.1169  0.3483
13791TIP3    H162864   3.063   4.320  13.541 -0.4618  0.4013  0.6941
13791TIP3    H262865   3.115   4.335  13.682  2.0688 -0.8577 -0.0471
13792TIP3   OH262866   2.283   4.381   6.154 -0.0074  0.1469  0.5953
13792TIP3    H162867   2.292   4.433   6.233  0.4429  0.3923  0.3850
13792TIP3    H262868   2.354   4.317   6.159  1.3690  1.4830 -0.6037
13793TIP3   OH262869   4.018   0.003  13.298  0.1441  0.2361  0.3188
13793TIP3    H162870   4.046   0.017  13.208 -1.9342  1.4429 -0.2039
13793TIP3    H262871   3.995  -0.090  13.302  2.3539 -0.3742  0.2977
13794TIP3   OH262872   0.383   3.642   4.434  0.2565  0.3392 -0.0285
13794TIP3    H162873   0.433   3.658   4.354  0.0216  2.4532  0.1985
13794TIP3    H262874   0.411   3.711   4.494 -0.4204 -0.5212  1.3339
13795TIP3   OH262875   4.015   3.350  11.630 -0.0573 -0.0344  0.3444
13795TIP3    H162876   3.982   3.314  11.712  2.1202  1.2941  1.9510
13795TIP3    H262877   3.993   3.285  11.564 -0.8160 -1.7609  2.1821
13796TIP3   OH262878   0.242   2.866   2.845  0.3135  0.5181 -0.2114
13796TIP3    H162879   0.209   2.922   2.774  0.7624 -0.0273 -0.8722
13796TIP3    H262880   0.202   2.901   2.924  0.7383  1.9088 -0.5803
13797TIP3   OH262881   1.518   2.496  10.429  0.0660 -0.2655 -0.1172
13797TIP3    H162882   1.570   2.500  10.510 -1.7601  1.5923  1.0580
13797TIP3    H262883   1.487   2.406  10.424  0.8212 -0.5951  0.8175
13798TIP3   OH262884   6.619   6.049  15.427  0.4468 -0.5845  0.1393
13798TIP3    H162885   6.621   6.135  15.471  0.0705 -0.1975 -0.5867
13798TIP3    H262886   6.636   5.987  15.497  0.7179  0.0843  0.6846
13799TIP3   OH262887   2.991   3.724   3.997  0.1918  0.2299 -0.4608
13799TIP3    H162888   2.948   3.773   3.926  0.0639  1.4319  0.4066
13799TIP3    H262889   3.026   3.646   3.954 -1.0131  0.2700 -1.6012
13800TIP3   OH262890   3.308   0.531  14.789 -0.2180  0.0916 -0.2408
13800TIP3    H162891   3.220   0.560  14.765 -0.4226 -1.5516 -1.6301
13800TIP3    H262892   3.330   0.584  14.866 -2.3678  0.5915  0.0962
13801TIP3   OH262893   3.109   0.172  17.195  0.4783  0.3317 -0.4702
13801TIP3    H162894   3.091   0.206  17.107  0.8870  1.1733 -0.2404
13801TIP3    H262895   3.027   0.132  17.223 -1.1824  4.0012  0.5273
13802TIP3   OH262896   1.668   6.382   4.114 -0.1407  0.3532  0.2692
13802TIP3    H162897   1.723   6.460   4.104 -0.0792  0.5047  1.6831
13802TIP3    H262898   1.622   6.395   4.197 -3.1328  0.7309 -1.3164
13803TIP3   OH262899   6.307   4.998  13.440 -0.1898  0.3252 -0.5847
13803TIP3    H162900   6.381   4.937  13.439 -1.1414 -1.0193  2.1328
13803TIP3    H262901   6.229   4.942  13.445 -1.1392  1.6844  1.2336
13804TIP3   OH262902   5.046   3.805  15.555 -0.0553  0.3205  0.2284
13804TIP3    H162903   5.115   3.740  15.570  1.0153  1.2772 -0.3848
13804TIP3    H262904   5.091   3.879  15.513 -1.9822 -0.3115 -3.3582
13805TIP3   OH262905   1.012   5.282   4.550 -0.1158 -0.3994 -0.3083
13805TIP3    H162906   0.994   5.193   4.519  0.2566 -0.8195  0.6453
13805TIP3    H262907   1.042   5.329   4.472 -0.7372 -0.9840 -0.9128
13806TIP3   OH262908   3.858   2.500  15.335 -0.6573 -0.0000 -0.2793
13806TIP3    H162909   3.879   2.583  15.377  0.8000 -0.3308 -0.3049
13806TIP3    H262910   3.820   2.525  15.251  0.4790  0.6561 -0.6220
13807TIP3   OH262911   6.014   3.607   3.365 -0.1112  0.0092  0.0783
13807TIP3    H162912   6.017   3.515   3.339  0.5347  0.1374 -0.3124
13807TIP3    H262913   6.031   3.656   3.285  1.8220  0.4091  0.6644
13808TIP3   OH262914   1.640   2.579   6.654 -0.0356  0.0164  0.0262
13808TIP3    H162915   1.638   2.674   6.654 -3.9355  0.1590 -2.9909
13808TIP3    H262916   1.704   2.556   6.586  0.6113  0.4652  0.4777
13809TIP3   OH262917   0.554   3.231  17.025  0.0036 -0.0108  0.4818
13809TIP3    H162918   0.495   3.217  16.952  0.9780  2.1125 -0.7971
13809TIP3    H262919   0.571   3.143  17.060 -0.0420 -1.1512 -2.1791
13810TIP3   OH262920   0.405   5.058  17.044 -0.1423  0.2970  0.7217
13810TIP3    H162921   0.403   4.966  17.018  0.9236  0.4458  0.0340
13810TIP3    H262922   0.332   5.098  16.997 -0.6994 -0.2254  1.1387
13811TIP3   OH262923   1.239   2.082   6.556 -0.0505 -0.0504 -0.0609
13811TIP3    H162924   1.162   2.028   6.570  0.2031 -0.2847  0.4662
13811TIP3    H262925   1.216   2.167   6.594 -0.6647  0.4088 -1.4097
13812TIP3   OH262926   0.892   6.479   4.055  0.4886 -0.4690  0.0168
13812TIP3    H162927   0.899   6.419   3.981  0.4650  0.0662 -0.4222
13812TIP3    H262928   0.983   6.503   4.075  0.4667 -0.2447 -0.1464
13813TIP3   OH262929   4.385   0.560  15.513  0.2166 -0.0108 -0.0744
13813TIP3    H162930   4.363   0.649  15.486  1.9683  0.5729  0.2733
13813TIP3    H262931   4.468   0.541  15.469 -0.7121 -1.9754 -1.1231
13814TIP3   OH262932   6.673   3.928   5.643 -0.3209 -0.7364 -0.0302
13814TIP3    H162933   6.767   3.914   5.631 -0.1651  1.0923 -1.3025
13814TIP3    H262934   6.633   3.891   5.564 -0.3814  0.8373 -0.7811
13815TIP3   OH262935   4.024   2.436  12.409 -0.0280  0.1132 -0.2211
13815TIP3    H162936   4.078   2.357  12.420 -0.3236 -0.1341 -0.5270
13815TIP3    H262937   3.994   2.456  12.498  0.7351  0.3792 -0.0158
13816TIP3   OH262938   6.361   6.780   4.561 -0.5286  0.5234  0.1083
13816TIP3    H162939   6.409   6.770   4.479 -2.1251  1.6198 -1.0344
13816TIP3    H262940   6.284   6.831   4.537 -1.2063  0.6045  2.2533
13817TIP3   OH262941   6.067   1.330   4.498 -0.0776 -0.4525  0.6202
13817TIP3    H162942   6.139   1.373   4.453  0.0120 -2.4133 -1.2363
13817TIP3    H262943   5.988   1.359   4.452 -0.3254  0.1680  1.4077
13818TIP3   OH262944   3.991   2.686  13.724 -0.2841 -0.5477  0.0225
13818TIP3    H162945   3.943   2.607  13.701 -1.7103 -0.5435  2.5607
13818TIP3    H262946   3.932   2.758  13.700 -0.4890 -0.4362  0.8149
13819TIP3   OH262947   6.454   5.581   0.552  0.0348  0.3587 -0.4658
13819TIP3    H162948   6.546   5.559   0.562 -0.3546 -0.8711  0.7044
13819TIP3    H262949   6.419   5.514   0.493  0.2398  1.9259 -2.4935
13820TIP3   OH262950   3.626   5.614   1.069  0.4536 -0.0089  0.4209
13820TIP3    H162951   3.547   5.591   1.020  1.3502 -1.0048 -0.6204
13820TIP3    H262952   3.593   5.648   1.152 -1.0682 -3.0915  1.2307
13821TIP3   OH262953   0.475   0.938   1.167 -0.2885 -0.1133 -0.8726
13821TIP3    H162954   0.498   0.923   1.075  1.1960 -0.5485 -0.4556
13821TIP3    H262955   0.500   0.857   1.211  0.5336  0.6868  0.1735
13822TIP3   OH262956   2.081   6.232   5.245  0.2115  0.5028  0.1710
13822TIP3    H162957   2.021   6.169   5.204  1.6503 -1.6320  1.1363
13822TIP3    H262958   2.164   6.218   5.200  0.8155  0.9767  1.1121
13823TIP3   OH262959   6.456   4.464   0.918 -0.4781  0.1554  0.3746
13823TIP3    H162960   6.493   4.448   1.005  0.5347 -0.5757 -0.1605
13823TIP3    H262961   6.374   4.414   0.917 -0.6086  0.3482  0.9766
13824TIP3   OH262962   3.730   4.646  16.579 -0.3294  0.3829 -0.2634
13824TIP3    H162963   3.753   4.615  16.491  1.9795  0.1495  0.3700
13824TIP3    H262964   3.740   4.569  16.635  0.2909  1.0271  0.5215
13825TIP3   OH262965   3.821   1.654   4.860  0.4441  0.1420 -0.3803
13825TIP3    H162966   3.844   1.733   4.909 -1.7809  1.4030 -1.2213
13825TIP3    H262967   3.890   1.591   4.881  2.6855  2.5041 -0.1804
13826TIP3   OH262968   1.527   3.830   5.321  1.0094 -0.4685  0.1608
13826TIP3    H162969   1.613   3.805   5.285  1.4796  0.7575  0.3699
13826TIP3    H262970   1.468   3.823   5.246  1.2445 -1.5521  0.0683
13827TIP3   OH262971   2.375   0.958  16.214  0.4508 -0.8184  0.4990
13827TIP3    H162972   2.294   0.966  16.162 -0.0807 -0.6272  1.3423
13827TIP3    H262973   2.381   0.865  16.234 -0.2127 -0.6666  1.4457
13828TIP3   OH262974   3.272   3.101  12.298 -0.3253  0.2337 -0.2041
13828TIP3    H162975   3.361   3.100  12.263 -0.7206 -0.2454 -1.2471
13828TIP3    H262976   3.284   3.106  12.393  0.8364 -0.6488 -0.2713
13829TIP3   OH262977   0.042   0.413   2.431 -0.5478 -0.0578  0.2415
13829TIP3    H162978   0.002   0.369   2.506  0.2363 -1.7092 -0.2595
13829TIP3    H262979  -0.021   0.400   2.359 -0.8207  0.6134  0.3566
13830TIP3   OH262980   2.385   3.839  10.934  0.0013  0.4349  0.1301
13830TIP3    H162981   2.447   3.912  10.933  1.7280 -0.9369 -1.8887
13830TIP3    H262982   2.299   3.880  10.941  0.9537  2.6045 -0.2922
13831TIP3   OH262983   4.975   4.988  16.012  0.0004  0.1518 -0.1490
13831TIP3    H162984   5.055   5.008  16.061  0.5180  0.2804 -1.0150
13831TIP3    H262985   5.005   4.982  15.921 -0.9911  0.2599 -0.4867
13832TIP3   OH262986   6.116   3.219   3.759 -0.6209  0.0531 -0.4316
13832TIP3    H162987   6.097   3.238   3.667 -2.2035 -1.0456 -0.3817
13832TIP3    H262988   6.146   3.128   3.758 -0.7013  0.0178  0.1377
13833TIP3   OH262989   5.421   0.973  12.732 -0.2884  0.0969  0.9735
13833TIP3    H162990   5.466   0.924  12.663 -1.8013 -0.0507  0.0437
13833TIP3    H262991   5.445   0.927  12.813 -0.3510 -1.1919  0.2972
13834TIP3   OH262992   1.877   0.619   0.364 -0.3817 -0.4824 -0.5468
13834TIP3    H162993   1.818   0.548   0.388 -0.9244  0.7249  2.0392
13834TIP3    H262994   1.964   0.580   0.365 -0.8399 -1.5755 -1.3717
13835TIP3   OH262995   4.699   4.617  14.055 -0.3954 -0.1787  0.4275
13835TIP3    H162996   4.752   4.682  14.009 -1.8349  0.5079 -0.3301
13835TIP3    H262997   4.737   4.533  14.030 -0.4906  0.2381 -1.1891
13836TIP3   OH262998   0.726   3.421   0.160  0.0042  0.2459 -0.2102
13836TIP3    H162999   0.789   3.417   0.088 -0.2572 -1.1331 -0.3998
13836TIP3    H263000   0.780   3.419   0.239  0.2436 -1.7223 -0.3553
13837TIP3   OH263001   0.815   4.976   1.323 -0.4823  0.6296 -0.1313
13837TIP3    H163002   0.846   4.947   1.409 -0.9101  0.7233  0.0575
13837TIP3    H263003   0.840   4.905   1.264 -1.5194 -0.1548  0.3312
13838TIP3   OH263004   3.361   4.448   2.472 -0.1739  0.4121  0.4987
13838TIP3    H163005   3.344   4.401   2.554 -1.1706  1.2818  0.8080
13838TIP3    H263006   3.439   4.500   2.489  0.6312 -0.7082  0.3243
13839TIP3   OH263007   2.338   3.369  12.229  0.3561 -0.2490  0.4860
13839TIP3    H163008   2.323   3.407  12.315  1.6418 -3.2140  2.1668
13839TIP3    H263009   2.331   3.275  12.243 -2.4762 -0.8464 -3.3182
13840TIP3   OH263010   6.281   0.460  15.426 -0.6387 -0.5956 -0.3414
13840TIP3    H163011   6.316   0.464  15.515  0.3436 -0.2648 -0.7300
13840TIP3    H263012   6.210   0.523  15.425  1.0788  1.4551 -0.5170
13841TIP3   OH263013   0.923   3.497  12.014  0.3309  1.2083  0.3739
13841TIP3    H163014   0.971   3.573  11.983  0.1021  0.8514 -0.9280
13841TIP3    H263015   0.941   3.493  12.108  1.1174  2.2961  0.2821
13842TIP3   OH263016   0.017   0.819  11.919  0.6369  0.2415  0.2743
13842TIP3    H163017  -0.057   0.770  11.883  1.1284 -1.5463  1.5412
13842TIP3    H263018   0.007   0.907  11.884 -2.3994  0.2308  0.7952
13843TIP3   OH263019   5.997   1.537   0.515  0.3982  0.6768  0.5067
13843TIP3    H163020   6.021   1.594   0.442 -0.2189  0.2300 -0.0514
13843TIP3    H263021   6.015   1.590   0.593 -0.0077  1.5858 -0.0002
13844TIP3   OH263022   6.646   5.585  13.682 -0.3660 -0.0570  0.0313
13844TIP3    H163023   6.665   5.606  13.591 -0.5347 -1.7646 -0.4397
13844TIP3    H263024   6.604   5.664  13.717  1.4301  1.3125 -0.7937
13845TIP3   OH263025   0.723   3.712  14.236 -0.1221 -0.1035 -0.2852
13845TIP3    H163026   0.767   3.649  14.179  0.6483  1.2017 -1.1846
13845TIP3    H263027   0.722   3.669  14.322  0.5039 -1.2812 -0.8376
13846TIP3   OH263028   2.597   0.101  11.416  0.2829  0.2984 -0.4000
13846TIP3    H163029   2.642   0.107  11.332  0.1588  0.5222 -0.4493
13846TIP3    H263030   2.663   0.125  11.481  0.9065 -1.5394 -0.2730
13847TIP3   OH263031   6.282   4.473   5.268 -0.6460 -0.1591 -0.3471
13847TIP3    H163032   6.358   4.523   5.296 -0.0302 -0.3134 -1.6579
13847TIP3    H263033   6.298   4.385   5.304 -0.4033 -0.0911 -0.2825
13848TIP3   OH263034   1.056   0.099   1.634  0.2444  0.4473  0.5778
13848TIP3    H163035   0.982   0.054   1.594  1.3394 -1.4848  0.6561
13848TIP3    H263036   1.108   0.131   1.560  0.6346 -0.4077  0.4697
13849TIP3   OH263037   4.078   0.591  15.161  0.3487  0.7570  0.5471
13849TIP3    H163038   4.131   0.670  15.172  3.6239 -0.9169 -1.6281
13849TIP3    H263039   4.137   0.520  15.185 -1.9803 -1.1708  0.8979
13850TIP3   OH263040   2.275   4.971   2.660  0.2489  0.5041 -0.3165
13850TIP3    H163041   2.361   4.930   2.665  0.1461  0.2233 -0.7476
13850TIP3    H263042   2.291   5.064   2.677  0.5991  0.4137 -0.1423
13851TIP3   OH263043   5.638   1.843  15.307  0.4231  0.0098 -0.4274
13851TIP3    H163044   5.571   1.821  15.371  2.2382  0.0929  1.6295
13851TIP3    H263045   5.674   1.926  15.338  3.2335 -1.3070  0.1456
13852TIP3   OH263046   3.842   6.773   2.291 -0.7883  0.0488 -0.3485
13852TIP3    H163047   3.819   6.764   2.383 -0.6772  0.7655 -0.2436
13852TIP3    H263048   3.937   6.764   2.288 -0.6221  1.5173 -0.1789
13853TIP3   OH263049   0.979   3.363  15.636 -0.2875 -0.1103 -0.0787
13853TIP3    H163050   1.046   3.428  15.659 -1.0097 -0.3155  3.2027
13853TIP3    H263051   1.024   3.279  15.643 -0.2838 -0.1392 -0.4435
13854TIP3   OH263052   0.399   4.253   4.720  0.0544  0.1562  0.8031
13854TIP3    H163053   0.304   4.247   4.715 -0.1076  2.3799  0.2629
13854TIP3    H263054   0.418   4.347   4.718  2.1339 -0.0455  3.8208
13855TIP3   OH263055   3.661   2.975  16.113 -0.0284 -0.3382 -0.8074
13855TIP3    H163056   3.643   3.000  16.023 -0.1788 -0.4380 -0.8048
13855TIP3    H263057   3.577   2.946  16.148 -0.2258  0.8697 -0.2534
13856TIP3   OH263058   2.346   4.166  11.239 -0.8156 -0.9975 -0.0826
13856TIP3    H163059   2.272   4.152  11.181 -0.8819  0.3470 -0.3609
13856TIP3    H263060   2.417   4.195  11.181 -0.5124 -0.8509  0.3536
13857TIP3   OH263061   4.256   3.725  16.474  0.2273  0.0142 -0.4242
13857TIP3    H163062   4.238   3.633  16.492  0.9626 -0.0829 -0.1705
13857TIP3    H263063   4.241   3.769  16.557 -2.8576  0.5820 -1.1420
13858TIP3   OH263064   5.364   2.044   2.104  0.2620 -0.9997 -0.0497
13858TIP3    H163065   5.450   2.041   2.062  0.4440 -0.3894  0.2712
13858TIP3    H263066   5.367   1.974   2.169  0.3043 -1.3636 -0.4443
13859TIP3   OH263067   1.124   4.007  15.502  0.5508  0.6685 -0.6311
13859TIP3    H163068   1.213   4.017  15.469  1.1992 -0.5302  0.6265
13859TIP3    H263069   1.069   4.046  15.435  1.8623 -0.6242 -2.5846
13860TIP3   OH263070   2.442   1.042   4.950 -0.0495  0.1236 -0.2911
13860TIP3    H163071   2.441   0.965   5.006 -2.2358  0.2590 -0.0444
13860TIP3    H263072   2.456   1.008   4.862  0.0343 -0.4420 -0.0599
13861TIP3   OH263073   0.488   2.691   2.483 -0.3287 -0.4845  1.0567
13861TIP3    H163074   0.572   2.664   2.447 -1.0945 -1.4515 -0.0920
13861TIP3    H263075   0.488   2.786   2.477  0.5145 -0.4979  0.6939
13862TIP3   OH263076   1.951   5.124  16.881 -0.8444  0.1360 -0.8115
13862TIP3    H163077   2.030   5.154  16.837 -0.0809 -0.2505  0.2750
13862TIP3    H263078   1.890   5.198  16.873  0.3046  1.2130  0.0423
13863TIP3   OH263079   0.132   0.470   5.220  0.0457  0.2452 -0.2629
13863TIP3    H163080   0.118   0.389   5.269 -2.5191  1.1281  0.6529
13863TIP3    H263081   0.177   0.528   5.281  3.4749 -0.9152 -1.4794
13864TIP3   OH263082   6.808   4.525   5.830 -0.1650  0.0844  0.2356
13864TIP3    H163083   6.878   4.515   5.894 -1.3587 -1.2192  1.3668
13864TIP3    H263084   6.853   4.519   5.745  1.4269  1.8110  0.8840
13865TIP3   OH263085   0.311   4.291  14.951 -0.1505  0.1664 -0.9759
13865TIP3    H163086   0.327   4.199  14.975 -1.7475 -0.4076 -1.9597
13865TIP3    H263087   0.290   4.288  14.858 -5.1246  0.7604 -0.1686
13866TIP3   OH263088   5.648   4.641  16.133 -0.4980  0.5825  0.3013
13866TIP3    H163089   5.585   4.572  16.112  0.0259  0.1641  0.1001
13866TIP3    H263090   5.636   4.656  16.227 -0.2546 -0.1398  0.4483
13867TIP3   OH263091   5.285   4.821  12.577 -0.2164 -0.4834 -0.0189
13867TIP3    H163092   5.231   4.853  12.504  3.2561  0.2099 -2.5352
13867TIP3    H263093   5.286   4.895  12.638 -1.1144 -0.0504 -0.4909
13868TIP3   OH263094   2.613   4.928   1.148  0.1483 -0.6427  0.4348
13868TIP3    H163095   2.685   4.914   1.086 -0.0251  0.7312 -0.1066
13868TIP3    H263096   2.643   4.886   1.229 -0.1448 -3.6033 -0.8491
13869TIP3   OH263097   3.031   2.306   1.169  0.1762 -0.1217 -0.3624
13869TIP3    H163098   3.088   2.273   1.100  0.2027  2.0107 -1.4439
13869TIP3    H263099   3.082   2.374   1.213  0.3733 -1.7859  2.2109
13870TIP3   OH263100   4.306   6.761  10.477  0.1070 -0.3368 -0.4634
13870TIP3    H163101   4.243   6.778  10.546 -1.1350  0.1064 -1.6604
13870TIP3    H263102   4.253   6.743  10.400  1.4472 -1.0710 -1.2588
13871TIP3   OH263103   0.926   4.675  15.598 -1.0432  0.1268  0.0343
13871TIP3    H163104   1.002   4.721  15.634 -0.3789 -0.6522 -0.3336
13871TIP3    H263105   0.859   4.683  15.665 -0.5948  0.7106  0.4262
13872TIP3   OH263106   1.301   5.624   5.682  1.3656 -0.3250  0.0077
13872TIP3    H163107   1.327   5.662   5.597 -1.4023 -1.6571 -1.5752
13872TIP3    H263108   1.220   5.670   5.704  0.9585 -1.4322  0.8734
13873TIP3   OH263109   3.861   1.931   5.991  0.0480 -0.0412 -0.3288
13873TIP3    H163110   3.833   1.849   6.030  2.6408  0.2453  2.5386
13873TIP3    H263111   3.790   1.992   6.010 -0.8080 -1.0353 -0.2422
13874TIP3   OH263112   3.310   2.484  16.320 -0.1042 -0.3916  0.0767
13874TIP3    H163113   3.369   2.500  16.393  0.9819 -2.6500 -0.1945
13874TIP3    H263114   3.358   2.423  16.263 -1.2359  0.6200 -2.1094
13875TIP3   OH263115   1.717   5.558  13.927 -0.6556 -0.6519  0.0425
13875TIP3    H163116   1.781   5.491  13.949 -1.4443 -1.2390  0.6416
13875TIP3    H263117   1.644   5.509  13.888 -1.6503 -0.2848  1.3606
13876TIP3   OH263118   6.183   3.675   4.156  0.3384 -0.0576 -0.0251
13876TIP3    H163119   6.167   3.664   4.250  1.4260 -1.8523 -0.0157
13876TIP3    H263120   6.124   3.746   4.131 -1.0207 -0.4686  1.7354
13877TIP3   OH263121   2.789   5.926  16.980 -0.2112 -0.3332 -0.1740
13877TIP3    H163122   2.855   5.905  17.046 -0.4430 -1.3590 -0.2500
13877TIP3    H263123   2.716   5.962  17.030 -0.0380 -0.2708  0.0344
13878TIP3   OH263124   0.566   3.229  13.639 -0.0827 -0.5945  0.7363
13878TIP3    H163125   0.607   3.143  13.626 -0.3611 -0.6323  0.0477
13878TIP3    H263126   0.604   3.262  13.720 -0.7155 -1.7997  1.5550
13879TIP3   OH263127   3.892   4.317  15.726 -0.5013  0.3067  0.2471
13879TIP3    H163128   3.865   4.407  15.747 -0.8593 -0.3620  3.0202
13879TIP3    H263129   3.984   4.313  15.753 -0.9741 -0.5935  1.8361
13880TIP3   OH263130   4.022   0.634   1.597 -0.2767 -0.4188 -0.0214
13880TIP3    H163131   3.962   0.665   1.530  0.2446  0.0555 -0.2726
13880TIP3    H263132   3.965   0.608   1.670 -0.8096 -0.4486 -0.4462
13881TIP3   OH263133   4.246   3.751   4.589  0.3714  0.2303 -0.1666
13881TIP3    H163134   4.215   3.704   4.666  2.5358  0.7703  1.1451
13881TIP3    H263135   4.177   3.815   4.570  0.3197  0.9954  2.1985
13882TIP3   OH263136   0.105   0.741  12.607 -0.2012 -0.1313  0.5755
13882TIP3    H163137   0.014   0.715  12.591 -0.2422  0.6034 -0.4638
13882TIP3    H263138   0.113   0.745  12.702 -1.5747  0.8989  0.6596
13883TIP3   OH263139   6.355   5.663   0.117  0.4601  0.3011  0.4178
13883TIP3    H163140   6.432   5.615   0.085  0.2736  0.9939 -1.1645
13883TIP3    H263141   6.386   5.709   0.195  0.6623 -2.2842  1.9642
13884TIP3   OH263142   5.764   4.725   2.624 -0.1898 -0.0283 -0.2056
13884TIP3    H163143   5.728   4.637   2.631 -0.9847  0.3724  1.1440
13884TIP3    H263144   5.852   4.712   2.591 -0.1006 -1.3821  0.4754
13885TIP3   OH263145   5.913   1.107   6.016 -0.4147 -0.2157 -0.0705
13885TIP3    H163146   5.821   1.101   5.993 -0.8376 -0.9832  1.6622
13885TIP3    H263147   5.914   1.110   6.112  1.2965  1.0285 -0.0730
13886TIP3   OH263148   4.770   6.631   1.972 -0.0300  0.1588  0.2186
13886TIP3    H163149   4.847   6.628   1.915 -0.9119 -1.3941 -0.9874
13886TIP3    H263150   4.703   6.675   1.919  0.4303  3.1108  1.8883
13887TIP3   OH263151   1.453   5.656   4.881  0.2325  0.0172 -0.1520
13887TIP3    H163152   1.483   5.723   4.941 -1.0688  0.4473  0.0466
13887TIP3    H263153   1.412   5.704   4.808 -1.7789 -0.5089  0.5529
13888TIP3   OH263154   5.646   6.529  12.980  0.1663 -0.1477 -0.1434
13888TIP3    H163155   5.712   6.583  13.023  0.2288  0.4303 -0.9238
13888TIP3    H263156   5.623   6.579  12.901 -0.4126 -0.8583 -0.4359
13889TIP3   OH263157   4.170   0.502  14.462  0.0940  0.6344 -0.4602
13889TIP3    H163158   4.265   0.501  14.449 -0.2595 -0.0673 -3.8287
13889TIP3    H263159   4.148   0.411  14.480  0.1521  1.0765  2.3984
13890TIP3   OH263160   6.138   3.787  14.137 -0.3723 -0.3498  0.0955
13890TIP3    H163161   6.054   3.748  14.164  0.2929 -3.1164 -1.5166
13890TIP3    H263162   6.126   3.807  14.045  1.2186 -2.3567 -0.6005
13891TIP3   OH263163   6.668   0.620  12.615  0.2395 -0.0756 -0.2656
13891TIP3    H163164   6.578   0.590  12.600 -0.6872  0.6982  2.9752
13891TIP3    H263165   6.720   0.540  12.616 -0.1598 -0.4810 -2.9771
13892TIP3   OH263166   3.967   6.154   5.478 -0.1051 -0.0697 -0.5650
13892TIP3    H163167   3.938   6.085   5.539  0.1873  0.3965  0.1155
13892TIP3    H263168   3.969   6.111   5.393 -0.5823 -0.7249 -0.2569
13893TIP3   OH263169   4.536   0.364   5.300  0.0939  0.0426  0.1837
13893TIP3    H163170   4.444   0.391   5.308  0.3125  0.7724  0.2962
13893TIP3    H263171   4.573   0.423   5.234  0.6036  0.0640  0.4831
13894TIP3   OH263172   0.108   3.455  14.677 -0.5287  0.8785 -0.0466
13894TIP3    H163173   0.123   3.496  14.592 -2.4410  1.1960 -0.2804
13894TIP3    H263174   0.031   3.501  14.713 -0.1060  0.3764  1.6036
13895TIP3   OH263175   0.030   2.552  14.072 -0.5519 -0.1964 -0.5085
13895TIP3    H163176   0.053   2.526  14.161 -0.0771 -0.0632 -0.5891
13895TIP3    H263177  -0.017   2.635  14.083 -0.2154 -0.0156 -0.3990
13896TIP3   OH263178   6.215   4.957  11.109 -0.0158  0.3801 -0.3561
13896TIP3    H163179   6.120   4.964  11.108  0.1003  2.4625 -1.1284
13896TIP3    H263180   6.237   4.941  11.201 -1.1079 -0.9383 -0.2821
13897TIP3   OH263181   6.187   2.294   5.423 -0.2897 -0.0137  0.0551
13897TIP3    H163182   6.256   2.353   5.392  0.9927 -1.7752 -0.6122
13897TIP3    H263183   6.222   2.206   5.407 -2.1441 -0.9697  0.9715
13898TIP3   OH263184   5.996   6.808  12.279  0.6433  0.3169 -0.5460
13898TIP3    H163185   5.918   6.863  12.271 -0.1568 -0.7866 -0.6284
13898TIP3    H263186   6.006   6.795  12.374  1.3761  1.3307 -0.4715
13899TIP3   OH263187   0.421   6.263  15.794 -0.7308  0.1854  0.0501
13899TIP3    H163188   0.419   6.311  15.877  2.2146  1.1905 -0.3490
13899TIP3    H263189   0.389   6.327  15.729  0.4909  0.6904 -0.0765
13900TIP3   OH263190   4.632   4.757  14.612 -0.1844  0.1164  0.1389
13900TIP3    H163191   4.638   4.847  14.579  1.3167 -0.4266 -1.1741
13900TIP3    H263192   4.539   4.735  14.604 -0.4790  1.3480 -0.0571
13901TIP3   OH263193   6.377   0.681  15.252 -0.5941  0.1247  0.0112
13901TIP3    H163194   6.319   0.754  15.230 -0.0638  0.6256  0.2525
13901TIP3    H263195   6.319   0.615  15.291 -1.4013 -0.3857 -1.9249
13902TIP3   OH263196   3.117   3.749   6.166  0.7844  0.3231  0.7640
13902TIP3    H163197   3.049   3.683   6.177  1.8850 -1.0489 -0.3465
13902TIP3    H263198   3.070   3.827   6.135 -0.3787 -0.3187  0.8504
13903TIP3   OH263199   2.713   2.784   6.004  0.5195  0.2828 -0.0829
13903TIP3    H163200   2.787   2.746   6.052  0.2839  2.1874  1.9251
13903TIP3    H263201   2.743   2.871   5.980 -0.1648  0.1228 -1.6063
13904TIP3   OH263202   1.301   0.493   2.507  0.2552 -0.5311  0.4002
13904TIP3    H163203   1.379   0.546   2.523 -0.2941  0.6023 -0.4912
13904TIP3    H263204   1.273   0.464   2.594  1.4644 -0.6719  0.7595
13905TIP3   OH263205   3.596   2.568  16.079  0.1191  0.0082 -0.3957
13905TIP3    H163206   3.533   2.497  16.091 -0.6238  0.5168 -1.2279
13905TIP3    H263207   3.563   2.618  16.005  2.0638 -0.3128 -1.5483
13906TIP3   OH263208   5.762   1.731  14.768 -0.0715 -0.2679 -0.3769
13906TIP3    H163209   5.706   1.737  14.846  0.4477 -1.3767  0.1039
13906TIP3    H263210   5.842   1.688  14.799  0.6867  0.4524 -1.2508
13907TIP3   OH263211   1.786   4.150   5.511 -0.0928  0.1978 -0.4148
13907TIP3    H163212   1.782   4.179   5.420 -0.2930  0.9987 -0.1596
13907TIP3    H263213   1.701   4.111   5.528  0.2449 -0.7428 -0.8188
13908TIP3   OH263214   1.437   4.510   1.874  0.0973  0.9069 -0.1144
13908TIP3    H163215   1.434   4.439   1.809 -1.8207  0.4456  0.3999
13908TIP3    H263216   1.391   4.583   1.832  1.0188  1.4497 -0.1904
13909TIP3   OH263217   2.013   6.725   3.338 -0.8292 -0.3868 -0.6328
13909TIP3    H163218   2.017   6.746   3.431 -0.5238 -0.7781 -0.5538
13909TIP3    H263219   1.945   6.657   3.331 -0.2543 -0.9862 -0.5646
13910TIP3   OH263220   6.316   0.767  13.989 -0.5046  0.3719  0.6253
13910TIP3    H163221   6.228   0.771  13.952  0.2375  1.2512 -1.1592
13910TIP3    H263222   6.371   0.815  13.927  1.4341 -1.0571  1.1181
13911TIP3   OH263223   3.237   2.174   0.150 -0.2897  0.9745  0.0579
13911TIP3    H163224   3.202   2.136   0.230  0.0889  0.5408  0.0227
13911TIP3    H263225   3.332   2.178   0.164 -0.1547  0.3868 -0.5635
13912TIP3   OH263226   1.304   4.365  16.094 -0.2507 -0.1120  0.1155
13912TIP3    H163227   1.392   4.333  16.074  1.2732  2.9600  1.1868
13912TIP3    H263228   1.285   4.429  16.025 -0.3648  1.3364  1.4379
13913TIP3   OH263229   0.386   1.992   3.515 -0.4183 -0.4951 -0.0610
13913TIP3    H163230   0.408   1.928   3.582  0.5497  0.3762  0.4877
13913TIP3    H263231   0.399   1.946   3.432 -3.3702 -2.1618  0.2660
13914TIP3   OH263232   0.552   2.200  17.138  0.8029  0.2413  0.4341
13914TIP3    H163233   0.551   2.122  17.081  0.7995  0.7774 -0.3196
13914TIP3    H263234   0.518   2.169  17.222  1.1084 -0.6442  0.2444
13915TIP3   OH263235   3.618   6.322   3.746 -0.0597  0.0851  0.1361
13915TIP3    H163236   3.601   6.232   3.773 -0.3343 -0.1117 -0.6492
13915TIP3    H263237   3.531   6.359   3.730  0.0373  0.5808  0.7066
13916TIP3   OH263238   2.125   0.381   2.069 -0.2536 -0.2737  0.1002
13916TIP3    H163239   2.116   0.292   2.037  0.5800 -0.3437  0.0430
13916TIP3    H263240   2.219   0.398   2.068 -0.2638  0.0640  1.5809
13917TIP3   OH263241   3.848   3.018  12.181 -0.2261  0.4535  0.4580
13917TIP3    H163242   3.867   3.033  12.273  0.3209 -0.1398  0.4496
13917TIP3    H263243   3.924   3.052  12.135 -0.7120  1.1971  0.1852
13918TIP3   OH263244   6.379   1.015   5.175  0.2970  0.0742  0.5733
13918TIP3    H163245   6.335   1.054   5.250 -0.3067 -0.8896  0.7315
13918TIP3    H263246   6.465   0.990   5.208  0.6629  1.1755  0.4890
13919TIP3   OH263247   1.331   2.769  10.799 -0.3591  0.0299 -0.2213
13919TIP3    H163248   1.241   2.736  10.805 -0.7704  0.4906 -2.7942
13919TIP3    H263249   1.357   2.750  10.709  0.9857  2.6741 -0.4733
13920TIP3   OH263250   1.328   5.359   0.963 -0.5525  0.2213 -0.0477
13920TIP3    H163251   1.368   5.414   1.030  2.0271  1.2294 -2.2289
13920TIP3    H263252   1.263   5.415   0.921 -0.8239  0.2289  0.3850
13921TIP3   OH263253   3.479   5.097   5.400 -0.1238 -0.3763  0.4361
13921TIP3    H163254   3.472   5.190   5.378 -0.4475 -0.4996  0.0013
13921TIP3    H263255   3.542   5.094   5.471  1.1895  0.0105 -0.6653
13922TIP3   OH263256   1.075   4.383   0.174 -0.3025  0.5821 -0.2808
13922TIP3    H163257   0.987   4.387   0.211  0.2552  0.9500  1.0552
13922TIP3    H263258   1.069   4.432   0.092 -1.4343  0.2353 -0.4199
13923TIP3   OH263259   6.305   6.209   3.284 -0.0873 -0.5685  0.3725
13923TIP3    H163260   6.230   6.249   3.240 -0.1463  0.2248  1.1475
13923TIP3    H263261   6.372   6.203   3.217 -0.3317  0.1790  0.0448
13924TIP3   OH263262   0.436   5.548   3.642 -0.3591  0.4251  0.0841
13924TIP3    H163263   0.375   5.506   3.702 -1.2258  0.4484 -0.7519
13924TIP3    H263264   0.486   5.609   3.696 -0.5175 -0.1798  0.9279
13925TIP3   OH263265   6.296   4.711   0.191 -0.1647  0.6039  0.1932
13925TIP3    H163266   6.291   4.744   0.101  1.9246  0.0449 -0.1810
13925TIP3    H263267   6.300   4.616   0.181 -0.3628  0.5164  0.9073
13926TIP3   OH263268   2.124   2.581   0.687  0.3827  0.5947 -0.6994
13926TIP3    H163269   2.136   2.654   0.625 -0.3883  0.5154 -0.9586
13926TIP3    H263270   2.107   2.624   0.771 -2.1444  0.7996 -1.2336
13927TIP3   OH263271   0.760   5.747   0.129 -0.5023  0.0962 -0.6702
13927TIP3    H163272   0.746   5.672   0.072 -3.8850  0.2316 -0.2527
13927TIP3    H263273   0.731   5.822   0.077 -0.0991  0.7076 -0.0272
13928TIP3   OH263274   4.562   0.033   2.585 -0.5011  0.2024 -0.2440
13928TIP3    H163275   4.583   0.005   2.674  0.9720  0.7517 -0.3900
13928TIP3    H263276   4.646   0.061   2.548 -0.6561 -2.0374 -2.5589
13929TIP3   OH263277   2.935   2.566   3.141  0.5179 -0.0598  0.1040
13929TIP3    H163278   3.027   2.570   3.114  0.3420  1.5089 -0.4205
13929TIP3    H263279   2.937   2.536   3.231  1.5848  0.3911  0.2439
13930TIP3   OH263280   6.112   6.281   4.210 -0.3239  0.4830 -0.4340
13930TIP3    H163281   6.061   6.199   4.208  0.0590  0.2373 -2.3682
13930TIP3    H263282   6.052   6.345   4.249 -0.4407 -0.8057  1.6454
13931TIP3   OH263283   2.584   5.309   4.240  0.7886  0.0838  0.4103
13931TIP3    H163284   2.620   5.353   4.317 -1.7377  0.3914  1.4832
13931TIP3    H263285   2.532   5.376   4.196  1.3003 -0.3945 -0.9980
13932TIP3   OH263286   4.024   5.797   3.727  0.0984  0.3505  0.4263
13932TIP3    H163287   4.092   5.847   3.684  0.9606 -1.3992 -0.3622
13932TIP3    H263288   3.942   5.843   3.706  0.7995  1.1576 -0.6207
13933TIP3   OH263289   2.638   5.645  14.512  0.4349  0.7403 -0.1652
13933TIP3    H163290   2.611   5.732  14.543 -0.8108  0.4196 -0.3069
13933TIP3    H263291   2.592   5.584  14.568 -0.3101  0.1595 -1.3750
13934TIP3   OH263292   5.736   1.536  13.536  0.3051 -0.2164  0.3653
13934TIP3    H163293   5.750   1.626  13.567  2.2846  0.2053 -1.5584
13934TIP3    H263294   5.817   1.490  13.557 -0.1496 -1.1826  0.0456
13935TIP3   OH263295   3.291   5.457  12.598 -0.1650 -0.5234 -0.1715
13935TIP3    H163296   3.217   5.415  12.555  0.6772 -0.6524 -1.5405
13935TIP3    H263297   3.313   5.398  12.671 -0.9298 -0.8596 -0.2039
13936TIP3   OH263298   3.459   3.488  11.203 -0.3458 -0.0458 -0.2847
13936TIP3    H163299   3.417   3.552  11.259  0.2171  1.3648 -1.4003
13936TIP3    H263300   3.547   3.523  11.188  0.8279 -2.2344  0.9015
13937TIP3   OH263301   6.238   6.169  15.867  0.4387  0.5311  0.7295
13937TIP3    H163302   6.153   6.185  15.909  0.4421  0.3962  0.7877
13937TIP3    H263303   6.300   6.166  15.940  0.6839  1.8474  0.6033
13938TIP3   OH263304   4.090   5.300   0.242  1.0176  0.4309  0.0229
13938TIP3    H163305   4.069   5.393   0.252  2.0795  0.7052 -0.2077
13938TIP3    H263306   4.006   5.255   0.253  0.3251  1.4792 -0.7581
13939TIP3   OH263307   4.464   6.014   1.459 -0.4441 -0.1500 -0.0234
13939TIP3    H163308   4.390   6.062   1.495 -0.4022 -1.2934  1.6955
13939TIP3    H263309   4.425   5.958   1.391 -0.7145  1.1403 -0.9735
13940TIP3   OH263310   3.683   6.743   3.071  0.5861  0.6934  0.5532
13940TIP3    H163311   3.719   6.809   3.131 -0.5283  2.6678 -0.8250
13940TIP3    H263312   3.655   6.671   3.129  4.4272  0.0275  1.8810
13941TIP3   OH263313   5.918   5.125  11.091 -0.2092 -0.0007 -0.6576
13941TIP3    H163314   5.841   5.068  11.100  0.0847 -0.3407 -0.2698
13941TIP3    H263315   5.884   5.213  11.107 -0.9349  0.1266 -2.5257
13942TIP3   OH263316   3.821   2.669   3.955 -0.6784 -0.1843  0.6013
13942TIP3    H163317   3.890   2.603   3.949  1.5090  1.9303  0.4229
13942TIP3    H263318   3.754   2.639   3.894  0.3326 -2.0806  0.3376
13943TIP3   OH263319   1.227   5.660  17.186  0.7277  0.2792  0.3223
13943TIP3    H163320   1.178   5.722  17.132 -0.2510 -0.5622  0.2055
13943TIP3    H263321   1.191   5.574  17.163  0.8560 -0.1753  1.7060
13944TIP3   OH263322   0.018   0.938  14.079 -0.4591 -0.6016  0.6766
13944TIP3    H163323   0.038   0.922  14.172  0.2379 -0.0384  0.6326
13944TIP3    H263324  -0.068   0.900  14.067  0.1139 -2.1413  1.1572
13945TIP3   OH263325   5.919   5.432   0.251 -0.1315  1.0908  0.1047
13945TIP3    H163326   5.923   5.352   0.199 -1.4277  1.2646 -0.2950
13945TIP3    H263327   5.968   5.496   0.200  2.7801  0.0916  1.4169
13946TIP3   OH263328   6.572   1.743  11.400  0.1480 -0.0421 -0.6362
13946TIP3    H163329   6.557   1.766  11.308  0.9331  0.3284 -0.6732
13946TIP3    H263330   6.596   1.650  11.397 -1.2673 -0.4277 -0.6550
13947TIP3   OH263331   0.739   3.590   1.938  0.2788 -0.3533 -0.7754
13947TIP3    H163332   0.772   3.647   2.008  0.5553 -1.3320 -0.0793
13947TIP3    H263333   0.812   3.581   1.877 -0.2459  1.2169 -1.6902
13948TIP3   OH263334   0.730   3.370   5.677  0.7338 -0.4931  0.0961
13948TIP3    H163335   0.690   3.430   5.740 -0.9630 -2.3754  0.8816
13948TIP3    H263336   0.718   3.413   5.592 -1.3327 -0.1215  0.5281
13949TIP3   OH263337   2.977   6.049   6.473  0.4162 -0.2222 -0.0017
13949TIP3    H163338   3.022   6.030   6.390 -0.2752  0.2134 -0.4863
13949TIP3    H263339   3.031   6.118   6.514  0.8490 -0.5524 -0.0055
13950TIP3   OH263340   0.218   4.397   2.063 -0.0918 -0.4934 -0.0027
13950TIP3    H163341   0.171   4.347   2.130 -0.3951  1.4654  1.3389
13950TIP3    H263342   0.237   4.481   2.105 -1.1336  1.2098 -2.6653
13951TIP3   OH263343   2.582   4.307  15.783  0.2474  0.3184  0.2189
13951TIP3    H163344   2.652   4.367  15.808  0.8092  0.8702 -2.3749
13951TIP3    H263345   2.626   4.222  15.775  0.4826  0.5033 -0.5929
13952TIP3   OH263346   6.562   0.102   5.415  0.1130  0.0948 -0.4028
13952TIP3    H163347   6.627   0.096   5.485  0.3206 -0.3725 -0.6345
13952TIP3    H263348   6.542   0.196   5.409  1.7063  0.4094 -1.1898
13953TIP3   OH263349   2.944   6.768  13.525 -0.3847 -0.7467 -0.3959
13953TIP3    H163350   2.893   6.842  13.558  0.9645  0.0859 -0.0870
13953TIP3    H263351   3.001   6.743  13.598  1.1980 -0.2042 -1.3897
13954TIP3   OH263352   6.594   5.271   1.557 -0.0861 -0.9595 -0.1966
13954TIP3    H163353   6.627   5.338   1.618 -1.1938  0.3106 -0.9333
13954TIP3    H263354   6.629   5.297   1.472  0.4666 -2.0349 -0.3129
13955TIP3   OH263355   6.688   6.113   5.672 -0.5234 -0.5405  0.0991
13955TIP3    H163356   6.753   6.171   5.712 -0.6835  0.1857 -0.6524
13955TIP3    H263357   6.605   6.157   5.686 -0.8809 -1.4966  1.1092
13956TIP3   OH263358   1.270   1.614   2.005  0.3718  0.1652 -0.5200
13956TIP3    H163359   1.283   1.708   1.992  0.3862  0.2134 -0.1804
13956TIP3    H263360   1.312   1.573   1.930  1.1107  0.3890 -0.2392
13957TIP3   OH263361   4.027   1.749   4.542  0.3631  0.2671  0.2936
13957TIP3    H163362   4.007   1.725   4.632  0.8802  0.2958  0.4197
13957TIP3    H263363   3.944   1.737   4.495 -0.4372  2.0846  1.1381
13958TIP3   OH263364   5.071   1.929  13.116 -1.1218 -0.5560 -0.0309
13958TIP3    H163365   5.088   1.874  13.193 -1.5954  0.1348  0.5763
13958TIP3    H263366   5.088   2.018  13.145  1.5587 -0.4744 -1.5673
13959TIP3   OH263367   4.297   2.846   2.931  0.6707 -0.4663  0.2520
13959TIP3    H163368   4.256   2.919   2.977 -1.6647 -1.0119 -0.8200
13959TIP3    H263369   4.362   2.887   2.874 -0.4118  0.7778 -0.1478
13960TIP3   OH263370   6.709   5.110  15.928 -0.0476 -0.0971  0.3039
13960TIP3    H163371   6.697   5.038  15.867  0.9980  0.0447 -0.0837
13960TIP3    H263372   6.658   5.182  15.890  0.6522  0.0119 -0.4531
13961TIP3   OH263373   0.376   4.443  14.713 -0.1960  0.3607  0.2339
13961TIP3    H163374   0.300   4.496  14.690 -0.6932 -0.1386  0.6795
13961TIP3    H263375   0.341   4.353  14.717  0.3258  0.1831  0.8580
13962TIP3   OH263376   2.939   0.553   1.719  0.2493  0.4992  0.5080
13962TIP3    H163377   2.849   0.583   1.731  0.0229 -0.2936  0.8926
13962TIP3    H263378   2.979   0.619   1.663 -0.4715  1.0439  0.6154
13963TIP3   OH263379   3.026   3.353  15.023 -0.0581  0.1036 -0.0201
13963TIP3    H163380   3.032   3.411  15.099  1.3208 -0.2588  0.1737
13963TIP3    H263381   3.008   3.411  14.949  0.5621  0.6838  0.2826
13964TIP3   OH263382   4.271   6.183   6.935 -0.1155 -0.2099  0.1590
13964TIP3    H163383   4.176   6.185   6.952 -0.1412 -1.0911  0.2113
13964TIP3    H263384   4.294   6.273   6.915 -1.3106 -0.2597 -1.7082
13965TIP3   OH263385   2.711   4.747   6.393 -0.4841 -0.2144  0.1741
13965TIP3    H163386   2.664   4.830   6.405 -0.1601  0.2673 -1.6285
13965TIP3    H263387   2.690   4.697   6.472 -1.9018  0.9932  0.6289
13966TIP3   OH263388   3.874   2.759   2.000 -0.0459  0.0323  0.4235
13966TIP3    H163389   3.803   2.724   2.053  0.1285 -0.2916  0.4431
13966TIP3    H263390   3.833   2.777   1.915 -0.3835  0.7964  0.7436
13967TIP3   OH263391   1.607   3.797   1.619  0.0998  0.0140 -0.3927
13967TIP3    H163392   1.568   3.868   1.568 -1.9443 -1.0062 -0.3439
13967TIP3    H263393   1.592   3.821   1.710  0.3642  0.0306 -0.3532
13968TIP3   OH263394   3.555   6.456  15.191  0.0823  0.0656 -0.1296
13968TIP3    H163395   3.624   6.502  15.238 -1.0288 -0.0399  1.6878
13968TIP3    H263396   3.527   6.387  15.251 -0.6935 -0.7359 -1.3743
13969TIP3   OH263397   5.482   4.498   1.844  0.7236  0.3190  0.0430
13969TIP3    H163398   5.548   4.435   1.814 -0.5843 -1.0912 -0.0144
13969TIP3    H263399   5.454   4.542   1.764  2.1969  1.5800  0.1826
13970TIP3   OH263400   5.109   2.959   4.199  0.3209  0.1205  0.4202
13970TIP3    H163401   5.129   2.880   4.148 -0.5231  0.2006 -0.0506
13970TIP3    H263402   5.188   3.013   4.191  0.5468 -0.2620 -0.0482
13971TIP3   OH263403   4.642   5.126   6.093  0.4889 -0.0999 -0.9074
13971TIP3    H163404   4.669   5.044   6.133 -0.1893  0.4517  0.7654
13971TIP3    H263405   4.709   5.189   6.119 -0.9758  0.7191  1.2062
13972TIP3   OH263406   1.706   5.322  11.903 -0.3948  0.1451  0.3463
13972TIP3    H163407   1.691   5.279  11.987 -1.2372 -0.5564 -0.1523
13972TIP3    H263408   1.801   5.331  11.898 -0.2941 -0.4185  1.0732
13973TIP3   OH263409   0.266   6.550   0.189 -0.0255  0.2133 -0.0137
13973TIP3    H163410   0.312   6.482   0.239  1.8385  1.2394 -0.2376
13973TIP3    H263411   0.212   6.502   0.127 -0.9929 -1.0720  1.7376
13974TIP3   OH263412   2.574   5.105   2.876 -0.2116  0.5325  1.0859
13974TIP3    H163413   2.536   5.047   2.942  0.2432 -1.0060  0.0408
13974TIP3    H263414   2.667   5.110   2.898 -0.4357  1.8929  1.8773
13975TIP3   OH263415   1.012   2.544  14.059  0.1587 -0.1587 -0.3542
13975TIP3    H163416   1.003   2.622  14.004  3.1477  0.4398 -0.1363
13975TIP3    H263417   0.926   2.535  14.101 -0.2535  3.1823 -0.1777
13976TIP3   OH263418   6.496   4.883  12.091 -0.6549  0.5721  0.3256
13976TIP3    H163419   6.474   4.949  12.156 -2.4192 -0.2337  0.5982
13976TIP3    H263420   6.424   4.885  12.029  0.3164  0.3542 -0.8421
13977TIP3   OH263421   4.551   5.986   0.029  0.8288 -0.4836 -0.6175
13977TIP3    H163422   4.531   5.955  -0.060 -0.8451 -0.9673 -0.1092
13977TIP3    H263423   4.510   5.922   0.086 -0.2831  1.1484  0.4888
13978TIP3   OH263424   5.879   4.764   6.647 -0.0939  0.2749  0.2117
13978TIP3    H163425   5.901   4.766   6.554 -0.7017  0.6372  0.0682
13978TIP3    H263426   5.874   4.856   6.672  0.4015  0.1749  0.6861
13979TIP3   OH263427   6.566   6.207  14.098  0.1950  0.2191 -0.6828
13979TIP3    H163428   6.594   6.291  14.134  1.7217  0.0772 -1.4650
13979TIP3    H263429   6.505   6.229  14.028 -0.9017  0.5741  0.3402
13980TIP3   OH263430   3.899   6.783  14.852  0.6892 -0.4589 -0.0022
13980TIP3    H163431   3.990   6.810  14.841  0.6777 -0.5496 -0.3441
13980TIP3    H263432   3.870   6.759  14.763 -0.3085  1.5809 -0.2904
13981TIP3   OH263433   4.155   4.139   5.039 -0.0469 -0.2962  0.2187
13981TIP3    H163434   4.067   4.137   5.078 -0.2569  0.9945 -0.1257
13981TIP3    H263435   4.149   4.081   4.963 -0.6407 -0.1496  0.1472
13982TIP3   OH263436   4.362   3.675   1.059  0.0469 -0.0901 -0.1001
13982TIP3    H163437   4.404   3.641   0.980 -0.4334 -0.2223 -0.2982
13982TIP3    H263438   4.278   3.710   1.030 -1.0304 -1.9182  0.6144
13983TIP3   OH263439   4.533   0.570   1.633 -0.0952  0.4528 -0.2232
13983TIP3    H163440   4.452   0.582   1.683 -0.5614  0.6475 -1.0075
13983TIP3    H263441   4.506   0.577   1.542  0.7951  0.4114 -0.4988
13984TIP3   OH263442   1.105   3.731  14.674 -0.3336 -0.1898 -0.4757
13984TIP3    H163443   1.050   3.666  14.719 -0.2532 -0.0601 -0.1860
13984TIP3    H263444   1.172   3.753  14.738  1.2133 -1.7503 -1.4459
13985TIP3   OH263445   5.611   2.949   2.873  0.0938  0.4293 -0.6949
13985TIP3    H163446   5.636   3.024   2.819  1.5686 -0.3851 -1.2086
13985TIP3    H263447   5.561   2.986   2.945 -1.4493  1.6235 -2.2930
13986TIP3   OH263448   2.786   2.016   0.836  0.4743  0.0038 -0.2866
13986TIP3    H163449   2.762   1.930   0.870 -0.5888  0.8882  1.3459
13986TIP3    H263450   2.825   2.062   0.911  0.6537  1.0772 -1.0102
13987TIP3   OH263451   3.596   5.243   0.137  0.0708 -0.0775 -0.1942
13987TIP3    H163452   3.618   5.336   0.134 -0.0378  0.0763  2.0073
13987TIP3    H263453   3.528   5.232   0.070  0.5392  1.2751 -0.9250
13988TIP3   OH263454   2.206   4.154   4.528  0.4077 -0.2862 -0.0711
13988TIP3    H163455   2.140   4.195   4.584 -0.4535 -1.2822 -0.3171
13988TIP3    H263456   2.187   4.189   4.440  0.3909 -0.3582 -0.0959
13989TIP3   OH263457   6.410   5.783   3.506  0.4487 -0.1367 -0.0984
13989TIP3    H163458   6.337   5.736   3.548  0.4365 -0.3934 -0.4059
13989TIP3    H263459   6.487   5.755   3.555  0.4437 -0.4944 -0.2911
13990TIP3   OH263460   1.178   1.917  10.868 -0.2399 -0.5099  0.3204
13990TIP3    H163461   1.182   1.830  10.828 -3.4455 -1.0118  0.8058
13990TIP3    H263462   1.170   1.977  10.793 -1.6731 -1.0258  0.0233
13991TIP3   OH263463   1.133   5.690  15.401  0.3589  0.0503  0.1944
13991TIP3    H163464   1.070   5.754  15.435 -0.4415  0.2840 -1.6141
13991TIP3    H263465   1.084   5.608  15.398  0.6181 -0.1055  0.1731
13992TIP3   OH263466   3.027   1.420   2.924 -0.4137  0.2645 -0.6049
13992TIP3    H163467   3.020   1.486   2.993 -0.5486 -0.6088  0.2373
13992TIP3    H263468   3.085   1.459   2.859  2.7438 -0.2436  1.6685
13993TIP3   OH263469   3.031   3.244   1.014 -0.4597  0.0239 -0.1433
13993TIP3    H163470   2.947   3.214   1.048  0.0396 -1.8317 -0.4343
13993TIP3    H263471   3.088   3.251   1.091 -0.4055 -0.4108 -0.1420
13994TIP3   OH263472   4.146   1.358  14.145  0.3005 -0.4381  0.6433
13994TIP3    H163473   4.221   1.377  14.087  0.3696 -0.6316  0.6697
13994TIP3    H263474   4.184   1.354  14.232  0.1070  0.4229  0.7765
13995TIP3   OH263475   4.608   2.401  16.624 -0.1678  0.2557 -0.4326
13995TIP3    H163476   4.531   2.453  16.646 -0.3312 -0.5811  1.1164
13995TIP3    H263477   4.602   2.387  16.529 -0.6565  2.1534 -0.7118
13996TIP3   OH263478   4.829   3.681  15.415  0.0081  0.0256 -0.3356
13996TIP3    H163479   4.764   3.742  15.449  0.8334 -0.0023  1.3714
13996TIP3    H263480   4.913   3.714  15.447  0.6314 -1.0837 -0.7600
13997TIP3   OH263481   1.612   3.914   0.857 -0.1317 -0.2973 -0.0752
13997TIP3    H163482   1.599   4.005   0.882 -0.5366 -0.5659  0.7322
13997TIP3    H263483   1.644   3.871   0.937 -3.0565 -1.5363  0.5636
13998TIP3   OH263484   5.564   6.772   5.234 -0.0408  0.3295 -0.0829
13998TIP3    H163485   5.531   6.682   5.241  0.0404  0.3589  0.8657
13998TIP3    H263486   5.583   6.797   5.324  0.6182  1.0509 -0.4103
13999TIP3   OH263487   3.242   4.814  13.363  0.0290  0.1798  0.1493
13999TIP3    H163488   3.314   4.791  13.422  0.7075  0.6123 -0.4917
13999TIP3    H263489   3.259   4.763  13.283 -0.3358  0.3503 -0.0422
14000TIP3   OH263490   1.608   6.358   5.230  0.0986 -0.1209  0.3807
14000TIP3    H163491   1.607   6.453   5.219  0.2333 -0.2806 -1.3487
14000TIP3    H263492   1.516   6.333   5.233  0.0204  0.2626  3.3956
14001TIP3   OH263493   0.222   5.204  12.605  0.2777 -0.5869  0.3457
14001TIP3    H163494   0.240   5.111  12.623 -2.6187 -1.1403  0.9667
14001TIP3    H263495   0.168   5.202  12.526 -0.9951  0.4025  1.1493
14002TIP3   OH263496   1.823   1.581   1.900 -0.4529 -0.5567  0.5230
14002TIP3    H163497   1.730   1.558   1.897 -0.5523 -0.0830 -0.1338
14002TIP3    H263498   1.825   1.676   1.888  0.0527 -0.4138  1.6417
14003TIP3   OH263499   5.694   1.180   0.787  0.6057  0.9822  0.2480
14003TIP3    H163500   5.709   1.088   0.768 -0.3266  0.5764  1.3811
14003TIP3    H263501   5.666   1.218   0.703  2.2622  0.5527 -0.5383
14004TIP3   OH263502   3.830   4.114   2.480  0.1326  0.8568 -0.1419
14004TIP3    H163503   3.822   4.208   2.496 -1.4700  0.6251  0.5979
14004TIP3    H263504   3.770   4.096   2.408  0.0566  0.3238  0.0442
14005TIP3   OH263505   0.542   1.923  14.802 -0.4558  0.2935 -0.0988
14005TIP3    H163506   0.536   1.828  14.807  0.4655  0.2802  0.9047
14005TIP3    H263507   0.451   1.953  14.809 -0.5657 -0.4160  2.3065
14006TIP3   OH263508   6.028   3.343   0.076 -0.2031 -0.4792 -0.3194
14006TIP3    H163509   6.060   3.281   0.141  0.2845  0.5686  0.4806
14006TIP3    H263510   5.934   3.346   0.090 -0.0243  0.3516  0.9581
14007TIP3   OH263511   0.691   2.748   0.761 -0.3560 -1.0300  0.0143
14007TIP3    H163512   0.700   2.843   0.769 -1.3398 -1.0503  2.0007
14007TIP3    H263513   0.601   2.736   0.729 -0.8249 -1.3022  1.3762
14008TIP3   OH263514   1.244   0.159  13.984 -0.0534  0.5160 -0.0324
14008TIP3    H163515   1.245   0.075  14.031 -0.7836 -0.4938 -1.7132
14008TIP3    H263516   1.163   0.201  14.013 -1.6148 -1.0414 -1.8114
14009TIP3   OH263517   5.938   4.311   1.588 -0.5053  0.5820 -0.1842
14009TIP3    H163518   6.011   4.356   1.630 -0.3989 -1.7788  2.3992
14009TIP3    H263519   5.978   4.239   1.540 -0.8773  1.7403 -2.4055
14010TIP3   OH263520   4.225   2.210  12.289  0.4526 -0.1197  0.9361
14010TIP3    H163521   4.201   2.120  12.312  2.4736 -0.1783  3.2608
14010TIP3    H263522   4.307   2.202  12.242 -1.4402  0.3614 -2.8062
14011TIP3   OH263523   2.667   4.486   1.989  0.1783  0.1145 -0.1799
14011TIP3    H163524   2.721   4.551   1.944  1.3250 -1.5006 -1.2794
14011TIP3    H263525   2.729   4.438   2.045 -0.2967 -1.0380 -0.5983
14012TIP3   OH263526   5.189   5.969   0.754 -0.6983  0.2615 -0.5185
14012TIP3    H163527   5.257   6.016   0.802  0.1458 -1.8888  0.5465
14012TIP3    H263528   5.212   5.982   0.662  0.1026  1.0562 -0.2162
14013TIP3   OH263529   2.748   0.796   4.668  0.2169  0.0421  0.1696
14013TIP3    H163530   2.753   0.708   4.630  0.2874  0.6353 -1.2839
14013TIP3    H263531   2.828   0.804   4.720 -0.2321 -1.0666  1.0642
14014TIP3   OH263532   0.308   4.436  15.833  0.1802 -0.2049  0.1416
14014TIP3    H163533   0.267   4.383  15.765 -1.0395 -1.5066  1.7933
14014TIP3    H263534   0.281   4.526  15.813  0.3226 -0.4780 -1.3880
14015TIP3   OH263535   4.541   6.779   0.396 -0.3086 -0.1437 -0.3255
14015TIP3    H163536   4.577   6.855   0.351 -1.3311 -0.7935 -2.3691
14015TIP3    H263537   4.458   6.761   0.351 -1.8749 -0.3510  2.4105
14016TIP3   OH263538   1.503   2.132  17.176  0.0424 -0.5937  0.1649
14016TIP3    H163539   1.580   2.188  17.184  0.2886 -0.7665 -0.8710
14016TIP3    H263540   1.433   2.180  17.219  0.7032 -0.3888  1.0274
14017TIP3   OH263541   0.750   3.021  16.175 -0.4638  0.2901  0.1518
14017TIP3    H163542   0.750   2.939  16.125  1.6540 -0.7974  1.7167
14017TIP3    H263543   0.813   3.077  16.129 -0.6678  0.4062  0.0126
14018TIP3   OH263544   5.038   5.766   5.124  0.1755  0.2090 -0.4033
14018TIP3    H163545   5.100   5.699   5.094  1.6581  0.8900  1.0154
14018TIP3    H263546   4.983   5.720   5.187  1.0231  0.2294  0.3743
14019TIP3   OH263547   0.827   2.822   3.420  0.1523 -0.3072  1.0241
14019TIP3    H163548   0.759   2.865   3.369  0.0793 -0.7726  0.7210
14019TIP3    H263549   0.801   2.836   3.511  0.8985  1.5214  0.9943
14020TIP3   OH263550   4.301   4.576  12.147 -0.3071 -0.0060  0.5114
14020TIP3    H163551   4.333   4.630  12.219  0.0382 -0.5641  0.7841
14020TIP3    H263552   4.305   4.632  12.070 -2.1621  1.1274  1.1730
14021TIP3   OH263553   3.992   1.546  12.777  0.3791  0.0322  0.3728
14021TIP3    H163554   3.985   1.628  12.825 -1.9124  0.0542  0.1231
14021TIP3    H263555   3.905   1.532  12.741  1.0129 -1.9482 -0.5495
14022TIP3   OH263556   1.131   6.079   0.292  0.1852  0.1194 -0.1894
14022TIP3    H163557   1.080   6.004   0.322 -1.7701  0.8502 -1.5146
14022TIP3    H263558   1.179   6.108   0.369  0.9719 -2.4319  0.3789
14023TIP3   OH263559   1.397   2.666  12.439 -0.8725  0.1696  0.4949
14023TIP3    H163560   1.357   2.594  12.390 -0.1062  1.1612 -1.6860
14023TIP3    H263561   1.475   2.689  12.389  0.9749  0.1260  3.1442
14024TIP3   OH263562   0.041   5.782   4.653 -0.0483 -0.3147  0.1087
14024TIP3    H163563  -0.052   5.761   4.651 -0.1932  0.3280 -0.3116
14024TIP3    H263564   0.082   5.717   4.595 -0.2026 -0.7260  0.4557
14025TIP3   OH263565   1.854   2.496   0.360  0.5597 -0.3946 -0.2436
14025TIP3    H163566   1.934   2.465   0.401  1.1509  1.4050  0.0615
14025TIP3    H263567   1.802   2.531   0.432 -0.3586 -1.2377 -0.4879
14026TIP3   OH263568   4.875   6.691  15.943 -0.1861 -0.7896  0.2046
14026TIP3    H163569   4.939   6.672  15.875  0.8451  3.0985 -0.1645
14026TIP3    H263570   4.795   6.712  15.895  0.7184  2.6215 -0.1186
14027TIP3   OH263571   3.904   1.954  11.048  0.3112 -0.1696 -0.4104
14027TIP3    H163572   3.812   1.971  11.029  0.1097 -1.6803 -0.8679
14027TIP3    H263573   3.951   1.990  10.972 -0.1048 -1.5139 -1.3473
14028TIP3   OH263574   1.594   1.023  11.852 -0.0280  0.0460 -0.4158
14028TIP3    H163575   1.658   0.961  11.816 -1.5513 -1.8123 -0.1179
14028TIP3    H263576   1.646   1.086  11.901  1.6483 -0.7601 -1.0801
14029TIP3   OH263577   4.918   5.869  16.274  0.4099  0.2154 -0.0059
14029TIP3    H163578   4.953   5.834  16.356  0.8402  0.8876  0.1001
14029TIP3    H263579   4.867   5.945  16.299 -0.6248 -0.3851 -0.2314
14030TIP3   OH263580   2.093   6.316   4.025  0.2675 -0.1926 -0.1211
14030TIP3    H163581   2.071   6.391   3.970 -2.8177 -0.4653  0.5691
14030TIP3    H263582   2.049   6.242   3.983  1.4594 -1.2213  0.3921
14031TIP3   OH263583   2.689   3.318  15.508 -0.7499 -0.0055 -0.0705
14031TIP3    H163584   2.598   3.290  15.499 -0.5378 -0.9595  0.6525
14031TIP3    H263585   2.687   3.411  15.484 -1.7654 -0.2029 -0.8312
14032TIP3   OH263586   5.885   4.667   0.484 -0.0257 -0.0482 -0.2355
14032TIP3    H163587   5.892   4.616   0.565  0.6966 -1.0802 -0.9220
14032TIP3    H263588   5.975   4.695   0.466 -0.1925  0.2235 -0.6448
14033TIP3   OH263589   3.571   1.298  12.483  0.2417  0.2192 -0.0617
14033TIP3    H163590   3.621   1.217  12.489  0.1808 -0.1063 -2.8160
14033TIP3    H263591   3.485   1.271  12.451  0.2682  1.3653 -1.1802
14034TIP3   OH263592   2.666   0.914   3.606  0.0909 -0.2267  0.7554
14034TIP3    H163593   2.754   0.887   3.578  0.1645 -0.9523  1.6113
14034TIP3    H263594   2.682   0.981   3.672  0.0008 -0.2445  0.7947
14035TIP3   OH263595   1.962   5.193   5.769  0.1825  0.6952 -0.0423
14035TIP3    H163596   1.976   5.172   5.676  2.2139 -1.4314  0.6418
14035TIP3    H263597   1.867   5.204   5.777 -0.0321  0.9954 -2.3749
14036TIP3   OH263598   4.177   0.880  16.155  0.5475  0.1298  0.6862
14036TIP3    H163599   4.267   0.851  16.137  1.5260  2.6695  1.0808
14036TIP3    H263600   4.183   0.925  16.239 -1.1185  0.3864  0.6885
14037TIP3   OH263601   4.255   5.725  14.749  0.1313  0.2704 -0.5229
14037TIP3    H163602   4.225   5.655  14.807 -0.1158 -0.5772 -1.6203
14037TIP3    H263603   4.179   5.782  14.739  0.3432  0.7302  0.4045
14038TIP3   OH263604   1.248   5.958   5.269  0.5939  0.4530  0.0752
14038TIP3    H163605   1.248   5.980   5.176  0.1560 -1.7154 -0.4890
14038TIP3    H263606   1.174   6.008   5.305  0.5582  1.0513 -0.7927
14039TIP3   OH263607   2.297   5.276  14.743  0.8667 -0.2338 -0.4210
14039TIP3    H163608   2.203   5.259  14.746  0.1755  2.9705 -0.2604
14039TIP3    H263609   2.308   5.336  14.669  2.7694 -0.3988 -0.3150
14040TIP3   OH263610   6.698   3.363   0.087  0.6493 -0.1701 -0.3101
14040TIP3    H163611   6.793   3.346   0.084  0.8175  0.4047  0.8318
14040TIP3    H263612   6.662   3.285   0.128  0.7428 -0.0665 -0.0214
14041TIP3   OH263613   5.760   1.715  11.890 -0.2003 -0.4395  0.2699
14041TIP3    H163614   5.843   1.692  11.932 -0.9196 -0.4210  1.7762
14041TIP3    H263615   5.747   1.808  11.911 -1.3966 -0.8594  1.5225
14042TIP3   OH263616   3.789   4.858  14.470  0.3451  0.4117 -0.9665
14042TIP3    H163617   3.836   4.803  14.533 -3.2663 -1.1157  0.7299
14042TIP3    H263618   3.754   4.930  14.523 -0.3211  0.7247 -1.8061
14043TIP3   OH263619   3.131   2.679  16.342  0.4000 -0.5758 -0.7271
14043TIP3    H163620   3.114   2.691  16.249  0.2020 -0.9554 -0.7431
14043TIP3    H263621   3.201   2.613  16.345 -0.8670 -1.9768 -0.5785
14044TIP3   OH263622   2.168   5.513   0.867  0.0191 -0.1577 -0.0311
14044TIP3    H163623   2.230   5.481   0.932 -1.2350 -1.7412  0.4554
14044TIP3    H263624   2.096   5.550   0.919 -1.4117 -2.2359 -0.4149
14045TIP3   OH263625   0.209   3.887  16.514 -0.8203 -0.2475 -0.2361
14045TIP3    H163626   0.281   3.841  16.470 -1.3415  0.5309 -1.9878
14045TIP3    H263627   0.131   3.839  16.486 -1.0939 -0.3105  0.6324
14046TIP3   OH263628   1.190   5.808  14.116  0.1394  0.4051  0.1259
14046TIP3    H163629   1.161   5.857  14.039  1.8642 -1.8387 -2.1067
14046TIP3    H263630   1.136   5.729  14.117  0.8734 -0.1047  0.5786
14047TIP3   OH263631   5.110   4.065  15.888 -0.0621 -0.7700 -0.2628
14047TIP3    H163632   5.034   4.010  15.871 -0.2376 -0.0634 -1.8422
14047TIP3    H263633   5.076   4.140  15.937 -0.0973 -1.2193  0.4172
14048TIP3   OH263634   0.568   6.406  13.224 -0.3895  0.5823 -0.2819
14048TIP3    H163635   0.638   6.447  13.173 -1.9526  1.4691 -1.7800
14048TIP3    H263636   0.519   6.354  13.161  0.1727 -1.8504  1.1663
14049TIP3   OH263637   1.117   1.212  11.112  0.0061  0.1841 -0.5988
14049TIP3    H163638   1.103   1.243  11.201  1.4391  0.0390 -0.2941
14049TIP3    H263639   1.041   1.159  11.092 -1.2303  1.7149 -0.1523
14050TIP3   OH263640   2.055   1.347   1.994 -0.5627  0.1072 -0.0358
14050TIP3    H163641   2.081   1.258   2.013 -0.5379 -0.0036 -0.5598
14050TIP3    H263642   2.123   1.380   1.935 -3.1383 -1.3062 -4.2629
14051TIP3   OH263643   6.452   1.356   1.720  0.2702 -0.7266 -0.0525
14051TIP3    H163644   6.475   1.441   1.684  1.0394 -0.2255  1.5253
14051TIP3    H263645   6.358   1.347   1.704  0.2311  0.2940 -0.4580
14052TIP3   OH263646   3.188   3.939  12.311 -0.2241  0.4489 -0.7109
14052TIP3    H163647   3.120   3.889  12.265  0.4768  0.5951 -1.9602
14052TIP3    H263648   3.141   4.009  12.355 -0.8626  0.9484 -2.1070
14053TIP3   OH263649   5.321   4.266  16.978  0.0289  0.3059  0.5564
14053TIP3    H163650   5.284   4.205  16.915 -1.9869  2.5208 -0.5648
14053TIP3    H263651   5.254   4.274  17.046  0.4974  0.8488  0.9603
14054TIP3   OH263652   3.011   2.143   4.997 -0.0576  0.5256 -0.4888
14054TIP3    H163653   2.999   2.062   4.947  0.2139  0.8240 -1.0470
14054TIP3    H263654   3.106   2.150   5.009 -0.0072  1.2074 -1.2009
14055TIP3   OH263655   0.816   6.464  14.797 -0.0728 -1.1859  0.5116
14055TIP3    H163656   0.796   6.400  14.729 -0.6599  0.4114 -0.8708
14055TIP3    H263657   0.740   6.522  14.799  1.0673  0.3622  0.6670
14056TIP3   OH263658   5.157   5.469   6.117 -0.0820  0.2939  0.3307
14056TIP3    H163659   5.144   5.380   6.150 -0.5365 -0.0054 -0.6304
14056TIP3    H263660   5.072   5.510   6.128 -0.1861  0.2475 -0.2966
14057TIP3   OH263661   5.920   2.888  15.230  0.4723 -0.0173  0.1000
14057TIP3    H163662   5.910   2.793  15.227  0.1016  0.0180 -2.8218
14057TIP3    H263663   6.014   2.902  15.215  0.6320  0.1105  1.1257
14058TIP3   OH263664   1.607   1.484  12.253 -0.1938  0.3804  0.1622
14058TIP3    H163665   1.590   1.396  12.219  2.6215 -0.1634 -0.1460
14058TIP3    H263666   1.608   1.473  12.348  0.5076 -0.0244  0.1157
14059TIP3   OH263667   0.300   4.151   5.251  0.2886 -0.2732 -0.1965
14059TIP3    H163668   0.381   4.194   5.279 -0.3433  0.1039  1.1184
14059TIP3    H263669   0.291   4.175   5.159  1.1590  0.4961 -0.0994
14060TIP3   OH263670   0.328   4.189  17.155  0.1513  0.5386 -0.0943
14060TIP3    H163671   0.301   4.184  17.247  1.6639 -1.4676  0.3235
14060TIP3    H263672   0.371   4.105  17.139  1.3067  1.4671 -2.1969
14061TIP3   OH263673   3.945   1.907   3.761 -0.0883  0.1136  0.0974
14061TIP3    H163674   4.000   1.894   3.839 -0.8775 -1.3308  0.4332
14061TIP3    H263675   3.901   1.991   3.777  1.1555  0.7500  0.3259
14062TIP3   OH263676   2.066   3.254  15.872 -0.2797 -0.1641  0.1004
14062TIP3    H163677   2.023   3.338  15.890 -1.6053 -0.7116 -0.3506
14062TIP3    H263678   2.073   3.250  15.777  0.0974 -0.4064  0.1394
14063TIP3   OH263679   1.709   2.822  17.031 -1.0060 -0.1535  0.8681
14063TIP3    H163680   1.622   2.799  17.000 -1.3781 -0.0683  1.8203
14063TIP3    H263681   1.736   2.747  17.085 -0.3092 -0.3691  0.2323
14064TIP3   OH263682   3.528   6.406   4.036  0.1395 -0.4808  0.7468
14064TIP3    H163683   3.582   6.378   3.961  0.9615  2.2326  0.2177
14064TIP3    H263684   3.577   6.376   4.112  1.1949 -0.1519  0.2279
14065TIP3   OH263685   6.520   4.483  14.547  0.1645  0.0185 -0.1375
14065TIP3    H163686   6.448   4.493  14.609  0.2640 -0.0349 -0.0125
14065TIP3    H263687   6.500   4.402  14.500  1.0361 -0.9620  1.1033
14066TIP3   OH263688   4.571   1.136   3.160 -0.8082 -0.3936 -0.4392
14066TIP3    H163689   4.491   1.095   3.126 -1.6197 -0.1149  1.0803
14066TIP3    H263690   4.640   1.072   3.143 -1.7468 -1.6214  0.2651
14067TIP3   OH263691   0.779   0.634  13.267  0.1759 -0.2513  0.2307
14067TIP3    H163692   0.770   0.622  13.172 -0.0725  3.4227 -0.3402
14067TIP3    H263693   0.697   0.675  13.294  0.9561  0.3865  1.6991
14068TIP3   OH263694   1.306   3.699  13.856  0.0868 -0.3464 -0.2224
14068TIP3    H163695   1.371   3.741  13.801 -1.4673  2.2572 -0.2492
14068TIP3    H263696   1.294   3.760  13.929 -1.1743 -1.5292  0.6109
14069TIP3   OH263697   5.570   5.974  15.468 -0.0252  0.4706  0.3507
14069TIP3    H163698   5.525   6.054  15.438  0.7545  0.5310 -0.7298
14069TIP3    H263699   5.660   5.986  15.438  0.1122 -0.7791  0.2507
14070TIP3   OH263700   0.306   2.415  14.531 -0.2543  0.3384  0.1007
14070TIP3    H163701   0.269   2.380  14.613  1.8156  0.7700  1.2913
14070TIP3    H263702   0.320   2.508  14.549 -1.6787  0.9015 -1.5131
14071TIP3   OH263703   2.011   5.788   3.671  1.1109 -0.5946  0.7234
14071TIP3    H163704   2.040   5.878   3.658 -2.0974  0.3832 -0.5261
14071TIP3    H263705   1.997   5.780   3.765 -0.3194  0.8621  0.6637
14072TIP3   OH263706   2.699   6.583  17.226 -0.2326 -0.2448 -0.2295
14072TIP3    H163707   2.673   6.560  17.136  0.9365 -1.1202 -0.3679
14072TIP3    H263708   2.793   6.562  17.230  0.8078  3.7047 -0.0596
14073TIP3   OH263709   1.283   1.132  16.562  0.2711  0.4798  0.5864
14073TIP3    H163710   1.375   1.156  16.566  0.6300 -0.4451 -1.1607
14073TIP3    H263711   1.238   1.212  16.535  0.8197  0.4710 -0.3890
14074TIP3   OH263712   2.554   3.874  14.725  0.0012  0.0831  0.1662
14074TIP3    H163713   2.567   3.944  14.661  1.3261 -0.5586 -0.2943
14074TIP3    H263714   2.567   3.916  14.810  1.2577  0.3178 -0.1245
14075TIP3   OH263715   3.457   0.936   2.686  0.6065  0.2915 -0.3320
14075TIP3    H163716   3.396   0.942   2.759  0.1761 -1.9797 -0.4124
14075TIP3    H263717   3.511   1.014   2.692 -2.4482  2.5873 -0.4197
14076TIP3   OH263718   4.480   4.938   4.630  0.4262 -0.5807 -0.2020
14076TIP3    H163719   4.399   4.916   4.584 -0.4046  0.9936  0.4267
14076TIP3    H263720   4.509   4.855   4.668 -1.4022 -1.0214  0.3557
14077TIP3   OH263721   5.077   6.112   2.330  0.0843  0.3500 -0.4286
14077TIP3    H163722   5.025   6.076   2.258  1.4029  2.6912 -2.7051
14077TIP3    H263723   5.039   6.072   2.408 -2.5342 -1.0551 -2.2403
14078TIP3   OH263724   6.354   4.162   2.311 -0.1048  0.0235  0.4375
14078TIP3    H163725   6.412   4.132   2.382  1.2812  0.6442 -0.3951
14078TIP3    H263726   6.342   4.085   2.256  0.7479  0.1286  0.0893
14079TIP3   OH263727   2.326   3.398  16.886  0.1990 -0.1902  0.1635
14079TIP3    H163728   2.245   3.370  16.845 -0.6763 -0.4693  1.9842
14079TIP3    H263729   2.393   3.388  16.818 -0.9618 -1.7902 -0.7967
14080TIP3   OH263730   1.064   4.888   6.604 -0.7415 -0.3368  0.2875
14080TIP3    H163731   1.069   4.857   6.694 -0.6991  1.3850  0.9155
14080TIP3    H263732   0.974   4.872   6.577 -0.3808 -2.2141  0.0923
14081TIP3   OH263733   5.448   4.334  11.734  0.2108  0.1993  0.2495
14081TIP3    H163734   5.429   4.361  11.824 -0.4110  1.7575 -0.3027
14081TIP3    H263735   5.388   4.387  11.681  0.7457 -0.5026 -1.0957
14082TIP3   OH263736   4.093   3.157  16.858  0.6668 -0.5430 -0.2977
14082TIP3    H163737   4.115   3.116  16.941 -0.1096 -1.1813 -0.3996
14082TIP3    H263738   4.000   3.136  16.845  0.7237 -0.2493 -1.2090
14083TIP3   OH263739   0.078   4.770  14.426  0.1133  0.1137 -0.0216
14083TIP3    H163740  -0.002   4.790  14.475  1.0797  1.9428  0.8856
14083TIP3    H263741   0.064   4.812  14.341 -0.2941 -0.4689 -0.2561
14084TIP3   OH263742   0.518   2.024   1.901 -0.3645  0.3334  0.2302
14084TIP3    H163743   0.428   2.017   1.931 -1.0420  0.5271 -1.6390
14084TIP3    H263744   0.534   1.942   1.853 -0.5797  1.4626 -1.9138
14085TIP3   OH263745   6.106   2.318  16.693 -0.2427 -0.2581 -0.1174
14085TIP3    H163746   6.108   2.289  16.601 -0.7237  1.2062 -0.6131
14085TIP3    H263747   6.173   2.264  16.736 -0.2545 -1.2179 -1.2459
14086TIP3   OH263748   6.031   6.452   3.224  0.5372 -0.4694 -0.5883
14086TIP3    H163749   6.053   6.392   3.152  1.3631 -0.1618 -0.6023
14086TIP3    H263750   6.009   6.534   3.180 -0.0553 -0.5981 -0.5395
14087TIP3   OH263751   1.665   2.100   0.288 -0.2231  0.3837  0.2974
14087TIP3    H163752   1.734   2.034   0.293 -1.1721 -0.6616 -0.0798
14087TIP3    H263753   1.692   2.158   0.217  0.3187  0.0412  0.2192
14088TIP3   OH263754   2.336   5.784   0.380  0.1465  1.1600 -0.0877
14088TIP3    H163755   2.338   5.753   0.470  0.0143  0.9751 -0.1477
14088TIP3    H263756   2.420   5.830   0.368 -0.4707  2.5388  0.5965
14089TIP3   OH263757   2.233   5.411   5.815  0.3786  0.4332 -0.3955
14089TIP3    H163758   2.312   5.428   5.866  0.0071  0.5352  0.1709
14089TIP3    H263759   2.162   5.424   5.878 -0.0544 -0.3636 -0.7071
14090TIP3   OH263760   2.511   3.293   3.604 -0.1127  0.3714  0.7222
14090TIP3    H163761   2.432   3.343   3.581 -0.6552 -1.4743 -1.8520
14090TIP3    H263762   2.477   3.209   3.636  0.7799 -0.3056 -0.0705
14091TIP3   OH263763   2.899   4.909  14.082  0.0435  0.0220 -0.2080
14091TIP3    H163764   2.960   4.947  14.018 -0.5448  1.1241 -0.1401
14091TIP3    H263765   2.918   4.815  14.079  2.1335  0.3645  0.2200
14092TIP3   OH263766   5.288   2.261   1.268 -0.4603  0.7424  0.2546
14092TIP3    H163767   5.223   2.295   1.206 -2.1326  0.8191  1.9719
14092TIP3    H263768   5.299   2.169   1.244 -1.5074  0.6280  0.1773
14093TIP3   OH263769   6.790   4.820  12.236 -0.3668 -0.2979 -0.1001
14093TIP3    H163770   6.832   4.802  12.152 -0.7179  1.6270 -0.7314
14093TIP3    H263771   6.697   4.824  12.216 -0.6351 -1.6023  0.7478
14094TIP3   OH263772   6.141   1.289  16.373 -0.0169  0.1599  0.2247
14094TIP3    H163773   6.046   1.294  16.369 -0.1666 -1.8212  0.4095
14094TIP3    H263774   6.171   1.332  16.293 -1.0743  0.4490 -0.0255
14095TIP3   OH263775   5.806   1.398   0.874  0.1003 -0.1749  0.3443
14095TIP3    H163776   5.777   1.308   0.857 -0.6255 -0.0072  0.6428
14095TIP3    H263777   5.892   1.404   0.833  0.4623 -1.2219  0.8995
14096TIP3   OH263778   5.536   0.861  14.371 -0.0617 -0.7188  0.5654
14096TIP3    H163779   5.549   0.806  14.449  1.9668 -1.2769 -0.1036
14096TIP3    H263780   5.601   0.830  14.309 -1.8401 -0.4957 -1.5246
14097TIP3   OH263781   1.357   2.315  13.088 -0.0809  0.2450 -0.3005
14097TIP3    H163782   1.280   2.289  13.036 -0.6184  1.1037  0.0450
14097TIP3    H263783   1.395   2.388  13.039 -0.3354  0.7675  0.2598
14098TIP3   OH263784   6.430   1.933  12.393  0.4487 -0.2439  0.0151
14098TIP3    H163785   6.397   1.874  12.325 -0.8887 -0.9692  1.2194
14098TIP3    H263786   6.485   1.995  12.347  0.4574 -1.3681 -1.5651
14099TIP3   OH263787   2.522   3.385   1.402  0.1566  0.4531 -0.8411
14099TIP3    H163788   2.610   3.391   1.441 -0.3435  0.9265  0.2578
14099TIP3    H263789   2.534   3.415   1.312  0.7050  2.9919 -0.0099
14100TIP3   OH263790   3.159   2.110  16.680  0.6581  0.4258  0.2804
14100TIP3    H163791   3.245   2.118  16.722  1.6099 -0.7695 -1.3154
14100TIP3    H263792   3.175   2.132  16.589 -0.7907  0.3223 -0.0204
14101TIP3   OH263793   5.009   0.477  11.468  0.3704 -0.1656 -0.6016
14101TIP3    H163794   4.992   0.408  11.405  0.7824 -1.3635  0.5462
14101TIP3    H263795   5.075   0.532  11.426 -0.3697 -0.1183 -1.7582
14102TIP3   OH263796   6.471   3.507  17.198 -0.4137 -0.7985  0.5516
14102TIP3    H163797   6.526   3.457  17.138  0.9263  2.6131 -1.3517
14102TIP3    H263798   6.533   3.559  17.249 -1.7363  0.7598  0.6527
14103TIP3   OH263799   6.098   6.101  13.368  0.3431 -0.4645 -0.0388
14103TIP3    H163800   6.152   6.151  13.429 -0.2263  1.0242 -0.7234
14103TIP3    H263801   6.035   6.164  13.334  0.1361 -1.4545 -1.5630
14104TIP3   OH263802   0.951   0.831   2.822 -0.9083 -0.4373 -0.1977
14104TIP3    H163803   0.868   0.863   2.858  0.0013 -0.5941  2.2403
14104TIP3    H263804   0.929   0.801   2.734 -3.6432 -1.3721  0.7000
14105TIP3   OH263805   6.163   0.286   6.030 -0.0862  0.7422  0.0633
14105TIP3    H163806   6.097   0.218   6.039  0.2831  0.3011 -0.4898
14105TIP3    H263807   6.227   0.267   6.099 -0.2238  0.8083  0.2096
14106TIP3   OH263808   3.227   0.670   0.838 -0.0955  0.3887  0.2728
14106TIP3    H163809   3.164   0.741   0.830  0.9687  1.1965 -1.3552
14106TIP3    H263810   3.200   0.606   0.773  1.2314  1.1674 -1.1240
14107TIP3   OH263811   3.558   5.913  16.995  0.2310 -0.2692  0.2886
14107TIP3    H163812   3.565   5.849  16.925  2.8531  1.1014 -0.8278
14107TIP3    H263813   3.615   5.881  17.064  0.1227 -0.0434  0.4883
14108TIP3   OH263814   2.748   0.446   2.867 -0.5005 -0.0135 -0.3047
14108TIP3    H163815   2.682   0.397   2.818  0.1884 -1.5292  0.2045
14108TIP3    H263816   2.820   0.384   2.879 -0.9116 -0.0628  3.2517
14109TIP3   OH263817   4.490   1.548  11.647  0.2323  0.1649  0.1373
14109TIP3    H163818   4.527   1.602  11.577 -0.4165  1.3885  0.7245
14109TIP3    H263819   4.402   1.526  11.616  0.3431 -0.2125  0.0865
14110TIP3   OH263820   1.540   6.172  10.705  0.1078  0.1895  1.0595
14110TIP3    H163821   1.574   6.247  10.753 -1.7499  0.0279  2.7591
14110TIP3    H263822   1.597   6.099  10.730  1.3276  0.8129  0.1637
14111TIP3   OH263823   6.777   0.144  15.001 -0.2729  0.2234 -0.2796
14111TIP3    H163824   6.849   0.157  14.940 -0.2317  1.0475 -0.0685
14111TIP3    H263825   6.700   0.178  14.955 -0.0931  1.7104  0.4392
14112TIP3   OH263826   6.038   4.457   6.226  0.1522  0.0050  0.4699
14112TIP3    H163827   6.081   4.434   6.144  2.6606 -0.5657  1.8266
14112TIP3    H263828   6.019   4.374   6.268 -0.5160  0.2970  0.7624
14113TIP3   OH263829   6.808   4.206  11.936  0.0120 -0.2926  0.0102
14113TIP3    H163830   6.882   4.170  11.888  0.0595 -1.1980  0.7300
14113TIP3    H263831   6.810   4.161  12.021  0.6954  2.1587  1.3899
14114TIP3   OH263832   1.657   3.553   5.376 -0.1750 -0.1141 -0.1368
14114TIP3    H163833   1.617   3.603   5.447 -0.5476  2.1407 -1.7950
14114TIP3    H263834   1.692   3.475   5.417 -0.7741  0.8788  2.4197
14115TIP3   OH263835   4.687   3.447   5.232 -0.2178  0.0024 -0.4223
14115TIP3    H163836   4.648   3.407   5.310  2.7217  0.2264  1.3292
14115TIP3    H263837   4.779   3.461   5.256  0.8166  0.1700 -3.9392
14116TIP3   OH263838   3.731   5.518  14.621 -0.0322  0.0880  0.2229
14116TIP3    H163839   3.729   5.422  14.627 -0.9300  0.1668  1.7147
14116TIP3    H263840   3.656   5.540  14.566 -0.1801 -0.0587  0.3606
14117TIP3   OH263841   3.759   5.315   2.108 -0.1861  0.6375  0.8070
14117TIP3    H163842   3.716   5.290   2.190 -0.7871  1.6585  0.8164
14117TIP3    H263843   3.732   5.406   2.094  1.3096  1.0427  0.3841
14118TIP3   OH263844   0.243   5.045  16.232  0.0674  0.5050  0.0834
14118TIP3    H163845   0.238   5.024  16.139 -1.5156 -0.2987  0.3072
14118TIP3    H263846   0.228   5.140  16.236 -2.4900  0.2011 -0.3750
14119TIP3   OH263847   1.710   5.523   4.850 -0.0174  0.1850  0.2465
14119TIP3    H163848   1.730   5.464   4.922 -0.0663  0.5478  0.5609
14119TIP3    H263849   1.631   5.570   4.877  0.8621  1.4849  0.6880
14120TIP3   OH263850   5.274   0.229   0.379 -0.1900  0.3269  0.1622
14120TIP3    H163851   5.210   0.218   0.309 -2.5020  2.9870  1.6476
14120TIP3    H263852   5.264   0.151   0.433 -1.0108 -0.0344 -0.4781
14121TIP3   OH263853   2.424   0.273   2.918 -0.4969  0.0387 -0.5806
14121TIP3    H163854   2.383   0.296   3.002  3.4245  1.4365  1.1767
14121TIP3    H263855   2.437   0.356   2.874  2.0500 -0.0289 -0.1349
14122TIP3   OH263856   0.325   1.756  14.020  0.2698 -0.1892  0.2771
14122TIP3    H163857   0.297   1.670  14.051  3.4465 -1.3545  0.3602
14122TIP3    H263858   0.345   1.805  14.100  1.8263 -0.7050  0.2408
14123TIP3   OH263859   6.483   6.066   3.085  0.0573 -0.4975 -0.2429
14123TIP3    H163860   6.497   5.998   3.152 -1.6564 -1.0125 -0.3521
14123TIP3    H263861   6.409   6.033   3.034  0.6693  0.3961 -1.7458
14124TIP3   OH263862   2.139   3.979  12.193 -0.0461 -0.5951  0.2264
14124TIP3    H163863   2.206   3.981  12.125  1.1013  1.4090  1.3290
14124TIP3    H263864   2.115   3.887  12.201  0.6168 -1.0229 -2.0553
14125TIP3   OH263865   1.503   2.017   5.572 -0.4272  0.2196 -0.1587
14125TIP3    H163866   1.544   2.083   5.628  0.4436  1.3188 -2.0026
14125TIP3    H263867   1.562   2.008   5.498 -2.6631  0.6487 -2.1137
14126TIP3   OH263868   6.404   0.993  14.747  0.4405 -0.3728  0.0323
14126TIP3    H163869   6.471   1.044  14.701 -0.8067  0.9890 -0.3251
14126TIP3    H263870   6.431   0.997  14.839 -0.0479  1.6564  0.1315
14127TIP3   OH263871   6.070   5.163   1.137  0.0147  0.4329 -0.0001
14127TIP3    H163872   6.026   5.091   1.091  1.6023  0.7157 -2.1254
14127TIP3    H263873   6.049   5.241   1.085  2.1541  0.7170 -0.5481
14128TIP3   OH263874   6.088   2.174  13.959  0.5905 -0.8913  0.2652
14128TIP3    H163875   6.148   2.200  13.890 -0.9677 -1.1681 -1.2860
14128TIP3    H263876   6.115   2.085  13.983  0.1969 -1.4241 -1.1702
14129TIP3   OH263877   0.693   1.517  11.119  0.5898  0.3010  0.5422
14129TIP3    H163878   0.690   1.564  11.203 -0.5910  1.2203  0.0067
14129TIP3    H263879   0.686   1.585  11.053  0.2410 -0.5187 -0.2888
14130TIP3   OH263880   2.854   3.984  16.700 -0.0540  0.2963  0.1237
14130TIP3    H163881   2.927   4.006  16.758 -0.4796  1.7505  0.1397
14130TIP3    H263882   2.882   3.903  16.656  1.6735  0.9483 -0.0588
14131TIP3   OH263883   4.638   3.204  13.992  0.0393  0.0141  0.5140
14131TIP3    H163884   4.642   3.298  13.975 -2.1195 -0.1534 -1.3566
14131TIP3    H263885   4.552   3.190  14.033  1.0899 -0.9645  2.5795
14132TIP3   OH263886   0.394   0.300   5.882 -0.4700 -0.3193 -0.7897
14132TIP3    H163887   0.464   0.241   5.854  0.2567  0.4757 -0.6855
14132TIP3    H263888   0.404   0.307   5.977 -0.6712 -0.1678 -0.7779
14133TIP3   OH263889   3.047   0.974   6.322 -0.1492 -0.1652  0.3832
14133TIP3    H163890   2.954   0.953   6.328 -0.3083  0.5517  0.4994
14133TIP3    H263891   3.083   0.947   6.407 -0.0531 -1.3334 -0.0087
14134TIP3   OH263892   3.425   1.231   3.792  0.3999  0.2110  0.3187
14134TIP3    H163893   3.471   1.204   3.872  1.5706 -0.0600 -0.4205
14134TIP3    H263894   3.484   1.296   3.752 -1.3162  2.2400  0.9271
14135TIP3   OH263895   5.292   2.820  13.532 -0.3373 -0.6633 -0.0451
14135TIP3    H163896   5.304   2.849  13.442 -1.6044  0.0831  0.0100
14135TIP3    H263897   5.234   2.885  13.571 -0.4478 -1.4135  1.0815
14136TIP3   OH263898   6.764   3.331  15.894 -0.3872  0.0083 -0.7667
14136TIP3    H163899   6.858   3.318  15.908 -0.2680  0.2428 -1.2938
14136TIP3    H263900   6.722   3.286  15.967  0.1822  1.0634  0.2477
14137TIP3   OH263901   5.397   2.008  10.468 -0.4405 -0.2382 -0.0752
14137TIP3    H163902   5.468   2.067  10.444 -0.6583 -0.3586 -1.0390
14137TIP3    H263903   5.440   1.926  10.490 -0.3223 -0.5180 -1.3145
14138TIP3   OH263904   5.935   0.371   0.663 -0.0674 -0.2372  0.1078
14138TIP3    H163905   5.959   0.339   0.576 -1.2179 -0.4030 -0.1658
14138TIP3    H263906   5.924   0.465   0.651 -0.0168 -0.2293  0.1238
14139TIP3   OH263907   0.860   3.217  11.457 -0.4831 -0.1065 -0.0104
14139TIP3    H163908   0.882   3.303  11.421 -1.2031 -0.5676 -1.6689
14139TIP3    H263909   0.809   3.237  11.537  1.8935  0.9394  1.3419
14140TIP3   OH263910   2.416   1.112   4.228  0.1328  0.4530 -0.0356
14140TIP3    H163911   2.509   1.119   4.207 -0.0342 -1.1151 -1.4442
14140TIP3    H263912   2.371   1.119   4.144 -1.0190  0.6760  0.5649
14141TIP3   OH263913   6.650   2.344   6.163  0.0501  0.1346  0.5588
14141TIP3    H163914   6.589   2.384   6.225  0.7254  0.5104  0.9879
14141TIP3    H263915   6.598   2.331   6.084 -0.1453  2.0814  0.3210
14142TIP3   OH263916   1.459   3.439   1.822  0.2692  0.2037 -0.4908
14142TIP3    H163917   1.434   3.497   1.894 -2.0158 -1.4949  0.2171
14142TIP3    H263918   1.511   3.371   1.863 -0.4992 -0.4199 -0.5210
14143TIP3   OH263919   0.246   1.992   2.187  0.1230 -0.4738  0.5433
14143TIP3    H163920   0.183   1.932   2.227  0.9225 -2.2117 -0.6665
14143TIP3    H263921   0.246   1.969   2.094  1.7503  0.1841  0.3434
14144TIP3   OH263922   0.008   3.670   6.763 -0.3794 -0.0470  0.4122
14144TIP3    H163923  -0.060   3.621   6.808 -0.2853  1.3646  2.1805
14144TIP3    H263924  -0.037   3.746   6.728 -0.4730 -1.1549 -2.0924
14145TIP3   OH263925   2.392   3.094   3.709 -0.5052 -0.4232 -0.2429
14145TIP3    H163926   2.350   3.055   3.785 -0.2742  0.5129  0.3818
14145TIP3    H263927   2.426   3.019   3.659 -0.9920 -1.0611  0.3730
14146TIP3   OH263928   4.497   5.851  13.604 -0.3937  0.2046  0.3713
14146TIP3    H163929   4.441   5.922  13.572 -0.2179 -0.1865 -0.8360
14146TIP3    H263930   4.538   5.815  13.525 -0.3605 -1.1388  0.9811
14147TIP3   OH263931   5.111   6.440  11.760  0.0758 -0.1614  0.3176
14147TIP3    H163932   5.081   6.350  11.774  0.8921 -0.6844 -1.0682
14147TIP3    H263933   5.192   6.447  11.811 -0.1387 -0.1104  0.6544
14148TIP3   OH263934   0.939   4.257   2.538 -0.0335 -0.0956 -0.2872
14148TIP3    H163935   0.920   4.231   2.629  0.2155  2.3921  0.5501
14148TIP3    H263936   1.023   4.303   2.543  0.2702 -0.4062 -1.9162
14149TIP3   OH263937   4.009   5.569   3.876  0.6888  0.2362  0.2042
14149TIP3    H163938   4.097   5.539   3.898  0.1977 -1.4692 -0.0187
14149TIP3    H263939   4.023   5.640   3.813  1.9195  0.7715  1.0469
14150TIP3   OH263940   2.972   1.577   0.046  0.8818  0.5940 -0.1309
14150TIP3    H163941   2.943   1.487   0.030  0.1569  0.7531  0.2595
14150TIP3    H263942   3.030   1.570   0.121 -0.8414  0.7106  1.2827
14151TIP3   OH263943   2.317   0.547  13.932  0.3108 -0.4148 -0.1984
14151TIP3    H163944   2.263   0.553  13.853 -0.9341 -0.9899  0.5848
14151TIP3    H263945   2.313   0.635  13.970 -0.8599 -0.6895  0.3453
14152TIP3   OH263946   1.244   6.689   3.134  0.2242  0.4085  0.4192
14152TIP3    H163947   1.180   6.759   3.147 -2.8187 -1.5522 -2.5630
14152TIP3    H263948   1.229   6.628   3.206 -2.8140 -0.9332 -1.1680
14153TIP3   OH263949   6.693   2.550   4.756 -0.2070 -0.2933 -0.0987
14153TIP3    H163950   6.692   2.633   4.708 -0.4163 -0.2776 -0.0677
14153TIP3    H263951   6.723   2.573   4.844  0.1237 -0.3132 -0.2056
14154TIP3   OH263952   6.377   1.204   4.564  0.1441  0.5328  0.8478
14154TIP3    H163953   6.295   1.212   4.613 -0.4015  2.6807 -0.2846
14154TIP3    H263954   6.444   1.241   4.622  0.4088 -1.4645  1.8792
14155TIP3   OH263955   3.034   1.285  15.670 -0.4072 -0.5138  0.3299
14155TIP3    H163956   2.997   1.242  15.592  0.8569 -1.8189  0.4022
14155TIP3    H263957   3.052   1.213  15.731  0.8005  0.2181  0.8864
14156TIP3   OH263958   3.376   5.471  13.605  0.1402  0.1009  0.4068
14156TIP3    H163959   3.370   5.563  13.631 -0.6202  0.5552 -1.2219
14156TIP3    H263960   3.470   5.454  13.599  0.2881  0.8300  0.5089
14157TIP3   OH263961   2.109   5.553  16.413 -1.1442 -0.6785  0.1784
14157TIP3    H163962   2.147   5.636  16.443 -2.1364 -0.1260 -0.0550
14157TIP3    H263963   2.033   5.579  16.361 -1.4359 -1.7395  0.0562
14158TIP3   OH263964   5.868   5.051   5.587  0.1047  0.4129 -0.2039
14158TIP3    H163965   5.950   5.028   5.543 -0.0804  0.7864 -0.7529
14158TIP3    H263966   5.892   5.058   5.680  0.7683  0.8483 -0.3988
14159TIP3   OH263967   3.750   4.519  16.336 -0.5416 -0.1425  0.0722
14159TIP3    H163968   3.776   4.553  16.250  1.8493 -0.9435  0.4032
14159TIP3    H263969   3.808   4.444  16.350 -1.2962 -0.3896  2.1244
14160TIP3   OH263970   6.593   2.593   5.112  0.2032 -0.2219 -0.3633
14160TIP3    H163971   6.504   2.624   5.095  0.0086 -0.8035 -0.4145
14160TIP3    H263972   6.639   2.670   5.146 -0.7606 -0.3027  1.2116
14161TIP3   OH263973   2.997   5.425   2.654  1.0027 -0.0523  0.1392
14161TIP3    H163974   3.012   5.502   2.598 -0.6255  0.4797  0.3868
14161TIP3    H263975   2.967   5.461   2.737 -0.8790 -0.9473 -0.0990
14162TIP3   OH263976   4.496   4.451   1.881 -0.1337 -0.0920  0.1702
14162TIP3    H163977   4.496   4.518   1.949 -0.0066 -0.0372  0.1159
14162TIP3    H263978   4.437   4.485   1.814  1.3600  0.8499 -0.7237
14163TIP3   OH263979   4.233   3.085   1.979 -0.2705  0.2750 -0.0825
14163TIP3    H163980   4.186   3.057   2.057 -0.9194 -1.5938 -1.0690
14163TIP3    H263981   4.321   3.049   1.989 -0.9176 -1.7516 -1.0471
14164TIP3   OH263982   0.664   6.494   1.828 -0.2862 -0.2468  0.3276
14164TIP3    H163983   0.583   6.462   1.788 -0.3074 -0.0898  0.2442
14164TIP3    H263984   0.689   6.425   1.889 -1.0653  0.1888  1.1603
14165TIP3   OH263985   4.837   2.852   5.779  0.6232  0.4962 -0.6908
14165TIP3    H163986   4.790   2.934   5.794 -0.1966 -0.0897  0.0245
14165TIP3    H263987   4.916   2.859   5.832  0.0530  0.4101  0.1930
14166TIP3   OH263988   5.067   6.234   1.589  0.5985 -0.3487 -0.3515
14166TIP3    H163989   5.097   6.294   1.658  1.0924  0.8412 -1.5637
14166TIP3    H263990   5.021   6.165   1.637  2.1173 -0.3113  1.2879
14167TIP3   OH263991   2.948   3.016   0.590 -0.1883 -0.4694  0.4660
14167TIP3    H163992   2.908   3.055   0.513  0.4021 -2.2996 -0.8375
14167TIP3    H263993   2.940   2.921   0.576 -0.9614 -0.8801  3.1350
14168TIP3   OH263994   1.377   5.399  14.842  0.6132 -0.0377 -0.7836
14168TIP3    H163995   1.422   5.481  14.824 -2.3900  1.4303 -2.1903
14168TIP3    H263996   1.416   5.368  14.924  1.1285  3.3406  0.3973
14169TIP3   OH263997   5.460   1.535  12.235 -0.1812 -0.0457 -0.4813
14169TIP3    H163998   5.418   1.507  12.153 -1.9912  0.9502  0.0424
14169TIP3    H263999   5.491   1.453  12.274  1.4622 -0.4723 -2.4929
14170TIP3   OH264000   4.052   0.911   1.370  0.2419 -0.1811 -0.3311
14170TIP3    H164001   3.969   0.864   1.365  1.3236 -2.1265 -1.3241
14170TIP3    H264002   4.114   0.855   1.322  2.3395  0.7175  1.1939
14171TIP3   OH264003   0.629   1.002  16.881 -0.1261  0.1736 -0.1950
14171TIP3    H164004   0.680   1.058  16.940  0.7242  0.1862 -0.9141
14171TIP3    H264005   0.594   0.933  16.937  0.7376  0.1347  0.3144
14172TIP3   OH264006   2.777   6.278   0.550  0.7093  0.0251 -0.2038
14172TIP3    H164007   2.817   6.296   0.465  1.6946  0.7515  0.4012
14172TIP3    H264008   2.689   6.315   0.543 -0.1976 -2.1803 -1.7842
14173TIP3   OH264009   2.565   3.253  11.190 -0.5011  0.1039 -0.5529
14173TIP3    H164010   2.632   3.260  11.121 -0.6794  0.5716 -0.6831
14173TIP3    H264011   2.554   3.343  11.221  1.4872 -0.4126  1.9254
14174TIP3   OH264012   6.621   5.104  12.656 -0.2597 -0.0025 -0.2595
14174TIP3    H164013   6.695   5.056  12.620 -0.9434 -0.1448 -1.5465
14174TIP3    H264014   6.605   5.063  12.741  1.9603  0.9304  0.6923
14175TIP3   OH264015   4.577   1.343   2.950 -0.3807  0.3796  0.0384
14175TIP3    H164016   4.556   1.282   3.020  2.3961 -0.9291 -0.1156
14175TIP3    H264017   4.673   1.340   2.944 -0.4563  0.7726 -3.4949
14176TIP3   OH264018   2.926   4.102   0.635  0.5080 -0.4492  0.3676
14176TIP3    H164019   2.838   4.139   0.625  0.2693 -1.4528 -1.7658
14176TIP3    H264020   2.911   4.008   0.647  1.2342 -0.3530  2.5101
14177TIP3   OH264021   4.614   2.969   6.339  0.3231 -0.3514  0.4178
14177TIP3    H164022   4.589   2.961   6.432  2.2533 -0.1780  0.9942
14177TIP3    H264023   4.625   3.063   6.325  0.5039 -0.4155  0.1311
14178TIP3   OH264024   2.214   3.123  14.264  0.5672 -0.5525  0.3252
14178TIP3    H164025   2.166   3.080  14.334 -0.7389 -0.7604 -0.6592
14178TIP3    H264026   2.171   3.094  14.183 -0.6006  2.6973 -0.4118
14179TIP3   OH264027   2.308   0.674  12.609 -0.0707  0.2788 -0.0218
14179TIP3    H164028   2.397   0.697  12.583  0.3610 -1.7525 -0.5177
14179TIP3    H264029   2.259   0.669  12.527 -0.7056  1.5381  0.2600
14180TIP3   OH264030   5.599   0.690  12.975  0.0650  0.2114 -0.3893
14180TIP3    H164031   5.550   0.773  12.981  0.5245  0.4678 -0.1770
14180TIP3    H264032   5.570   0.652  12.892  0.7878  1.1977 -1.1258
14181TIP3   OH264033   4.354   5.414   0.263  0.0172 -0.7103  0.3606
14181TIP3    H164034   4.363   5.463   0.181 -0.2840 -0.3481  0.5374
14181TIP3    H264035   4.259   5.410   0.277  0.0850 -0.0180  1.1275
14182TIP3   OH264036   6.721   5.428   3.428 -0.0011  0.4328  0.4594
14182TIP3    H164037   6.774   5.505   3.408 -1.0265  1.0063 -0.1549
14182TIP3    H264038   6.781   5.354   3.417  0.6682  1.0587 -0.1953
14183TIP3   OH264039   0.829   1.411  16.634 -0.5797  0.7619  0.1866
14183TIP3    H164040   0.855   1.442  16.547  1.1362 -1.9165 -0.3712
14183TIP3    H264041   0.754   1.353  16.617 -0.1581  0.1313  0.4481
14184TIP3   OH264042   0.073   0.794   3.013  0.3580 -0.0123  0.0904
14184TIP3    H164043   0.099   0.774   2.923  1.3018 -0.2039  0.3895
14184TIP3    H264044  -0.010   0.841   3.005 -0.1313 -0.9856 -0.8205
14185TIP3   OH264045   6.809   4.069   4.524  0.2293  0.4711  0.1469
14185TIP3    H164046   6.824   3.979   4.497 -1.6805 -0.1129  0.8461
14185TIP3    H264047   6.731   4.064   4.581 -2.1965  2.9584 -2.6021
14186TIP3   OH264048   6.529   5.817  12.213  0.0570 -0.0388  0.6515
14186TIP3    H164049   6.507   5.774  12.295 -1.1405 -0.8441 -0.0686
14186TIP3    H264050   6.497   5.907  12.223  0.6088  0.0894  1.3318
14187TIP3   OH264051   0.847   6.113   2.251 -0.0534 -0.4380  0.8771
14187TIP3    H164052   0.863   6.189   2.306  0.5635  0.5474 -0.5891
14187TIP3    H264053   0.933   6.093   2.212 -0.2524 -1.7511  1.0581
14188TIP3   OH264054   6.675   4.213   3.585  0.5163  0.4149  0.0475
14188TIP3    H164055   6.752   4.259   3.619  0.4123  0.2052  0.5888
14188TIP3    H264056   6.604   4.241   3.642  0.8827 -2.2396  2.0091
14189TIP3   OH264057   1.979   2.372  12.588  0.0374  0.6178 -0.2511
14189TIP3    H164058   2.073   2.380  12.605  0.2387 -0.1202 -0.9669
14189TIP3    H264059   1.970   2.385  12.493 -0.5041  0.0492 -0.2870
14190TIP3   OH264060   5.451   0.105  16.830 -0.2125  0.0080 -0.5203
14190TIP3    H164061   5.480   0.196  16.823 -0.7219  0.2937  0.7784
14190TIP3    H264062   5.370   0.109  16.880 -0.2217 -1.1648 -0.4062
14191TIP3   OH264063   1.364   6.076   4.363 -0.2691 -0.2644 -0.4024
14191TIP3    H164064   1.324   6.143   4.307  0.5965  0.6109  0.0106
14191TIP3    H264065   1.301   6.064   4.434  0.2070  1.1509  0.2801
14192TIP3   OH264066   1.679   0.121   1.159  0.6109 -0.2534 -0.3608
14192TIP3    H164067   1.644   0.066   1.089  0.7557 -0.9214  0.0836
14192TIP3    H264068   1.626   0.098   1.235  0.4214  0.5051 -0.2621
14193TIP3   OH264069   2.287   3.215  16.472  0.3781  0.4347  0.0460
14193TIP3    H164070   2.335   3.294  16.498  0.8120  0.4497 -0.7454
14193TIP3    H264071   2.333   3.143  16.515 -0.4584  0.6555  1.3645
14194TIP3   OH264072   1.538   5.651  16.957 -0.3978  0.7556  0.2545
14194TIP3    H164073   1.598   5.607  17.017 -0.6355  1.5840  1.1257
14194TIP3    H264074   1.595   5.690  16.891 -0.0629  0.5706  0.4296
14195TIP3   OH264075   2.922   0.889  15.497 -0.3160 -0.4055  0.2219
14195TIP3    H164076   2.985   0.825  15.532  0.2350 -0.2412 -0.4449
14195TIP3    H264077   2.882   0.928  15.575  0.1310 -0.7964  0.6563
14196TIP3   OH264078   2.932   0.124   5.505 -0.0887  0.1284 -0.3939
14196TIP3    H164079   2.959   0.201   5.456  0.2560 -0.0063 -0.4209
14196TIP3    H264080   2.879   0.074   5.444 -1.0285  0.7569 -0.1055
14197TIP3   OH264081   1.789   6.352  13.063  0.2653  0.2818 -0.0213
14197TIP3    H164082   1.822   6.408  12.993  0.7106  0.9961  0.7468
14197TIP3    H264083   1.754   6.413  13.128  0.5420 -0.3441  0.7256
14198TIP3   OH264084   5.118   2.662  12.915  0.4101  0.3155  0.5580
14198TIP3    H164085   5.151   2.751  12.902 -0.2771  0.4550 -0.3261
14198TIP3    H264086   5.044   2.672  12.974 -0.6372  0.5604 -0.7384
14199TIP3   OH264087   5.163   0.520   2.523 -0.1219  0.3040  0.2200
14199TIP3    H164088   5.091   0.557   2.472  0.2505 -1.2191 -1.5293
14199TIP3    H264089   5.134   0.432   2.546  0.9237 -0.1228 -0.0168
14200TIP3   OH264090   1.494   2.868   2.767  0.2256 -0.7466 -0.2202
14200TIP3    H164091   1.481   2.902   2.855 -3.6627  2.4451 -1.6914
14200TIP3    H264092   1.580   2.901   2.741  0.6857 -0.2409  1.7908
14201TIP3   OH264093   0.346   5.503  11.593 -0.0068 -0.0291  0.1434
14201TIP3    H164094   0.381   5.540  11.675 -0.6058 -0.3904  0.5740
14201TIP3    H264095   0.294   5.574  11.555 -2.0766 -0.7108  1.5273
14202TIP3   OH264096   2.685   6.109   3.243 -0.4449  0.2328 -0.3313
14202TIP3    H164097   2.688   6.111   3.147 -3.6362 -0.7218 -0.5693
14202TIP3    H264098   2.603   6.153   3.266  1.4422  2.7811  2.2147
14203TIP3   OH264099   0.905   6.224   0.237  0.2482  0.1617 -0.3137
14203TIP3    H164100   0.971   6.157   0.259 -0.2540  0.0082  0.7746
14203TIP3    H264101   0.824   6.190   0.274  0.0524  1.5392  0.5862
14204TIP3   OH264102   0.696   1.372   3.751  0.4814  0.1444  0.1363
14204TIP3    H164103   0.646   1.349   3.829  1.2265  2.5760  1.4369
14204TIP3    H264104   0.744   1.451   3.776  3.8493 -1.1866 -1.5158
14205TIP3   OH264105   5.295   4.582  12.765 -0.3061  0.3378  0.0589
14205TIP3    H164106   5.325   4.664  12.728 -1.3598  0.6180 -0.1961
14205TIP3    H264107   5.356   4.516  12.731 -0.6619  0.7227 -1.3875
14206TIP3   OH264108   6.351   1.943  14.998  0.1149  0.1184  0.3511
14206TIP3    H164109   6.271   1.891  14.988  0.0286 -0.0967  1.8902
14206TIP3    H264110   6.353   1.965  15.091  0.7016  1.9955 -0.0732
14207TIP3   OH264111   1.054   4.596   0.013  0.7077 -0.3115 -0.0689
14207TIP3    H164112   1.129   4.626  -0.039 -0.1656  0.9835 -0.6664
14207TIP3    H264113   1.046   4.662   0.083  0.0565 -0.3528 -0.0988
14208TIP3   OH264114   2.595   2.975  15.344  0.4235  0.6912  0.6746
14208TIP3    H164115   2.511   3.011  15.317  0.3390  0.7904  1.0573
14208TIP3    H264116   2.575   2.922  15.422 -0.1642 -3.5088 -1.9801
14209TIP3   OH264117   6.774   1.216   5.721 -0.0415 -0.7316  0.4887
14209TIP3    H164118   6.778   1.127   5.686 -1.1594  0.0597 -1.9175
14209TIP3    H264119   6.851   1.224   5.776  0.6510 -2.8471 -0.0660
14210TIP3   OH264120   0.468   6.301   1.395  0.2874 -0.4571 -0.2559
14210TIP3    H164121   0.415   6.375   1.423 -1.9717 -1.9783 -0.2552
14210TIP3    H264122   0.480   6.249   1.474  1.8707 -0.1318 -0.2512
14211TIP3   OH264123   3.679   0.437  13.576 -0.0398 -0.2489 -0.6137
14211TIP3    H164124   3.674   0.441  13.481  0.1714  1.4347 -0.5854
14211TIP3    H264125   3.653   0.524  13.605  1.2630 -0.2828  0.7917
14212TIP3   OH264126   1.511   5.408  12.374  0.1884 -0.1570  0.3154
14212TIP3    H164127   1.561   5.327  12.369  0.8984  0.2578  0.5946
14212TIP3    H264128   1.466   5.414  12.290 -0.4511 -1.2036  0.5623
14213TIP3   OH264129   3.746   1.370   1.805 -0.1493 -0.2804  0.0408
14213TIP3    H164130   3.715   1.307   1.871 -1.2980 -1.0718 -1.2141
14213TIP3    H264131   3.718   1.455   1.838 -1.0739 -0.7061  0.3954
14214TIP3   OH264132   5.508   5.408   5.721 -0.2200  0.0519 -0.5778
14214TIP3    H164133   5.509   5.429   5.814 -0.4415  0.3065 -0.6291
14214TIP3    H264134   5.589   5.359   5.706 -0.4460 -0.4620 -0.1473
14215TIP3   OH264135   3.590   5.265  14.102 -0.0139  0.3545 -0.0355
14215TIP3    H164136   3.551   5.344  14.140  0.0819  0.6965 -0.6414
14215TIP3    H264137   3.582   5.199  14.171  2.1259  1.5040  1.4255
14216TIP3   OH264138   0.529   5.590   2.351 -0.5543 -0.2461  0.0260
14216TIP3    H164139   0.464   5.588   2.281 -0.1641  1.5652 -0.4434
14216TIP3    H264140   0.519   5.677   2.391  3.3412  1.3367 -1.8834
14217TIP3   OH264141   2.698   2.322  15.761  0.0809 -0.2467  0.0506
14217TIP3    H164142   2.769   2.312  15.697 -1.4239  2.6056 -2.3213
14217TIP3    H264143   2.621   2.285  15.718 -0.9359  1.5777  0.2107
14218TIP3   OH264144   6.285   5.770  14.563  0.0463 -0.6368  0.4427
14218TIP3    H164145   6.378   5.751  14.546  0.0097 -0.1836 -0.3578
14218TIP3    H264146   6.269   5.852  14.515 -0.6451 -0.4478  0.9853
14219TIP3   OH264147   3.121   1.879   3.027 -0.2693  0.1657 -0.0918
14219TIP3    H164148   3.201   1.856   2.980  0.8688  2.5728  0.5206
14219TIP3    H264149   3.151   1.899   3.116 -1.2217  2.9119 -0.3152
14220TIP3   OH264150   0.028   6.588   0.911  0.4514  0.4831  0.0565
14220TIP3    H164151  -0.042   6.615   0.971  0.3811  0.0465  0.1733
14220TIP3    H264152  -0.012   6.594   0.824  0.2601  0.2089  0.1253
14221TIP3   OH264153   3.950   0.638  12.420 -0.7105 -0.0727  0.2679
14221TIP3    H164154   3.914   0.550  12.410  0.7060 -0.5923 -0.4905
14221TIP3    H264155   4.003   0.652  12.342 -2.2727  2.1586 -0.4666
14222TIP3   OH264156   4.374   5.091   4.173  0.0774  0.2583  0.3554
14222TIP3    H164157   4.297   5.147   4.185 -0.3914 -0.8722  4.0352
14222TIP3    H264158   4.338   5.007   4.143 -0.3282 -0.4815  2.7249
14223TIP3   OH264159   1.615   4.823  16.857 -0.1198  0.4288  0.4103
14223TIP3    H164160   1.548   4.764  16.891  0.7466  0.1403  1.7264
14223TIP3    H264161   1.597   4.830  16.764 -1.5895 -0.1350  0.6276
14224TIP3   OH264162   2.888   2.864   0.225  0.4129  0.0571  0.6514
14224TIP3    H164163   2.979   2.853   0.253  0.3044 -0.5120  0.7851
14224TIP3    H264164   2.861   2.947   0.264  0.5019 -0.3472  1.6147
14225TIP3   OH264165   5.287   1.167  16.125  0.2071 -0.0145 -0.1517
14225TIP3    H164166   5.287   1.072  16.137  3.0852 -0.0473  0.4520
14225TIP3    H264167   5.279   1.179  16.031 -0.6751 -0.8262 -0.1907
14226TIP3   OH264168   6.560   2.319  11.938  0.2295  0.1011  0.3918
14226TIP3    H164169   6.623   2.320  12.010  0.5886 -2.6881  0.2056
14226TIP3    H264170   6.600   2.373  11.870  3.1530 -2.5708 -0.2252
14227TIP3   OH264171   5.595   2.198  10.391 -0.4634 -0.3089  0.2237
14227TIP3    H164172   5.648   2.269  10.426 -0.7341 -0.3670  0.7615
14227TIP3    H264173   5.558   2.234  10.310  0.2545 -0.2147 -0.0739
14228TIP3   OH264174   6.774   6.068   3.079  0.0761  0.4041 -0.0307
14228TIP3    H164175   6.804   6.049   3.168 -0.2547 -4.5479 -0.7093
14228TIP3    H264176   6.680   6.055   3.081 -0.0560  1.0342 -0.9813
14229TIP3   OH264177   4.074   6.571   5.538  0.1199 -0.0309 -0.6394
14229TIP3    H164178   4.051   6.644   5.596  1.5631 -1.9310  2.6162
14229TIP3    H264179   4.128   6.611   5.469 -2.0339  2.4118 -1.0766
14230TIP3   OH264180   4.172   0.410   0.177 -0.6440  0.2586 -0.4434
14230TIP3    H164181   4.168   0.483   0.238 -1.6931  0.0970 -0.3096
14230TIP3    H264182   4.081   0.394   0.152 -0.2412  0.2921 -2.0239
14231TIP3   OH264183   2.212   1.688  10.691 -0.1726  0.0674  0.0605
14231TIP3    H164184   2.169   1.767  10.723  3.1045  1.7153  0.8074
14231TIP3    H264185   2.179   1.618  10.748 -2.5362  0.9783 -0.0880
14232TIP3   OH264186   6.708   0.250   0.388  0.4429 -0.6845  0.4594
14232TIP3    H164187   6.636   0.210   0.340 -0.0583  0.1820  0.4700
14232TIP3    H264188   6.671   0.272   0.473  0.3423  0.8827  0.0455
14233TIP3   OH264189   0.032   4.385   4.042 -0.5860 -0.2900  0.4349
14233TIP3    H164190  -0.018   4.304   4.048 -0.4264 -0.3207  1.5569
14233TIP3    H264191   0.034   4.419   4.132  2.7681 -1.1229  0.7967
14234TIP3   OH264192   6.640   4.651   2.602  0.2159  0.0067  0.2340
14234TIP3    H164193   6.659   4.691   2.517 -0.8815  1.6101  0.7023
14234TIP3    H264194   6.630   4.725   2.662 -0.9019 -1.0127  1.3568
14235TIP3   OH264195   0.297   1.958   0.994  0.3337 -0.2737 -0.2050
14235TIP3    H164196   0.234   1.944   1.064 -0.8601 -2.1888 -1.5514
14235TIP3    H264197   0.379   1.923   1.028 -0.4068 -1.8828 -0.0082
14236TIP3   OH264198   6.088   0.832   0.783 -0.3020  0.6364  0.3537
14236TIP3    H164199   6.109   0.911   0.734 -4.8050  1.6837 -0.3106
14236TIP3    H264200   6.042   0.863   0.861 -0.8807 -1.2841  0.8328
14237TIP3   OH264201   5.042   2.964   3.617 -0.0469  0.5159  0.6431
14237TIP3    H164202   4.969   2.955   3.556 -1.2267  0.1947  2.0437
14237TIP3    H264203   5.001   2.990   3.700  1.4886  0.8573  1.3299
14238TIP3   OH264204   6.359   5.559  11.303  0.2990 -0.0201  0.1379
14238TIP3    H164205   6.413   5.631  11.270  1.2259 -1.0468 -0.6784
14238TIP3    H264206   6.298   5.541  11.232 -0.2397  0.2607  0.5266
14239TIP3   OH264207   1.035   6.635  12.373  0.0723 -0.3896 -0.3520
14239TIP3    H164208   1.073   6.723  12.381  0.3503 -0.6146  1.2691
14239TIP3    H264209   1.097   6.588  12.317  0.6772  0.0614 -0.0825
14240TIP3   OH264210   0.079   3.781   0.037 -0.3535 -0.3637  0.3107
14240TIP3    H164211   0.141   3.732  -0.015  0.4111  0.6916  0.1931
14240TIP3    H264212   0.037   3.840  -0.025  1.1870  1.5302  0.9597
14241TIP3   OH264213   3.472   6.032  12.381  0.4768  0.1544 -0.2108
14241TIP3    H164214   3.494   6.019  12.289  1.2296 -1.3438  0.1402
14241TIP3    H264215   3.380   6.005  12.388 -0.3473  2.5550 -0.9280
14242TIP3   OH264216   6.374   6.746  16.815 -0.0262  0.1341 -0.2040
14242TIP3    H164217   6.446   6.696  16.855  1.3966  1.4309 -1.0356
14242TIP3    H264218   6.418   6.817  16.768 -1.9359  1.7997  0.4081
14243TIP3   OH264219   2.827   0.247  13.671  0.1275 -0.2946 -0.2268
14243TIP3    H164220   2.736   0.225  13.694  0.3130 -0.7809  0.0534
14243TIP3    H264221   2.880   0.200  13.735  0.5601  0.4934  0.0119
14244TIP3   OH264222   3.091   5.504  13.946 -0.2418  0.4033 -0.0313
14244TIP3    H164223   3.153   5.578  13.946  0.6375 -0.3149  0.0829
14244TIP3    H264224   3.081   5.481  14.038 -0.5070  0.3653 -0.0695
14245TIP3   OH264225   5.905   0.850   3.823 -0.4785  0.0294 -0.1492
14245TIP3    H164226   5.937   0.798   3.896 -0.7698  0.1165  0.0429
14245TIP3    H264227   5.944   0.936   3.835 -1.2480  0.3121  0.4224
14246TIP3   OH264228   4.549   3.183   1.391 -0.0589  0.7440  0.2590
14246TIP3    H164229   4.460   3.188   1.424  0.6805 -0.7749  2.7661
14246TIP3    H264230   4.556   3.094   1.354  0.7409  0.3414  1.3125
14247TIP3   OH264231   5.058   5.348  16.684  0.0636 -0.3669 -0.7291
14247TIP3    H164232   5.013   5.268  16.657 -0.5695 -0.3419  0.1977
14247TIP3    H264233   4.996   5.418  16.665 -0.3966 -0.3449  0.6950
14248TIP3   OH264234   2.010   1.313  15.753  0.4575 -0.2878 -0.5243
14248TIP3    H164235   2.044   1.366  15.682  2.0942 -0.5686 -0.0015
14248TIP3    H264236   2.085   1.260  15.781 -0.4589 -1.0275  0.6264
14249TIP3   OH264237   3.186   3.566   1.691  0.3360  0.0481  0.0831
14249TIP3    H164238   3.260   3.612   1.733 -0.8470  0.9466  1.2729
14249TIP3    H264239   3.145   3.633   1.636  0.2198 -0.3563 -0.3226
14250TIP3   OH264240   3.266   3.035   3.565  0.2230  0.0478 -0.1115
14250TIP3    H164241   3.278   3.044   3.659  0.3563 -3.9059  0.4513
14250TIP3    H264242   3.194   3.094   3.543 -0.1643  0.6703  2.5452
14251TIP3   OH264243   1.160   3.672   2.483 -0.2892 -0.7675 -0.3883
14251TIP3    H164244   1.198   3.713   2.561 -1.3165 -2.4378  1.0704
14251TIP3    H264245   1.159   3.742   2.418  2.4052  0.1726  0.4306
14252TIP3   OH264246   4.436   3.251  16.720  0.1341 -0.0874  0.6233
14252TIP3    H164247   4.432   3.219  16.810  0.7803  0.5764  0.8984
14252TIP3    H264248   4.346   3.242  16.687  0.1602 -1.5933  0.8795
14253TIP3   OH264249   0.529   4.314  16.297  0.3441 -0.2654 -0.3715
14253TIP3    H164250   0.486   4.230  16.283  1.4763 -0.8988 -0.2072
14253TIP3    H264251   0.461   4.371  16.332 -1.4830  0.0838 -4.0049
14254TIP3   OH264252   5.651   1.647   1.829 -0.4255 -0.5889  0.0536
14254TIP3    H164253   5.738   1.643   1.868  0.1505 -0.9665 -1.2183
14254TIP3    H264254   5.663   1.698   1.749 -1.3913 -0.6157 -0.1176
14255TIP3   OH264255   2.688   2.405   4.884  0.5215 -0.2331 -0.0640
14255TIP3    H164256   2.647   2.417   4.799  0.5774  1.5529  0.1378
14255TIP3    H264257   2.622   2.361   4.937  0.8772 -2.4193 -1.3014
14256TIP3   OH264258   0.660   2.239  13.874 -0.2003  0.2102 -0.1519
14256TIP3    H164259   0.635   2.223  13.783 -0.7246  0.4874 -0.0659
14256TIP3    H264260   0.685   2.153  13.908  0.0074  0.1081 -0.5586
14257TIP3   OH264261   6.686   5.070   0.309  0.0517  0.1412 -0.7647
14257TIP3    H164262   6.651   5.127   0.377 -1.9258  0.2113 -1.7598
14257TIP3    H264263   6.689   5.125   0.231 -1.7886 -0.9907 -1.7237
14258TIP3   OH264264   5.243   5.122  15.181 -0.9064  0.2605 -0.1887
14258TIP3    H164265   5.299   5.151  15.253  0.9925  1.7283 -2.1062
14258TIP3    H264266   5.289   5.048  15.143 -0.0193  1.6198 -1.9234
14259TIP3   OH264267   4.356   1.712   4.344 -0.3260  0.1197 -0.0585
14259TIP3    H164268   4.355   1.703   4.439 -1.3394 -2.5683 -0.2354
14259TIP3    H264269   4.407   1.637   4.313 -0.7425  0.4616 -1.6650
14260TIP3   OH264270   3.611   5.619  14.872  0.0843  0.3895 -0.3873
14260TIP3    H164271   3.644   5.567  14.799 -0.6565  0.0960 -0.5280
14260TIP3    H264272   3.540   5.567  14.908  1.6869 -0.4103  1.8285
14261TIP3   OH264273   2.100   6.340   4.345 -0.4925 -0.3265  1.1294
14261TIP3    H164274   2.084   6.352   4.252  1.2803  0.1171  0.8424
14261TIP3    H264275   2.062   6.417   4.387  0.2763  0.3856  0.5578
14262TIP3   OH264276   2.285   2.300  17.145 -0.2302 -0.0079  0.1061
14262TIP3    H164277   2.340   2.365  17.101  0.5180 -0.2371  0.6787
14262TIP3    H264278   2.199   2.309  17.104  1.0236 -2.0655 -3.3956
14263TIP3   OH264279   5.980   4.613   4.111  0.2356  0.7720 -0.4675
14263TIP3    H164280   6.046   4.597   4.177  1.0367  1.3841 -1.0955
14263TIP3    H264281   6.028   4.618   4.028 -0.9202 -1.7139 -1.3914
14264TIP3   OH264282   5.224   5.043  12.805  0.3757 -0.1911 -0.5337
14264TIP3    H164283   5.278   4.985  12.859  1.7529  3.0652  1.9356
14264TIP3    H264284   5.286   5.081  12.742  0.4115  1.2694  0.3213
14265TIP3   OH264285   2.534   3.460  12.994 -0.5484 -0.1778  0.2954
14265TIP3    H164286   2.485   3.517  13.052  1.3308  0.7565  1.0487
14265TIP3    H264287   2.624   3.493  12.998  0.0175 -1.3103 -1.6273
14266TIP3   OH264288   3.278   5.899   3.384  0.3301 -0.5197  0.5848
14266TIP3    H164289   3.320   5.814   3.398  0.9840 -0.1287  1.0452
14266TIP3    H264290   3.351   5.961   3.379  0.1531 -0.3688 -3.0630
14267TIP3   OH264291   3.651   3.225   0.064  0.0845  0.2881  0.3580
14267TIP3    H164292   3.587   3.162   0.099  1.1299 -0.4558  0.9905
14267TIP3    H264293   3.609   3.310   0.075 -1.6830 -0.3162 -1.2217
14268TIP3   OH264294   6.111   4.526  12.624  0.1017 -0.1712  0.4711
14268TIP3    H164295   6.162   4.517  12.543 -0.8203 -1.2219 -0.0237
14268TIP3    H264296   6.161   4.588  12.677  1.0801  0.0161 -0.6245
14269TIP3   OH264297   3.849   2.441   6.273  0.3185  0.1082  0.3415
14269TIP3    H164298   3.813   2.521   6.312 -0.0160  0.2932 -0.3329
14269TIP3    H264299   3.885   2.392   6.347 -0.1947  0.5064  0.8613
14270TIP3   OH264300   0.332   5.121   4.870 -0.3525  0.0660  0.5370
14270TIP3    H164301   0.367   5.180   4.937  0.4582  1.1849 -0.8257
14270TIP3    H264302   0.238   5.138   4.869 -0.1732  1.0792  0.4062
14271TIP3   OH264303   6.779   5.807  16.378 -0.4287  0.6467  0.3415
14271TIP3    H164304   6.774   5.897  16.408  3.4996  0.9663  0.6033
14271TIP3    H264305   6.849   5.768  16.431  1.0684 -1.1786 -2.6868
14272TIP3   OH264306   1.235   0.593  12.811  0.0443  0.4023 -0.0679
14272TIP3    H164307   1.289   0.577  12.734  0.0452  1.0642 -0.2105
14272TIP3    H264308   1.264   0.527  12.874  0.5547  0.3207 -0.3787
14273TIP3   OH264309   3.859   6.553   4.862 -0.1938 -0.0712 -0.5206
14273TIP3    H164310   3.927   6.502   4.906  0.3318  2.0435  1.2708
14273TIP3    H264311   3.782   6.496   4.865  0.4078 -0.8787  1.2835
14274TIP3   OH264312   3.092   2.018   3.947 -0.1193  0.7367 -0.4227
14274TIP3    H164313   2.997   2.028   3.941  0.0565  1.8912 -1.7614
14274TIP3    H264314   3.115   2.056   4.032 -0.7555  1.2489 -0.4736
14275TIP3   OH264315   5.175   3.712   2.301  0.0954 -0.1680  0.0218
14275TIP3    H164316   5.159   3.759   2.383  1.5983  0.2989  0.0659
14275TIP3    H264317   5.136   3.768   2.234 -0.0548  0.0604  0.2953
14276TIP3   OH264318   6.339   5.770  16.096  0.3590 -0.2317 -0.0757
14276TIP3    H164319   6.286   5.811  16.028 -1.3919 -1.7403  0.3021
14276TIP3    H264320   6.385   5.699  16.050  0.2064 -0.4143  0.0519
14277TIP3   OH264321   5.315   3.618   0.825 -0.0025 -0.3300 -0.5283
14277TIP3    H164322   5.399   3.639   0.866 -1.1022  0.7466  1.2982
14277TIP3    H264323   5.317   3.667   0.742  1.4793 -0.9755 -0.9053
14278TIP3   OH264324   1.740   5.518   5.703  0.3099 -0.1181 -0.2214
14278TIP3    H164325   1.744   5.449   5.770  1.5152  0.7949  0.7038
14278TIP3    H264326   1.682   5.584   5.741  0.8578  0.3263 -0.1519
14279TIP3   OH264327   0.597   3.371   5.209 -0.5680  0.1573  0.0291
14279TIP3    H164328   0.502   3.366   5.194 -0.5036 -0.0406 -0.3089
14279TIP3    H264329   0.619   3.287   5.249 -1.0649  1.3765  3.1161
14280TIP3   OH264330   6.441   1.121  16.774 -0.1021  0.1978  0.0361
14280TIP3    H164331   6.417   1.155  16.687  0.2584  0.0591 -0.1196
14280TIP3    H264332   6.508   1.055  16.756 -1.6043 -1.4486  0.2334
14281TIP3   OH264333   6.064   3.805  11.980 -0.8779 -0.1609 -0.1994
14281TIP3    H164334   6.000   3.848  11.923 -0.9501 -0.1608 -0.1182
14281TIP3    H264335   6.146   3.812  11.933 -1.2681 -1.8869 -1.2395
14282TIP3   OH264336   2.607   2.206   5.126  0.3000  0.0213 -0.5574
14282TIP3    H164337   2.544   2.159   5.180  0.1485 -0.0277 -0.7764
14282TIP3    H264338   2.611   2.156   5.045 -0.9340  1.1681 -1.3583
14283TIP3   OH264339   4.343   0.282   2.459  0.2995  0.2304  1.1685
14283TIP3    H164340   4.402   0.301   2.532 -0.1616  1.3479  1.2759
14283TIP3    H264341   4.276   0.226   2.497  2.0398 -2.3151  0.6967
14284TIP3   OH264342   2.967   5.667   5.837  0.6437  0.2799  0.5293
14284TIP3    H164343   2.934   5.705   5.918 -1.2651  0.0480 -0.0863
14284TIP3    H264344   2.992   5.578   5.861 -0.0710  0.1558  0.8407
14285TIP3   OH264345   4.207   6.586   0.070 -0.1216  0.4337 -1.3074
14285TIP3    H164346   4.117   6.596   0.038 -0.7106  0.0852  0.1796
14285TIP3    H264347   4.200   6.528   0.146  1.5946 -1.1166 -2.2338
14286TIP3   OH264348   4.605   5.709   1.789 -0.1758  1.0755  0.4440
14286TIP3    H164349   4.602   5.659   1.870  0.7664  1.2082  0.5705
14286TIP3    H264350   4.623   5.644   1.721  0.1592  1.1212  0.4896
14287TIP3   OH264351   6.194   3.935   2.828 -0.2018 -0.0295 -0.0731
14287TIP3    H164352   6.258   3.865   2.826  0.2242  0.3311  0.6716
14287TIP3    H264353   6.110   3.892   2.812  0.1298 -0.6128 -0.2400
14288TIP3   OH264354   6.076   1.707  10.514 -0.6504  0.0877  0.3499
14288TIP3    H164355   6.147   1.644  10.503  0.2992  1.2112 -0.1199
14288TIP3    H264356   5.997   1.659  10.489  0.0924 -0.8013 -0.3433
14289TIP3   OH264357   5.429   4.685  15.933 -0.7125 -0.5601  0.6097
14289TIP3    H164358   5.401   4.761  15.882  0.9235  0.7111  1.4960
14289TIP3    H264359   5.470   4.723  16.011  0.5067 -2.3372  0.8879
14290TIP3   OH264360   0.507   3.736  14.545  0.3046  0.4852  0.2084
14290TIP3    H164361   0.484   3.827  14.565  0.7673  0.7932 -0.6041
14290TIP3    H264362   0.601   3.739  14.525  0.2100 -0.0778 -0.3559
14291TIP3   OH264363   2.366   3.463  17.290  0.2175  0.4453 -0.2417
14291TIP3    H164364   2.334   3.381  17.326 -0.5998  2.3369  4.1038
14291TIP3    H264365   2.298   3.492  17.230 -1.1353 -0.5158  0.7683
14292TIP3   OH264366   5.172   2.686   1.424 -0.0167 -0.2318 -0.1956
14292TIP3    H164367   5.122   2.696   1.505  1.3309 -1.6562  0.8584
14292TIP3    H264368   5.106   2.680   1.355 -1.3095 -1.6943  1.1018
14293TIP3   OH264369   1.086   5.698  13.042 -0.2397 -0.3358  0.2361
14293TIP3    H164370   1.078   5.793  13.042 -0.9141 -0.3851 -0.6783
14293TIP3    H264371   1.095   5.674  12.950 -0.8660 -1.2210  0.3943
14294TIP3   OH264372   4.538   4.231  11.411  0.2962  0.3139 -0.4869
14294TIP3    H164373   4.555   4.219  11.505  1.1452 -1.0968 -0.7923
14294TIP3    H264374   4.622   4.213  11.369 -0.6810 -1.8692 -1.6931
14295TIP3   OH264375   3.396   2.843  13.069 -0.6357 -0.3587 -0.0727
14295TIP3    H164376   3.423   2.817  13.157 -0.5044  0.4235  0.1232
14295TIP3    H264377   3.472   2.888  13.032 -0.4416 -1.2700 -0.8544
14296TIP3   OH264378   4.779   0.583  15.515  0.2976 -0.3877  0.2069
14296TIP3    H164379   4.730   0.511  15.554  0.0075  0.1104  0.7760
14296TIP3    H264380   4.867   0.575  15.552  0.3612 -0.6450  0.0051
14297TIP3   OH264381   4.801   2.271  16.252  0.3430  0.0640  0.3206
14297TIP3    H164382   4.764   2.238  16.334  0.0073 -2.2216 -0.6649
14297TIP3    H264383   4.870   2.331  16.280 -1.1891  1.0544  2.2353
14298TIP3   OH264384   2.711   2.781   3.386 -0.6568 -0.4818 -0.3984
14298TIP3    H164385   2.729   2.687   3.387  0.4415 -0.3694 -2.5679
14298TIP3    H264386   2.645   2.793   3.318 -0.7320  0.3174 -0.1992
14299TIP3   OH264387   3.125   3.649   0.478  0.1739  0.2581  0.3106
14299TIP3    H164388   3.102   3.600   0.399 -0.7465 -1.4731  1.5666
14299TIP3    H264389   3.215   3.623   0.497  0.4361  0.7632 -0.2041
14300TIP3   OH264390   4.355   5.202   5.419  0.1979 -0.9208 -0.0530
14300TIP3    H164391   4.268   5.163   5.430 -0.0294 -0.4356 -0.1074
14300TIP3    H264392   4.339   5.296   5.413  0.6883 -0.8634 -0.5359
14301TIP3   OH264393   4.705   0.697   4.777  0.6919 -0.2254 -0.1772
14301TIP3    H164394   4.766   0.728   4.844  1.1787  0.0399 -0.7306
14301TIP3    H264395   4.755   0.632   4.727  0.6259  0.1972 -0.8118
14302TIP3   OH264396   2.290   6.295  16.665  0.5119 -0.1483  0.2488
14302TIP3    H164397   2.374   6.265  16.631  1.0794  0.4720  1.0582
14302TIP3    H264398   2.242   6.324  16.588  1.4172  0.3974 -0.1307
14303TIP3   OH264399   0.334   4.946  13.722  0.5511  0.0569 -0.4023
14303TIP3    H164400   0.310   4.991  13.803  1.0345 -0.4672  0.0413
14303TIP3    H264401   0.300   5.002  13.653 -1.7010 -0.4890  0.1680
14304TIP3   OH264402   1.093   0.314   0.984 -1.1285  0.4920  0.5853
14304TIP3    H164403   1.111   0.231   1.028  2.1091  0.6300 -0.2467
14304TIP3    H264404   1.161   0.373   1.015 -1.2979  1.8227 -1.4089
14305TIP3   OH264405   1.625   4.974   4.701 -0.5864  0.1581  0.2206
14305TIP3    H164406   1.699   4.956   4.642 -2.0433 -1.0728 -1.3524
14305TIP3    H264407   1.591   5.058   4.670 -2.1243 -1.0666 -1.6834
14306TIP3   OH264408   3.646   1.434   5.047 -0.3418  0.6636  0.3129
14306TIP3    H164409   3.552   1.429   5.030 -0.3760  0.4489  0.5556
14306TIP3    H264410   3.682   1.353   5.012  0.0574  1.5942 -1.5794
14307TIP3   OH264411   0.379   1.801  15.423  0.1184  0.8199  0.1471
14307TIP3    H164412   0.372   1.876  15.363  0.7674 -0.3020 -1.4117
14307TIP3    H264413   0.469   1.804  15.455 -0.1416  1.2461  0.8712
14308TIP3   OH264414   0.586   2.066   5.408  0.1147  0.4150  0.0566
14308TIP3    H164415   0.551   2.051   5.320 -1.4609  0.7400  0.5928
14308TIP3    H264416   0.656   2.129   5.395 -0.8989  1.3984 -0.8508
14309TIP3   OH264417   0.824   2.961  15.410 -0.1252  0.4396 -0.5198
14309TIP3    H164418   0.772   2.980  15.488  0.2723 -0.1728 -0.1021
14309TIP3    H264419   0.913   2.983  15.435  0.1974 -1.0025 -0.3587
14310TIP3   OH264420   0.224   3.265  13.082 -0.0241 -0.2895  0.0980
14310TIP3    H164421   0.289   3.334  13.076  0.0779 -0.4295 -0.4568
14310TIP3    H264422   0.241   3.209  13.006  0.8888 -1.7979  1.3521
14311TIP3   OH264423   4.363   2.795  11.040  0.4894  0.5250  0.1177
14311TIP3    H164424   4.458   2.800  11.031  0.6115  0.6951  1.2764
14311TIP3    H264425   4.344   2.844  11.120 -0.5368  0.1645  0.1143
14312TIP3   OH264426   1.762   6.594   2.897  0.2093 -0.6008  0.2710
14312TIP3    H164427   1.685   6.651   2.898  0.6747  0.0467 -0.2072
14312TIP3    H264428   1.761   6.553   2.810  2.0697  1.7657 -0.9887
14313TIP3   OH264429   4.332   6.798   0.997  0.3030 -0.0725  0.4386
14313TIP3    H164430   4.247   6.841   1.007  0.0807 -0.1607 -0.8864
14313TIP3    H264431   4.322   6.715   1.043  0.6621  1.1279  2.8453
14314TIP3   OH264432   1.999   2.334   4.210 -0.7596 -0.4946  0.0963
14314TIP3    H164433   1.949   2.311   4.288  2.1573  0.2840  2.3724
14314TIP3    H264434   1.986   2.428   4.198 -0.1961 -0.3631  0.4652
14315TIP3   OH264435   2.765   5.074  14.514  0.5539  0.5191 -0.3626
14315TIP3    H164436   2.712   5.065  14.435  0.5352  0.4010 -0.3380
14315TIP3    H264437   2.732   5.154  14.556  1.1551  1.0592 -0.9123
14316TIP3   OH264438   0.128   1.141  11.005 -0.0867 -0.2645 -0.5888
14316TIP3    H164439   0.071   1.101  10.940  0.1865  0.9379 -1.6092
14316TIP3    H264440   0.192   1.073  11.026 -0.4440 -0.8125 -1.2299
14317TIP3   OH264441   2.359   6.151  15.858  0.1032  0.2331 -0.2578
14317TIP3    H164442   2.394   6.198  15.782  0.2407 -0.0586 -0.3764
14317TIP3    H264443   2.437   6.124  15.907  0.0152  0.4008 -0.0258
14318TIP3   OH264444   1.276   2.515  16.870  0.1968 -0.0466 -0.0120
14318TIP3    H164445   1.267   2.609  16.885  0.8488  0.1334 -0.6697
14318TIP3    H264446   1.188   2.486  16.844  0.2058  0.5875 -0.8064
14319TIP3   OH264447   4.113   2.191  15.430  0.1495  0.0929 -0.2085
14319TIP3    H164448   4.126   2.211  15.337  0.3465  0.6187 -0.0700
14319TIP3    H264449   4.019   2.194  15.443  0.1837  1.3450 -0.1089
14320TIP3   OH264450   0.215   4.865  12.382 -0.3139  0.0746 -0.0969
14320TIP3    H164451   0.138   4.851  12.327 -0.9213 -1.1106  1.0094
14320TIP3    H264452   0.289   4.846  12.324 -0.7268  2.5411 -1.5669
14321TIP3   OH264453   0.842   3.501  12.631  0.1489  0.0994  0.9675
14321TIP3    H164454   0.866   3.585  12.668 -0.3574  0.1320  1.2394
14321TIP3    H264455   0.915   3.477  12.575 -0.0890  1.1434  0.1774
14322TIP3   OH264456   3.664   0.117  17.211 -0.2172 -0.3846 -0.2554
14322TIP3    H164457   3.618   0.197  17.236  0.2132  0.0114 -0.7111
14322TIP3    H264458   3.701   0.084  17.293 -1.8982 -1.1103  0.2527
14323TIP3   OH264459   6.281   2.689   0.933 -0.2605 -0.3043 -0.1112
14323TIP3    H164460   6.355   2.671   0.874 -1.8596 -1.7475 -1.8060
14323TIP3    H264461   6.226   2.611   0.927 -2.2965  0.9989  0.5320
14324TIP3   OH264462   5.964   6.418  12.832 -0.2205  0.0593 -0.0450
14324TIP3    H164463   5.893   6.355  12.828 -0.5983  0.5327 -1.3782
14324TIP3    H264464   5.938   6.479  12.901 -0.0245 -1.0100  0.9968
14325TIP3   OH264465   0.711   4.305  16.575  0.6138 -0.5770 -0.3557
14325TIP3    H164466   0.720   4.391  16.535 -0.0623 -0.7544 -0.9135
14325TIP3    H264467   0.783   4.300  16.638 -0.5880  1.2801  1.3143
14326TIP3   OH264468   0.728   6.344  14.577 -0.0623  0.4216 -0.1336
14326TIP3    H164469   0.784   6.387  14.513  2.3622  1.4800  2.4874
14326TIP3    H264470   0.745   6.250  14.564 -0.1963  0.5664 -1.4829
14327TIP3   OH264471   3.356   2.760   3.254 -0.0079 -0.4404  0.2713
14327TIP3    H164472   3.281   2.767   3.312  2.0111  0.1705  3.0265
14327TIP3    H264473   3.373   2.665   3.249 -1.6271 -0.6922 -1.4254
14328TIP3   OH264474   2.721   3.710  14.051 -0.0800  0.0558  0.2534
14328TIP3    H164475   2.639   3.685  14.093  0.3809  0.9600  1.7559
14328TIP3    H264476   2.786   3.651  14.089 -0.0671 -1.0493 -1.3530
14329TIP3   OH264477   2.238   1.742  13.606 -0.7504  0.7317  0.3571
14329TIP3    H164478   2.155   1.697  13.591 -0.4387  0.3281 -0.1757
14329TIP3    H264479   2.216   1.811  13.670 -1.1664 -0.3342  1.4028
14330TIP3   OH264480   2.161   6.210  12.072  0.8467 -0.3974 -0.6927
14330TIP3    H164481   2.087   6.149  12.069  1.0023 -0.7220  1.0550
14330TIP3    H264482   2.157   6.256  11.988 -1.5274 -0.1879 -0.5390
14331TIP3   OH264483   4.135   1.200  16.262  0.1378  0.8105 -0.5979
14331TIP3    H164484   4.199   1.272  16.270  1.6318 -0.4881 -0.3247
14331TIP3    H264485   4.075   1.229  16.194  1.1356  2.0196 -1.0125
14332TIP3   OH264486   0.935   0.658   4.354 -0.4949 -0.3158 -0.6608
14332TIP3    H164487   1.009   0.717   4.338  0.2080 -1.3112 -1.2000
14332TIP3    H264488   0.927   0.656   4.450  0.2574 -0.2876 -0.5901
14333TIP3   OH264489   6.648   0.911  13.130 -0.0595 -0.1009 -0.9046
14333TIP3    H164490   6.616   0.997  13.154 -0.8478  0.1356 -2.6539
14333TIP3    H264491   6.592   0.884  13.057  0.7418 -1.7097 -0.9642
14334TIP3   OH264492   5.789   4.079   4.948 -0.3129 -0.8175  0.4693
14334TIP3    H164493   5.810   3.995   4.906  0.5966 -1.6184  2.4038
14334TIP3    H264494   5.694   4.089   4.935 -0.7156 -2.8561  1.3395
14335TIP3   OH264495   4.035   5.367  14.683 -0.0221 -0.4616 -0.2257
14335TIP3    H164496   4.041   5.429  14.610 -0.8012  1.2539  1.1069
14335TIP3    H264497   4.017   5.283  14.641 -0.7328  0.5176 -2.0039
14336TIP3   OH264498   1.970   4.985  11.013 -0.1878  0.0175  0.1790
14336TIP3    H164499   2.043   5.019  11.065 -1.6489 -0.4959  2.7331
14336TIP3    H264500   2.004   4.903  10.976  1.4138  1.1970 -1.1821
14337TIP3   OH264501   4.984   4.027   3.880 -0.0147 -0.2745 -0.0459
14337TIP3    H164502   5.069   4.023   3.923  0.5885 -1.0133 -1.2371
14337TIP3    H264503   4.995   4.093   3.812 -0.4990 -0.1312  0.0121
14338TIP3   OH264504   4.645   0.124  13.673 -0.1032 -0.0711 -0.2338
14338TIP3    H164505   4.698   0.065  13.619 -1.9577 -1.0974 -1.0013
14338TIP3    H264506   4.604   0.067  13.738  1.7860  1.0853  2.1651
14339TIP3   OH264507   4.822   2.546   3.399 -0.0217  0.7901 -0.1032
14339TIP3    H164508   4.852   2.578   3.314 -1.4283  1.0286 -0.5446
14339TIP3    H264509   4.805   2.625   3.450 -2.2223  0.7939 -0.7346
14340TIP3   OH264510   2.754   3.845  11.718  0.0328 -0.1129 -0.2818
14340TIP3    H164511   2.740   3.755  11.749 -2.3823  0.7092  1.2946
14340TIP3    H264512   2.666   3.883  11.713  1.0660  2.7878  1.1329
14341TIP3   OH264513   3.300   3.283  14.598 -0.1518 -0.3384 -0.0235
14341TIP3    H164514   3.253   3.267  14.516 -0.2051  0.8597 -0.2421
14341TIP3    H264515   3.266   3.367  14.629  1.2470  0.1630  0.2201
14342TIP3   OH264516   4.586   4.668  11.732  0.5088 -0.2432 -0.2043
14342TIP3    H164517   4.659   4.726  11.710  0.5138 -0.1076  0.1640
14342TIP3    H264518   4.548   4.706  11.811  0.1120 -0.3811 -0.3252
14343TIP3   OH264519   4.612   3.309  14.368 -0.1782 -0.5798 -0.5231
14343TIP3    H164520   4.574   3.222  14.383 -2.5144  0.5091  0.3575
14343TIP3    H264521   4.643   3.306  14.278 -1.6172 -1.8468 -1.0164
14344TIP3   OH264522   2.324   1.732  13.193 -0.4733  0.0823  0.3298
14344TIP3    H164523   2.273   1.680  13.256 -1.0858  1.1818  0.7595
14344TIP3    H264524   2.399   1.763  13.244 -1.1814  1.3130  0.6588
14345TIP3   OH264525   5.399   6.542  12.160  0.1981  0.4371  0.2298
14345TIP3    H164526   5.396   6.522  12.253 -0.5351  0.9461  0.3279
14345TIP3    H264527   5.485   6.581  12.146  0.1966  0.6312  0.7453
14346TIP3   OH264528   3.083   1.414  11.370  0.2467 -0.5449  0.1872
14346TIP3    H164529   2.996   1.440  11.399 -0.1535 -0.7865 -0.7727
14346TIP3    H264530   3.080   1.318  11.368  0.8768 -0.6043  1.1444
14347TIP3   OH264531   2.780   2.580  15.783 -0.2436 -0.5091  0.3730
14347TIP3    H164532   2.753   2.489  15.775  2.0787 -1.2032 -0.3994
14347TIP3    H264533   2.734   2.625  15.712  0.6247 -1.6266 -0.9436
14348TIP3   OH264534   6.606   4.344   1.686  0.1293  0.0480  0.1999
14348TIP3    H164535   6.680   4.347   1.626 -1.7750 -0.8357 -2.4227
14348TIP3    H264536   6.607   4.255   1.722 -1.3722 -1.1580 -2.4241
14349TIP3   OH264537   4.785   6.485   2.672 -0.3640  0.0940  0.3672
14349TIP3    H164538   4.796   6.432   2.594  1.5587  1.8924 -0.7030
14349TIP3    H264539   4.867   6.472   2.721  0.8307  2.9550 -0.6204
14350TIP3   OH264540   0.859   6.207   3.624 -0.7465 -0.5196 -0.2001
14350TIP3    H164541   0.941   6.205   3.576  0.3518  0.4155  1.5139
14350TIP3    H264542   0.809   6.279   3.585  0.7021  1.1322  0.8602
14351TIP3   OH264543   5.931   3.864   1.243  0.1883 -0.8108  0.5427
14351TIP3    H164544   5.895   3.776   1.254 -1.0296 -0.5015 -0.6556
14351TIP3    H264545   5.859   3.923   1.268 -0.2864 -0.1778 -2.0089
14352TIP3   OH264546   0.324   3.013   5.663 -0.8971  0.2718  0.2002
14352TIP3    H164547   0.380   3.084   5.693 -1.0238  0.5904 -0.3133
14352TIP3    H264548   0.297   2.968   5.744  0.1707  0.0535  0.4526
14353TIP3   OH264549   4.674   5.507  11.721 -0.4452 -0.1172  0.3196
14353TIP3    H164550   4.699   5.554  11.642 -0.7153 -0.6841 -0.1126
14353TIP3    H264551   4.755   5.465  11.751  0.1171  1.6695  1.4718
14354TIP3   OH264552   2.975   4.505   5.117  0.0025  0.4962 -0.1575
14354TIP3    H164553   2.915   4.532   5.048 -2.3235 -0.4418  1.3877
14354TIP3    H264554   2.983   4.582   5.174  0.4203  0.6698 -0.4442
14355TIP3   OH264555   3.209   6.378  13.815 -0.2218  0.3248  0.1782
14355TIP3    H164556   3.204   6.445  13.883 -0.4330  0.2749  0.2138
14355TIP3    H264557   3.117   6.358  13.796 -0.1606 -0.1910  0.4063
14356TIP3   OH264558   6.566   2.892   1.934 -0.3016 -0.0105  0.0343
14356TIP3    H164559   6.512   2.899   2.012 -1.3025  0.4358 -0.6869
14356TIP3    H264560   6.536   2.812   1.890  0.6963 -0.6195  0.4147
14357TIP3   OH264561   3.830   6.801  12.603  1.0604 -0.5159  0.4498
14357TIP3    H164562   3.856   6.806  12.511 -0.9938  1.6904 -0.1142
14357TIP3    H264563   3.879   6.871  12.646  2.4181 -1.8694  1.2393
14358TIP3   OH264564   3.612   0.360  10.888  0.1618 -0.5054  0.7957
14358TIP3    H164565   3.586   0.268  10.882 -1.9636 -0.0876  2.4427
14358TIP3    H264566   3.567   0.402  10.815  0.9092 -0.6931  0.2117
14359TIP3   OH264567   4.531   4.731  10.491 -0.5416  0.6303  0.8499
14359TIP3    H164568   4.507   4.801  10.551 -0.1272  0.8148  0.8039
14359TIP3    H264569   4.487   4.753  10.409  0.0471  1.1525  0.6657
14360TIP3   OH264570   0.946   6.714   4.886 -0.8127 -0.2760  0.5393
14360TIP3    H164571   0.862   6.669   4.883 -0.8590 -0.2597  1.3788
14360TIP3    H264572   1.007   6.649   4.920 -0.4195 -0.3698 -0.3111
14361TIP3   OH264573   4.411   2.529  11.015 -0.7483 -0.3084 -0.4205
14361TIP3    H164574   4.469   2.522  10.940 -0.7685 -1.0724 -0.3708
14361TIP3    H264575   4.377   2.618  11.011  1.0063  0.4222 -0.0263
14362TIP3   OH264576   4.384   1.502   1.752  0.6666 -0.1297 -0.2726
14362TIP3    H164577   4.293   1.497   1.726  0.3575 -2.4190  0.9372
14362TIP3    H264578   4.382   1.546   1.838  0.9742  1.6263 -1.1216
14363TIP3   OH264579   1.280   0.171   6.586  0.3782  0.5120 -0.3129
14363TIP3    H164580   1.363   0.182   6.632  0.7535  1.9472 -1.2795
14363TIP3    H264581   1.263   0.077   6.589  2.4004  0.0982 -0.7073
14364TIP3   OH264582   1.604   6.347  14.713  0.8661  0.2517 -0.4753
14364TIP3    H164583   1.539   6.361  14.644  1.2886 -0.9008 -1.1525
14364TIP3    H264584   1.635   6.257  14.698  1.3541  0.1686  0.8974
14365TIP3   OH264585   4.569   2.414   5.933 -0.5217 -0.2270  0.3477
14365TIP3    H164586   4.618   2.370   6.002 -0.3683 -0.5292  0.0470
14365TIP3    H264587   4.482   2.428   5.970  0.0955  1.3407  1.3065
14366TIP3   OH264588   1.653   1.958   1.226 -0.0379 -0.1128 -0.2332
14366TIP3    H164589   1.654   1.909   1.308  1.0446 -0.5653 -0.4871
14366TIP3    H264590   1.577   1.924   1.179 -0.5950  0.0600  0.5196
14367TIP3   OH264591   4.727   6.647   2.368  0.0379  0.4324  0.4034
14367TIP3    H164592   4.774   6.583   2.314 -1.5436 -1.0402  0.6884
14367TIP3    H264593   4.766   6.731   2.345  2.8540 -0.6688  0.6756
14368TIP3   OH264594   4.144   2.610   1.019 -0.8476 -0.3345 -0.0624
14368TIP3    H164595   4.051   2.608   0.997 -0.3123  0.8266 -2.6781
14368TIP3    H264596   4.173   2.519   1.009 -1.4452 -0.4875 -0.4224
14369TIP3   OH264597   4.557   3.821  14.443 -0.2019  0.0337 -0.0969
14369TIP3    H164598   4.466   3.828  14.472 -0.8290  1.3111 -2.1579
14369TIP3    H264599   4.577   3.727  14.449 -1.6306 -0.2670  0.4087
14370TIP3   OH264600   1.713   3.220   3.025 -0.4238 -0.3892  0.5814
14370TIP3    H164601   1.642   3.272   3.062 -1.7683 -1.6140 -0.1840
14370TIP3    H264602   1.770   3.285   2.983 -2.0660  0.4818 -0.3932
14371TIP3   OH264603   2.943   6.619  13.962  0.5490  0.0326  0.5784
14371TIP3    H164604   3.031   6.654  13.948  0.9529 -1.0961  0.2141
14371TIP3    H264605   2.912   6.594  13.875  0.2407 -0.4490  0.8188
14372TIP3   OH264606   4.434   5.159  11.418  0.5155  0.0484  0.0166
14372TIP3    H164607   4.381   5.170  11.339  0.0632  1.0940  0.4524
14372TIP3    H264608   4.375   5.121  11.483  1.0895 -1.5576 -0.3472
14373TIP3   OH264609   6.104   2.943  15.967  0.1907  0.0646  0.4229
14373TIP3    H164610   6.035   2.886  16.002 -0.7077 -0.5881 -2.1662
14373TIP3    H264611   6.076   3.032  15.987 -0.7987 -0.2492  0.4457
14374TIP3   OH264612   2.169   4.116   1.992  0.6586 -0.6388  0.0324
14374TIP3    H164613   2.176   4.076   2.078 -3.2037  0.2808  0.9703
14374TIP3    H264614   2.123   4.199   2.007  0.0698 -0.3263 -2.8344
14375TIP3   OH264615   0.994   5.788   0.688  0.0829  0.0203 -0.1142
14375TIP3    H164616   0.925   5.823   0.743 -0.4328 -1.8508  0.5116
14375TIP3    H264617   0.949   5.731   0.625  0.8612  0.5202 -1.1585
14376TIP3   OH264618   5.645   2.852   3.444  0.0297  0.2645  0.4795
14376TIP3    H164619   5.596   2.930   3.470 -0.7157 -0.7957  2.4914
14376TIP3    H264620   5.580   2.795   3.403  0.6631  0.8125 -1.4177
14377TIP3   OH264621   3.071   1.328  14.721  1.0726  0.3647 -0.4307
14377TIP3    H164622   2.991   1.276  14.725  0.8702  0.6715 -0.4413
14377TIP3    H264623   3.129   1.287  14.785  1.3893 -0.6509 -1.3422
14378TIP3   OH264624   1.033   1.517   2.083 -0.6395 -0.0836 -0.4667
14378TIP3    H164625   1.100   1.566   2.035 -1.5524  1.7905  0.0711
14378TIP3    H264626   1.038   1.428   2.047  2.1030 -0.0188 -0.4176
14379TIP3   OH264627   0.552   5.592   0.633 -0.0518 -0.1610 -0.6279
14379TIP3    H164628   0.584   5.676   0.668 -1.8881  0.8579 -1.2863
14379TIP3    H264629   0.632   5.543   0.612  1.1363  2.1497 -1.9285
14380TIP3   OH264630   1.921   3.139   3.296  0.3914 -0.1011 -0.3721
14380TIP3    H164631   1.913   3.070   3.362  0.6258 -0.5705 -0.8190
14380TIP3    H264632   1.850   3.120   3.234 -0.6389  1.0936  0.3990
14381TIP3   OH264633   3.357   2.321  17.210  0.0998 -0.0013  0.0352
14381TIP3    H164634   3.430   2.377  17.183  1.3011 -1.7745 -0.5367
14381TIP3    H264635   3.367   2.313  17.304  1.0005 -0.6705 -0.1042
14382TIP3   OH264636   5.741   5.362  16.311 -0.3144  0.3401  0.0173
14382TIP3    H164637   5.763   5.454  16.326 -0.1024  0.8532 -2.9207
14382TIP3    H264638   5.645   5.358  16.318 -0.3083  0.6996  0.3627
14383TIP3   OH264639   1.751   2.762   5.511 -0.1178 -0.9949  0.3579
14383TIP3    H164640   1.723   2.847   5.478 -1.3769 -1.3402  0.4797
14383TIP3    H264641   1.787   2.717   5.434 -0.2941 -0.6925  0.0984
14384TIP3   OH264642   1.855   6.299  16.031 -0.2232 -0.0081 -0.1208
14384TIP3    H164643   1.835   6.392  16.040  0.2837  0.1144 -0.2269
14384TIP3    H264644   1.895   6.274  16.114  0.3743  0.0620 -0.3831
14385TIP3   OH264645   4.210   3.455  16.490 -0.2603  0.0966  0.6930
14385TIP3    H164646   4.239   3.366  16.510  0.2281  0.2041  0.4973
14385TIP3    H264647   4.115   3.452  16.498 -0.5085 -1.0791 -1.7353
14386TIP3   OH264648   5.574   5.001  15.994 -0.0187 -0.3300 -0.5034
14386TIP3    H164649   5.665   5.020  15.972  0.1174 -1.9084 -1.5164
14386TIP3    H264650   5.546   5.075  16.048  1.7655  0.3271 -0.4019
14387TIP3   OH264651   0.303   2.945   0.645  0.2982  0.0609 -0.6162
14387TIP3    H164652   0.349   2.873   0.601  3.1011  2.2170 -1.4873
14387TIP3    H264653   0.321   2.930   0.738  0.5816 -0.5348 -0.7586
14388TIP3   OH264654   3.040   5.971   6.230  0.3796  0.5134 -0.4076
14388TIP3    H164655   3.062   6.055   6.190 -0.1401  0.7902 -0.1293
14388TIP3    H264656   2.960   5.944   6.185 -0.2474  0.8588  0.4600
14389TIP3   OH264657   3.630   1.259   2.979  0.1921 -0.0377  0.0214
14389TIP3    H164658   3.583   1.279   2.898 -0.4710 -2.8193 -0.3746
14389TIP3    H264659   3.671   1.342   3.003 -0.0092  1.0316 -2.8600
14390TIP3   OH264660   0.455   4.472  12.582  0.2846  0.4418 -0.1261
14390TIP3    H164661   0.395   4.542  12.606  0.9488  0.6219  1.0772
14390TIP3    H264662   0.514   4.512  12.517 -0.3575  0.5035 -0.6811
14391TIP3   OH264663   4.177   5.462  14.171 -0.3705  0.4254  0.0913
14391TIP3    H164664   4.147   5.375  14.144 -1.0257  0.4511  0.6885
14391TIP3    H264665   4.152   5.520  14.099 -1.4493  0.3830  0.4155
14392TIP3   OH264666   1.586   2.846   6.424  0.0722 -0.7853 -0.2522
14392TIP3    H164667   1.648   2.826   6.354  0.5246 -1.2071  0.2548
14392TIP3    H264668   1.639   2.842   6.504 -0.4443 -0.3480  0.1112
14393TIP3   OH264669   4.423   2.611   5.000  0.1905  1.2099 -0.4967
14393TIP3    H164670   4.363   2.661   4.944 -1.5364 -1.8249 -1.6175
14393TIP3    H264671   4.393   2.520   4.992  3.2733 -0.1122  1.1561
14394TIP3   OH264672   0.889   6.700  16.502 -0.0201 -0.1940  0.4298
14394TIP3    H164673   0.956   6.725  16.439  0.6661  0.7137  1.4812
14394TIP3    H264674   0.864   6.612  16.476  1.1179 -0.3076 -0.3761
14395TIP3   OH264675   4.077   6.749  11.098 -0.4403 -0.6445 -0.1463
14395TIP3    H164676   4.094   6.816  11.031 -0.1080  0.1441  0.7008
14395TIP3    H264677   4.135   6.676  11.075 -0.3789 -0.4070 -0.7553
14396TIP3   OH264678   5.292   1.702   5.509 -0.3443  0.3491  0.3336
14396TIP3    H164679   5.288   1.635   5.440  0.1661 -0.6167  1.2307
14396TIP3    H264680   5.200   1.718   5.531 -0.5896  1.5100 -1.3438
14397TIP3   OH264681   0.569   6.788   2.262 -0.3168 -0.3340  0.4419
14397TIP3    H164682   0.533   6.819   2.344  0.2364 -1.4001  1.1131
14397TIP3    H264683   0.582   6.867   2.210  3.7058  1.0377  3.0879
14398TIP3   OH264684   2.771   3.327  12.778 -0.7086  0.3704 -0.6582
14398TIP3    H164685   2.778   3.251  12.837 -1.3278 -0.5336 -1.6942
14398TIP3    H264686   2.758   3.402  12.837  0.7912 -0.1789  0.4399
14399TIP3   OH264687   4.886   5.675   5.344  0.4506  0.0604 -0.1078
14399TIP3    H164688   4.904   5.590   5.384  2.0649 -0.5663 -2.0449
14399TIP3    H264689   4.906   5.738   5.413  1.8689 -1.0386  0.5381
14400TIP3   OH264690   4.876   4.032  15.107 -0.0616  0.7560  0.8737
14400TIP3    H164691   4.786   4.028  15.076  0.3929  1.0169 -0.6038
14400TIP3    H264692   4.896   4.126  15.112  0.2228  0.7007  0.8400
14401TIP3   OH264693   5.343   0.172  10.645  0.5916 -0.3349 -0.7374
14401TIP3    H164694   5.253   0.146  10.624  0.7386  0.0692 -1.9053
14401TIP3    H264695   5.384   0.092  10.677  0.2701 -0.9056 -1.7213
14402TIP3   OH264696   4.473   5.944  11.105 -0.6133 -0.4644  0.0773
14402TIP3    H164697   4.443   5.922  11.193 -1.6935 -1.2419 -0.4579
14402TIP3    H264698   4.443   5.871  11.051  0.0219  0.0089 -0.9393
14403TIP3   OH264699   5.404   5.656  16.435 -0.0765  0.2982  0.3544
14403TIP3    H164700   5.333   5.617  16.485 -0.1513  1.2224  0.9937
14403TIP3    H264701   5.383   5.749  16.433  1.4739  0.6949  1.1720
14404TIP3   OH264702   5.193   3.976   5.029  0.2839 -0.4720 -0.1230
14404TIP3    H164703   5.211   4.069   5.024 -1.0273 -0.1734  0.2631
14404TIP3    H264704   5.225   3.949   5.115  0.1985 -0.2685 -0.0287
14405TIP3   OH264705   5.196   4.748   4.862  0.4750 -0.3339 -0.1842
14405TIP3    H164706   5.252   4.815   4.900  1.8935 -0.7648 -1.4523
14405TIP3    H264707   5.110   4.791   4.854  0.8827  0.7099  0.6996
14406TIP3   OH264708   1.908   3.965   1.211 -0.5762 -0.2292 -0.7700
14406TIP3    H164709   1.935   3.939   1.123  0.3376 -0.0775 -0.5456
14406TIP3    H264710   1.983   3.945   1.266 -0.5733  1.0562 -0.2681
14407TIP3   OH264711   5.324   4.325   4.755  0.2576  0.4374  0.0397
14407TIP3    H164712   5.265   4.400   4.744  0.3551  0.5033 -0.0313
14407TIP3    H264713   5.277   4.252   4.713  0.2573  0.5046 -0.0751
14408TIP3   OH264714   1.162   1.324   1.791 -0.1026  0.5820  0.0391
14408TIP3    H164715   1.238   1.268   1.807 -0.7580 -0.1463  0.7240
14408TIP3    H264716   1.105   1.308   1.866 -1.1143  0.7999 -0.6599
14409TIP3   OH264717   2.078   1.610   3.996  0.1210 -0.4011 -0.2567
14409TIP3    H164718   2.012   1.541   3.995 -0.8658  0.4680 -2.9205
14409TIP3    H264719   2.030   1.689   4.018  0.8090 -0.1554  0.4055
14410TIP3   OH264720   6.622   5.308  12.173 -0.5734 -0.9295  0.1061
14410TIP3    H164721   6.590   5.311  12.082 -0.1793  1.2619 -0.0213
14410TIP3    H264722   6.715   5.287  12.164 -0.4050 -0.1396 -0.0531
14411TIP3   OH264723   5.305   3.460   3.584  0.6336 -0.1717  0.0507
14411TIP3    H164724   5.324   3.537   3.637 -0.7634 -0.2043  0.6214
14411TIP3    H264725   5.390   3.434   3.548  1.4021  0.5613  1.2934
14412TIP3   OH264726   5.628   1.315   4.696 -0.6021 -0.0576 -0.0745
14412TIP3    H164727   5.549   1.310   4.641 -0.5183  0.3025 -0.2279
14412TIP3    H264728   5.596   1.296   4.784 -1.0962  1.3052  0.0719
14413TIP3   OH264729   3.763   5.993  15.859 -0.6721  0.1527  0.1422
14413TIP3    H164730   3.822   5.998  15.934 -2.5831 -0.4091  1.7786
14413TIP3    H264731   3.741   5.900  15.853 -1.6610  0.3977 -0.1843
14414TIP3   OH264732   6.789   2.772   0.615 -0.6265  0.0860 -0.1563
14414TIP3    H164733   6.701   2.741   0.634 -0.1271 -3.0380 -2.1916
14414TIP3    H264734   6.786   2.798   0.523  0.6546 -0.5201 -0.3920
14415TIP3   OH264735   5.937   4.829  12.988  0.3042  0.6723  0.1804
14415TIP3    H164736   5.889   4.780  12.921  1.1433  0.5865 -0.3699
14415TIP3    H264737   6.010   4.869  12.941  1.2044  0.1959  1.1263
14416TIP3   OH264738   1.457   6.629   1.538  0.4787 -0.1891  0.1221
14416TIP3    H164739   1.365   6.644   1.513  0.3873 -0.6367  0.1910
14416TIP3    H264740   1.458   6.641   1.633  0.4772 -0.2568  0.1306
14417TIP3   OH264741   3.480   5.568   4.456  0.0245  0.6447  0.4857
14417TIP3    H164742   3.387   5.573   4.431 -0.1441  0.0951  0.9709
14417TIP3    H264743   3.478   5.533   4.545  0.6760  1.2424  0.7330
14418TIP3   OH264744   2.295   6.392   5.513  0.5878  0.6147 -0.4786
14418TIP3    H164745   2.254   6.420   5.431 -0.2900 -0.2506 -0.3640
14418TIP3    H264746   2.346   6.315   5.489  0.1718  0.2424 -0.1872
14419TIP3   OH264747   6.672   2.068   5.478  0.1462  0.5167 -0.1857
14419TIP3    H164748   6.628   1.992   5.439 -0.5714  0.9330 -0.2119
14419TIP3    H264749   6.757   2.035   5.506  0.2609 -0.0441 -1.1523
14420TIP3   OH264750   5.103   0.555   4.310  0.8378  0.3757 -0.0338
14420TIP3    H164751   5.047   0.510   4.247  0.8366  0.9024 -0.4224
14420TIP3    H264752   5.125   0.638   4.267  1.3186  0.4894  0.4175
14421TIP3   OH264753   5.813   5.655  14.348 -0.2503 -0.1296  0.4113
14421TIP3    H164754   5.822   5.578  14.293 -0.6130 -0.2621  0.5305
14421TIP3    H264755   5.901   5.692  14.354  0.1301 -1.1614  1.2839
14422TIP3   OH264756   2.396   6.788   3.311 -0.0675  0.3829  0.0257
14422TIP3    H164757   2.411   6.797   3.405 -0.0768  0.3270  0.0325
14422TIP3    H264758   2.363   6.699   3.300  0.7183  0.0946 -0.1210
14423TIP3   OH264759   1.695   4.462  12.532 -0.1348 -0.4758 -0.6137
14423TIP3    H164760   1.661   4.375  12.553 -0.0274 -0.2252  0.6824
14423TIP3    H264761   1.695   4.466  12.436  0.5908 -2.1961 -0.7175
14424TIP3   OH264762   2.584   4.242  12.324  0.5691  0.3040 -0.1618
14424TIP3    H164763   2.533   4.307  12.275 -0.3346  0.6862  1.2360
14424TIP3    H264764   2.523   4.169  12.336 -0.3231  1.4139  2.9339
14425TIP3   OH264765   5.312   5.532   3.385 -0.6983 -0.4566  0.0101
14425TIP3    H164766   5.393   5.497   3.348 -0.3952 -0.1039  0.3392
14425TIP3    H264767   5.273   5.458   3.431  0.6050 -0.0600  1.8492
14426TIP3   OH264768   5.877   0.632  13.020  0.6141  0.8786  0.1221
14426TIP3    H164769   5.896   0.607  12.929  0.2094 -1.7384  0.6655
14426TIP3    H264770   5.786   0.661  13.018  0.9019  1.7903 -0.4486
14427TIP3   OH264771   2.847   6.537  13.687 -0.1793  0.0839 -0.7506
14427TIP3    H164772   2.903   6.461  13.673 -2.7707 -1.8296 -1.3994
14427TIP3    H264773   2.862   6.593  13.611  1.7518  0.2829 -0.2661
14428TIP3   OH264774   4.099   3.934   5.395 -0.4550  0.0871  0.4264
14428TIP3    H164775   4.100   4.025   5.424  0.1326 -0.2346  1.4789
14428TIP3    H264776   4.036   3.932   5.323 -0.7817  1.2347  0.6637
14429TIP3   OH264777   4.042   0.254   2.579  0.3425 -0.2650  0.0463
14429TIP3    H164778   4.046   0.165   2.613 -0.2790 -0.1346  0.4818
14429TIP3    H264779   4.000   0.246   2.493 -0.1727 -0.3367  0.3033
14430TIP3   OH264780   1.144   0.080   4.800 -0.0463 -0.3224  0.4487
14430TIP3    H164781   1.091   0.037   4.867 -0.4134 -1.1816 -0.3647
14430TIP3    H264782   1.082   0.102   4.731  0.6056 -1.1193 -0.4112
14431TIP3   OH264783   5.364   4.851   3.469 -0.2232 -0.3666  0.6071
14431TIP3    H164784   5.352   4.869   3.562  0.2546 -0.3604  0.6675
14431TIP3    H264785   5.274   4.846   3.435 -0.3926  0.1608  0.9576
14432TIP3   OH264786   4.228   1.692   3.520 -0.1482  0.4571  0.3164
14432TIP3    H164787   4.245   1.748   3.596 -0.7592 -0.0793  0.8706
14432TIP3    H264788   4.307   1.699   3.467  0.8442 -0.1755  1.6459
14433TIP3   OH264789   6.386   6.264  12.567 -0.1745  0.3286 -0.1864
14433TIP3    H164790   6.427   6.302  12.644  2.0901 -1.5247 -0.3923
14433TIP3    H264791   6.340   6.187  12.599  1.6235 -1.0328 -0.7537
14434TIP3   OH264792   6.171   3.847   3.501  0.2110 -0.2914 -0.5283
14434TIP3    H164793   6.146   3.775   3.443 -1.0696 -1.1138  0.9505
14434TIP3    H264794   6.088   3.890   3.523  0.6789  0.1566  0.4471
14435TIP3   OH264795   6.066   1.157   2.282 -0.1275 -0.1800 -0.1824
14435TIP3    H164796   5.973   1.152   2.302  0.0650 -3.7662  0.4977
14435TIP3    H264797   6.075   1.111   2.198  0.9417  1.3064 -0.9427
14436TIP3   OH264798   1.856   1.081   4.986 -0.1317  0.0031 -0.2482
14436TIP3    H164799   1.855   1.008   5.048 -0.2481 -0.5470 -0.8918
14436TIP3    H264800   1.935   1.068   4.935  0.1820  0.6872  0.0399
14437TIP3   OH264801   1.637   1.781  12.985 -0.4274  0.2394 -0.3353
14437TIP3    H164802   1.563   1.776  13.044  0.2561  0.4227  0.5556
14437TIP3    H264803   1.634   1.699  12.936 -0.0110 -0.7324  1.1915
14438TIP3   OH264804   5.059   5.325  12.093  0.3410  0.2711  0.0623
14438TIP3    H164805   5.061   5.394  12.027  1.2046 -0.4038 -0.6549
14438TIP3    H264806   5.107   5.361  12.168  0.9568  0.3802 -0.3823
14439TIP3   OH264807   0.484   2.317   5.756  0.3634 -0.2922 -0.9290
14439TIP3    H164808   0.462   2.409   5.762  0.1385 -0.4311  1.5021
14439TIP3    H264809   0.577   2.313   5.778  0.2412 -0.6734 -0.4520
14440TIP3   OH264810   0.849   2.729   3.927 -0.1596  0.1363 -0.6825
14440TIP3    H164811   0.919   2.700   3.868 -1.5123  0.2911 -2.4448
14440TIP3    H264812   0.769   2.724   3.875 -1.3835  0.7128  1.0210
14441TIP3   OH264813   2.999   3.055   2.719 -0.6805 -0.1032 -0.0569
14441TIP3    H164814   2.947   3.066   2.639 -0.2928  0.0110 -0.2941
14441TIP3    H264815   2.965   2.974   2.758 -0.4444 -0.5021 -0.6666
14442TIP3   OH264816   3.966   2.397   0.228  0.1183  0.0170  0.3362
14442TIP3    H164817   3.959   2.492   0.228  1.2406  0.1049  0.3951
14442TIP3    H264818   4.054   2.378   0.195 -0.2868 -1.0219 -0.2108
14443TIP3   OH264819   3.695   2.368  12.747 -0.1854  0.3791  0.1411
14443TIP3    H164820   3.634   2.301  12.715 -1.2697  1.7748 -0.8664
14443TIP3    H264821   3.704   2.350  12.840 -3.4997  1.0670  0.7391
14444TIP3   OH264822   0.701   2.896   3.014 -0.2220 -0.1170 -0.5150
14444TIP3    H164823   0.789   2.862   2.998  0.4439  1.5667 -0.6776
14444TIP3    H264824   0.647   2.856   2.946  0.1162 -2.1522  0.3489
14445TIP3   OH264825   5.345   3.818   2.665 -0.2967 -0.0428  0.1681
14445TIP3    H164826   5.365   3.729   2.693  1.1657  0.3240  0.3645
14445TIP3    H264827   5.303   3.858   2.742 -0.3589 -0.3583  0.3023
14446TIP3   OH264828   0.701   1.415   4.599  0.2923  0.1585  0.0550
14446TIP3    H164829   0.630   1.469   4.564  1.1728  0.7337 -0.9022
14446TIP3    H264830   0.659   1.331   4.619 -0.7727  0.6780  0.0791
14447TIP3   OH264831   6.527   3.370   0.688  0.4300 -0.3012 -0.1614
14447TIP3    H164832   6.620   3.365   0.665  0.8749  1.2438  1.0919
14447TIP3    H264833   6.527   3.404   0.777 -1.3603  0.9281 -0.5863
14448TIP3   OH264834   0.822   0.726  16.843 -0.5527  0.0433 -0.0383
14448TIP3    H164835   0.785   0.651  16.796 -0.0260 -0.6538  0.6345
14448TIP3    H264836   0.917   0.719  16.829 -0.5068  0.6724 -0.0855
14449TIP3   OH264837   5.143   2.237  12.767 -0.2304  0.4383  0.3214
14449TIP3    H164838   5.052   2.209  12.763 -0.3669  0.6486  1.4982
14449TIP3    H264839   5.139   2.332  12.769 -0.1740  0.4552  2.8806
14450TIP3   OH264840   5.646   0.772   4.559  0.0158 -0.2684  0.2876
14450TIP3    H164841   5.691   0.721   4.626  0.7203 -0.0565 -0.0087
14450TIP3    H264842   5.712   0.784   4.490 -0.6102 -0.2553 -0.3199
14451TIP3   OH264843   3.249   4.610  16.445 -0.1264 -0.0124 -0.1534
14451TIP3    H164844   3.291   4.527  16.469  0.5391  0.4137  0.1844
14451TIP3    H264845   3.210   4.641  16.527  1.0997  0.8453  0.1301
14452TIP3   OH264846   6.746   5.569  14.631 -0.0379  0.4204  0.2316
14452TIP3    H164847   6.789   5.625  14.696  1.3135 -0.2939  0.0017
14452TIP3    H264848   6.653   5.584  14.644  0.2515  1.8548  0.9372
14453TIP3   OH264849   0.027   4.120  12.193 -0.0718  0.2690  0.4043
14453TIP3    H164850  -0.021   4.058  12.248  0.1981 -0.1560  0.1634
14453TIP3    H264851   0.116   4.119  12.227  0.0744  0.0724  0.0155
14454TIP3   OH264852   2.675   1.053   2.816  0.1351  0.1868  0.2384
14454TIP3    H164853   2.709   1.121   2.758  1.0259  0.3087  0.8871
14454TIP3    H264854   2.661   0.977   2.758  3.5132 -0.5676  0.2228
14455TIP3   OH264855   6.552   6.453  16.654 -0.7014  0.4411  0.1630
14455TIP3    H164856   6.536   6.496  16.738 -1.9268  1.0934 -0.3818
14455TIP3    H264857   6.564   6.524  16.592 -1.2034 -0.0072 -0.4629
14456TIP3   OH264858   1.467   3.552  15.140  0.2141 -0.0532 -0.6254
14456TIP3    H164859   1.522   3.630  15.141 -1.2306  1.0006 -0.0067
14456TIP3    H264860   1.456   3.530  15.233 -1.2630  0.4078 -0.6683
14457TIP3   OH264861   4.534   0.151  14.600  0.3010  0.3610 -0.4843
14457TIP3    H164862   4.595   0.078  14.611 -0.2532  0.2563  2.5518
14457TIP3    H264863   4.459   0.128  14.654 -0.2619  2.7919 -0.1474
14458TIP3   OH264864   5.953   3.854   5.052 -0.5654  0.2128 -0.1918
14458TIP3    H164865   5.949   3.910   4.974  2.2021  1.4796  0.4603
14458TIP3    H264866   5.975   3.767   5.017 -0.2199  0.5702 -0.8868
14459TIP3   OH264867   3.195   5.756   2.051 -0.3953  0.8885 -0.5372
14459TIP3    H164868   3.199   5.662   2.064 -1.4559  1.1519  2.5043
14459TIP3    H264869   3.285   5.781   2.029 -0.0088 -0.7636 -0.9618
14460TIP3   OH264870   1.648   5.311   5.029  0.2263  0.0609 -0.2311
14460TIP3    H164871   1.590   5.361   5.087  0.0974  0.2377 -0.5145
14460TIP3    H264872   1.668   5.232   5.079 -0.8976 -0.3829 -0.4394
14461TIP3   OH264873   1.990   1.264  12.170  0.4112  0.3399 -0.0977
14461TIP3    H164874   2.026   1.289  12.255  1.0940  0.7896 -0.5010
14461TIP3    H264875   2.065   1.271  12.110  0.3661 -1.6260 -0.4420
14462TIP3   OH264876   0.377   5.297   5.063  0.1631  0.0039 -0.3098
14462TIP3    H164877   0.442   5.329   5.127  0.2289  0.7435 -0.7347
14462TIP3    H264878   0.322   5.373   5.045  0.2239 -0.1605 -1.2263
14463TIP3   OH264879   1.457   2.388  15.710 -0.0741  0.2643 -0.1953
14463TIP3    H164880   1.516   2.339  15.652 -1.4676 -1.2596 -0.3671
14463TIP3    H264881   1.473   2.352  15.797  0.9423  1.5277  0.1737
14464TIP3   OH264882   5.299   2.771   3.178  0.6763 -0.2695 -0.1377
14464TIP3    H164883   5.347   2.698   3.139  0.2276 -0.1820 -0.8727
14464TIP3    H264884   5.353   2.848   3.158  0.0108 -0.0995 -1.4213
14465TIP3   OH264885   3.401   1.516  16.418  0.0458 -0.0840  0.0192
14465TIP3    H164886   3.376   1.438  16.369  0.9791  0.4171 -1.3149
14465TIP3    H264887   3.376   1.496  16.509 -0.0478 -1.7814 -0.3366
14466TIP3   OH264888   3.172   1.800   1.236 -0.5230 -0.2930  0.4640
14466TIP3    H164889   3.250   1.746   1.224 -1.4357 -1.3983 -0.9199
14466TIP3    H264890   3.158   1.803   1.330  1.0168 -0.2966  0.7190
14467TIP3   OH264891   5.795   6.055  11.544  0.0740  0.0863  0.5690
14467TIP3    H164892   5.866   6.115  11.521  1.4538 -1.5977  0.2609
14467TIP3    H264893   5.786   5.998  11.468 -2.3830  0.8820  0.1546
14468TIP3   OH264894   3.383   2.159   2.945  0.2560  0.6750  0.1941
14468TIP3    H164895   3.474   2.141   2.924  0.1961  1.8692 -1.2747
14468TIP3    H264896   3.386   2.227   3.011  0.4105 -0.3015  1.2298
14469TIP3   OH264897   1.368   2.241   4.592 -0.3384 -0.0417  0.5132
14469TIP3    H164898   1.395   2.222   4.502 -2.6079 -0.0831 -0.2329
14469TIP3    H264899   1.394   2.163   4.642 -2.5878 -1.8852 -0.9677
14470TIP3   OH264900   1.099   2.268   2.615  0.5582 -0.0887 -0.4273
14470TIP3    H164901   1.019   2.281   2.564  1.2382 -0.0190 -1.5096
14470TIP3    H264902   1.163   2.325   2.574  1.5508 -1.2087 -0.4861
14471TIP3   OH264903   6.736   2.231  13.332 -0.6799 -0.2302 -0.4054
14471TIP3    H164904   6.829   2.209  13.326 -0.5207  0.5270 -0.8960
14471TIP3    H264905   6.700   2.209  13.247 -0.9516 -0.5280 -0.2128
14472TIP3   OH264906   0.756   2.857  14.161  0.2889 -0.5965 -0.1168
14472TIP3    H164907   0.808   2.883  14.084  0.5507  0.4130  0.3805
14472TIP3    H264908   0.666   2.857  14.130  0.3699  0.0442 -0.3716
14473TIP3   OH264909   3.258   3.993   2.792  0.3080  0.4922 -0.2854
14473TIP3    H164910   3.283   4.026   2.878  0.5519  3.1152 -1.2573
14473TIP3    H264911   3.308   3.912   2.782  0.8071  0.4909  1.7204
14474TIP3   OH264912   6.473   6.328  17.071  0.0610  0.1043  0.2221
14474TIP3    H164913   6.407   6.357  17.133  0.9226 -1.8366  2.1697
14474TIP3    H264914   6.524   6.262  17.118  3.3063  1.3485 -1.2246
14475TIP3   OH264915   2.824   3.444   3.022 -0.3957 -0.3927 -0.2968
14475TIP3    H164916   2.854   3.443   3.113  1.1697 -2.2459 -0.7711
14475TIP3    H264917   2.734   3.478   3.027  0.0411  0.6166  1.7733
14476TIP3   OH264918   5.257   5.795   5.484  0.0469 -0.0610  0.3462
14476TIP3    H164919   5.309   5.835   5.414 -1.8259 -0.1154 -1.1805
14476TIP3    H264920   5.296   5.708   5.496 -0.7969 -0.8973 -2.2013
14477TIP3   OH264921   2.994   2.425   6.595  0.3323 -0.5054  0.1983
14477TIP3    H164922   2.959   2.345   6.635 -0.9963  0.2257  0.5505
14477TIP3    H264923   3.069   2.448   6.650 -0.0478 -0.8151  0.8646
14478TIP3   OH264924   2.184   0.873   5.921 -0.1444  0.0703 -0.2726
14478TIP3    H164925   2.266   0.834   5.952 -0.8336 -1.8315 -0.6797
14478TIP3    H264926   2.196   0.879   5.826 -0.2145  0.4339 -0.2573
14479TIP3   OH264927   6.738   5.478  11.421  0.0837 -0.0494 -0.9459
14479TIP3    H164928   6.713   5.515  11.337 -1.5896  1.8669  0.2989
14479TIP3    H264929   6.829   5.503  11.432 -0.3774  1.8787 -1.1438
14480TIP3   OH264930   6.626   5.802  14.132  0.4373  0.3865  0.1333
14480TIP3    H164931   6.594   5.714  14.113  1.2778  0.2108 -0.5219
14480TIP3    H264932   6.648   5.800  14.225 -2.4473  0.8471  0.9198
14481TIP3   OH264933   0.135   1.534  14.764 -0.4430  0.0105 -0.3747
14481TIP3    H164934   0.142   1.489  14.848 -0.2247  0.3015 -0.2379
14481TIP3    H264935   0.063   1.596  14.775 -0.8088 -0.3675 -0.5948
14482TIP3   OH264936   1.913   4.788  12.478 -0.3647 -0.4674  0.1850
14482TIP3    H164937   1.991   4.844  12.480 -1.1545  0.6749  0.0381
14482TIP3    H264938   1.943   4.703  12.511  1.2615 -0.4859 -1.1851
14483TIP3   OH264939   4.373   2.413   3.498  0.5580  0.8194  0.2610
14483TIP3    H164940   4.434   2.340   3.488 -0.9334 -0.1814 -2.7631
14483TIP3    H264941   4.304   2.379   3.554  0.5011  0.3283 -0.1002
14484TIP3   OH264942   3.701   4.065  11.874 -0.1843  0.7240 -0.6889
14484TIP3    H164943   3.608   4.076  11.896 -0.9147 -0.1457 -3.0090
14484TIP3    H264944   3.709   3.972  11.853  1.6786  0.3873  1.2551
14485TIP3   OH264945   6.526   5.550   3.880  0.4633  0.2859  0.4318
14485TIP3    H164946   6.487   5.464   3.860 -0.9922  0.4947  2.1460
14485TIP3    H264947   6.564   5.579   3.797 -1.5090 -0.7510 -0.8982
14486TIP3   OH264948   2.501   2.620   3.945 -0.0097 -0.1959 -0.0746
14486TIP3    H164949   2.557   2.601   3.869  1.9288 -0.6290  1.3800
14486TIP3    H264950   2.546   2.692   3.989  0.2646 -1.5430  1.9573
14487TIP3   OH264951   6.171   6.519  12.684  0.0412  0.5909  0.1827
14487TIP3    H164952   6.117   6.462  12.739  0.2475  1.7307  1.6510
14487TIP3    H264953   6.141   6.607  12.706  0.5631  1.1093 -1.1225
14488TIP3   OH264954   6.076   1.699   4.214 -0.2499  0.1803 -0.1592
14488TIP3    H164955   6.134   1.735   4.147  0.5778  0.2801  0.5851
14488TIP3    H264956   5.992   1.688   4.170  0.4793 -0.5112 -1.4317
14489TIP3   OH264957   0.455   6.806  15.999  0.3744  0.1287  0.4184
14489TIP3    H164958   0.467   6.794  15.905  0.9521 -1.6856  0.6841
14489TIP3    H264959   0.375   6.858  16.006 -0.3134 -0.6468 -1.0593
14490TIP3   OH264960   5.560   1.826   2.158 -0.1504 -0.1241  0.9832
14490TIP3    H164961   5.636   1.840   2.101 -0.3460  0.7506  0.9174
14490TIP3    H264962   5.534   1.736   2.141 -0.0048  0.0195 -0.0862
14491TIP3   OH264963   2.031   5.093  14.525 -0.0186 -0.5881 -0.6959
14491TIP3    H164964   2.093   5.035  14.480 -1.8021 -1.8760 -1.6136
14491TIP3    H264965   2.013   5.163  14.462  1.3008  0.4067 -0.0047
14492TIP3   OH264966   0.239   0.344   0.808  0.0155 -0.1286 -0.6016
14492TIP3    H164967   0.314   0.335   0.749 -0.2711 -1.6642 -0.7767
14492TIP3    H264968   0.274   0.322   0.895 -0.4956 -2.3284 -0.8952
14493TIP3   OH264969   1.096   4.600   3.213 -0.2777  0.1267  0.0003
14493TIP3    H164970   1.033   4.671   3.200 -1.7414 -1.3880 -1.5979
14493TIP3    H264971   1.177   4.632   3.172 -1.1283  0.6008 -1.3740
14494TIP3   OH264972   5.390   0.466  16.327  0.0934 -0.0503  0.6802
14494TIP3    H164973   5.395   0.445  16.420  0.1215  0.9177  0.9032
14494TIP3    H264974   5.468   0.425  16.289 -0.2401 -0.9685  0.9708
14495TIP3   OH264975   2.947   0.574   3.798  0.0250 -0.3031 -0.0500
14495TIP3    H164976   2.915   0.511   3.863 -0.4024  0.1125  0.1451
14495TIP3    H264977   2.969   0.652   3.849 -2.0824  0.7036 -0.6012
14496TIP3   OH264978   6.608   2.383  16.526  0.2268 -0.7665  0.1433
14496TIP3    H164979   6.525   2.371  16.479  0.6412  0.7549 -1.0744
14496TIP3    H264980   6.588   2.449  16.592  0.2580 -1.0421  0.4267
14497TIP3   OH264981   6.290   4.426  13.662  0.1214 -0.1226  0.2221
14497TIP3    H164982   6.263   4.456  13.576  1.1228 -1.4618 -0.6091
14497TIP3    H264983   6.210   4.396  13.704 -0.3465  0.3529 -0.3205
14498TIP3   OH264984   1.034   4.468  16.818 -0.2543  0.3796  0.1456
14498TIP3    H164985   0.981   4.543  16.789  0.5568  0.4146 -1.3611
14498TIP3    H264986   0.986   4.432  16.891 -1.9299  0.9255 -0.6363
14499TIP3   OH264987   5.521   2.423  11.010  0.5633  0.2479  0.2351
14499TIP3    H164988   5.616   2.428  11.010  0.5220  1.1305  0.4556
14499TIP3    H264989   5.496   2.440  10.919  0.5970  0.5537  0.2811
14500TIP3   OH264990   5.877   2.809  16.066  0.1339 -0.4349 -0.0548
14500TIP3    H164991   5.830   2.813  15.982  0.2536 -0.3617 -0.1185
14500TIP3    H264992   5.819   2.854  16.128 -0.1117 -0.7878 -0.0228
14501TIP3   OH264993   1.755   5.686   2.827 -0.0143  0.4584  0.0428
14501TIP3    H164994   1.812   5.684   2.904  0.7299 -0.3636 -0.5079
14501TIP3    H264995   1.726   5.596   2.817  0.5865  0.3757 -1.1246
14502TIP3   OH264996   3.230   2.541  17.043  0.1705 -0.4450 -0.1577
14502TIP3    H164997   3.186   2.494  17.114  0.1321 -1.4162 -0.8037
14502TIP3    H264998   3.237   2.476  16.972  0.6190  0.3676 -0.8723
14503TIP3   OH264999   2.857   0.838  16.309  0.2799  0.2479  0.2957
14503TIP3    H165000   2.855   0.763  16.369 -2.3567  1.2981  1.6937
14503TIP3    H265001   2.811   0.807  16.231  1.6945 -0.4136 -0.3052
14504TIP3   OH265002   2.050   6.743  10.853 -0.1417  0.7508 -0.2066
14504TIP3    H165003   2.142   6.743  10.825  0.4614  1.5871  1.6785
14504TIP3    H265004   2.001   6.764  10.773  1.1864 -0.7621 -1.4939
14505TIP3   OH265005   2.790   5.846  11.636  0.4889 -0.2228  0.0295
14505TIP3    H165006   2.794   5.925  11.689  1.3117 -0.0181 -0.3147
14505TIP3    H265007   2.745   5.872  11.556  3.6903  0.8660 -1.5983
14506TIP3   OH265008   0.538   2.988  14.338 -0.2262 -0.0836  0.1637
14506TIP3    H165009   0.516   3.073  14.301  1.3036 -0.4519 -1.6966
14506TIP3    H265010   0.628   2.971  14.311 -0.5242 -2.3734  0.3557
14507TIP3   OH265011   6.088   4.582   2.536  0.0904 -0.4167  0.4677
14507TIP3    H165012   6.159   4.616   2.481  0.3922  0.4127  1.3390
14507TIP3    H265013   6.125   4.505   2.579 -0.3225 -1.3964 -0.8800
14508TIP3   OH265014   1.123   1.806  11.129 -0.8648 -0.1771  0.2324
14508TIP3    H165015   1.076   1.874  11.080  0.7852  0.5342 -0.4520
14508TIP3    H265016   1.137   1.844  11.216  2.8316  1.8757 -1.0296
14509TIP3   OH265017   5.411   2.928  15.935 -0.2137  0.1354 -0.1405
14509TIP3    H165018   5.477   2.912  15.868 -0.1806 -1.0623  0.1486
14509TIP3    H265019   5.333   2.955  15.885 -0.1022 -0.4433 -0.6473
14510TIP3   OH265020   6.418   5.829  10.481  0.3781  0.0508 -0.2613
14510TIP3    H165021   6.379   5.861  10.562 -0.5946 -0.6342 -0.4395
14510TIP3    H265022   6.370   5.873  10.412  0.9452  0.3399 -0.4824
14511TIP3   OH265023   4.755   2.849   2.953  0.1621 -0.4013  0.7861
14511TIP3    H165024   4.823   2.848   3.022 -0.1900 -0.0818  1.1393
14511TIP3    H265025   4.725   2.758   2.949  1.1572 -0.7274  0.0699
14512TIP3   OH265026   1.663   1.183  12.320  0.8160 -0.7145  0.1787
14512TIP3    H165027   1.710   1.101  12.332 -0.3818 -1.6312 -1.0525
14512TIP3    H265028   1.633   1.206  12.408  3.0919 -0.3396  0.9172
14513TIP3   OH265029   1.008   3.512   2.993 -0.0654  0.2772  0.0519
14513TIP3    H165030   1.063   3.583   3.027  0.1160  0.0956  0.1452
14513TIP3    H265031   0.980   3.465   3.072  0.4621 -0.2245 -0.0547
14514TIP3   OH265032   6.340   3.218   3.405  0.3932  0.7329  0.3530
14514TIP3    H165033   6.246   3.239   3.402  0.3009  0.2595 -0.4015
14514TIP3    H265034   6.362   3.218   3.498 -0.9999 -2.0001  0.7883
14515TIP3   OH265035   5.469   5.222  12.882  0.1288 -0.1565  0.6557
14515TIP3    H165036   5.539   5.269  12.928  0.3053 -2.3385  2.8143
14515TIP3    H265037   5.503   5.134  12.871 -1.5959 -0.7810  0.0975
14516TIP3   OH265038   3.617   5.212   2.316 -0.1311 -0.4393 -0.2822
14516TIP3    H165039   3.526   5.237   2.330  0.5396  0.6000  3.1979
14516TIP3    H265040   3.614   5.117   2.302 -1.6757 -0.8483  2.1690
14517TIP3   OH265041   6.488   4.543   4.872  0.6339 -0.0445  0.0027
14517TIP3    H165042   6.404   4.560   4.915  0.8602  1.4293 -0.0635
14517TIP3    H265043   6.527   4.472   4.923 -0.7477 -0.9433 -0.1363
14518TIP3   OH265044   5.024   1.509   5.786  0.4145 -0.1317  0.1670
14518TIP3    H165045   4.942   1.557   5.782 -0.0063 -0.8932 -0.5381
14518TIP3    H265046   4.999   1.418   5.798  1.0893 -0.5235 -1.1458
14519TIP3   OH265047   1.193   4.733   0.402  0.3284  0.6416  0.5343
14519TIP3    H165048   1.243   4.684   0.337 -3.3109  0.0073 -2.1632
14519TIP3    H265049   1.203   4.683   0.483  2.2500 -0.6018 -0.4042
14520TIP3   OH265050   1.178   0.363  11.836 -0.3612  0.1068  0.1864
14520TIP3    H165051   1.146   0.299  11.772  0.9195 -2.2180  1.7507
14520TIP3    H265052   1.254   0.403  11.793  0.1132 -0.9769 -0.0234
14521TIP3   OH265053   2.832   1.209  14.615 -0.0091  0.1772  0.0164
14521TIP3    H165054   2.847   1.268  14.542  0.4333 -0.0873 -0.1091
14521TIP3    H265055   2.786   1.134  14.577 -0.1950  0.2505  0.0971
14522TIP3   OH265056   6.719   6.501  14.413 -0.4925 -0.3122 -0.1113
14522TIP3    H165057   6.647   6.447  14.381 -0.3501 -0.9553  0.6126
14522TIP3    H265058   6.677   6.567  14.468 -0.5942 -0.2018 -0.3208
14523TIP3   OH265059   6.467   2.237  13.133 -0.0850 -0.2499 -0.5489
14523TIP3    H165060   6.396   2.174  13.123 -0.4952 -0.0431  0.8009
14523TIP3    H265061   6.432   2.319  13.096  0.4887 -0.7898 -2.4036
14524TIP3   OH265062   0.846   3.977   2.629  0.0124  0.2689 -0.1129
14524TIP3    H165063   0.776   3.955   2.568  1.7900 -2.8481 -1.2547
14524TIP3    H265064   0.809   3.958   2.716 -0.7947 -0.6271 -0.6344
14525TIP3   OH265065   2.825   1.424   6.359  0.3024 -0.7187  0.9799
14525TIP3    H165066   2.835   1.378   6.442  2.1961 -4.3115 -1.0126
14525TIP3    H265067   2.878   1.374   6.297 -0.3391  2.2391 -2.2731
14526TIP3   OH265068   0.605   4.637  16.538  0.1325  0.0979  0.3375
14526TIP3    H165069   0.526   4.641  16.484 -1.8453  2.0040  3.0915
14526TIP3    H265070   0.651   4.718  16.517 -0.1310  0.3632  0.7718
14527TIP3   OH265071   4.583   2.611  11.622  0.6874  0.3920 -0.7132
14527TIP3    H165072   4.636   2.624  11.543  0.1625  1.1683 -0.9567
14527TIP3    H265073   4.592   2.518  11.642 -1.1292 -0.4498 -3.1752
14528TIP3   OH265074   3.744   2.913   4.981  0.1270 -0.0418 -0.1962
14528TIP3    H165075   3.808   2.876   5.041  0.8296  0.9760 -0.2984
14528TIP3    H265076   3.661   2.909   5.029  0.7186  0.9907  0.9853
14529TIP3   OH265077   4.676   6.646   3.227  0.0240 -0.3360 -0.6341
14529TIP3    H165078   4.729   6.599   3.292  0.8860  0.8093 -0.4887
14529TIP3    H265079   4.686   6.594   3.147 -0.1253 -1.1334 -0.1481
14530TIP3   OH265080   6.518   6.001   6.139 -0.0891 -0.1384 -0.3763
14530TIP3    H165081   6.556   5.941   6.075 -2.0519 -0.8531 -0.9714
14530TIP3    H265082   6.476   6.069   6.086  1.2103  1.2329  0.2733
14531TIP3   OH265083   3.679   2.407   1.916  0.7256 -0.6054 -0.3405
14531TIP3    H165084   3.628   2.365   1.984  1.9365 -0.4074  0.7251
14531TIP3    H265085   3.710   2.334   1.861  0.5028 -0.8457 -0.1498
14532TIP3   OH265086   6.712   0.150  15.478  1.1020 -0.0357  0.0610
14532TIP3    H165087   6.726   0.078  15.539 -0.5677 -1.0012 -0.6227
14532TIP3    H265088   6.678   0.108  15.399 -1.3251  1.6159  0.1420
14533TIP3   OH265089   6.638   0.676  16.861  0.4354 -0.5542  0.2104
14533TIP3    H165090   6.644   0.629  16.944  2.7377 -1.2648 -0.3078
14533TIP3    H265091   6.710   0.642  16.808  0.5994  1.7106 -1.1493
14534TIP3   OH265092   3.604   4.183  15.716 -0.5057  0.2252 -0.2417
14534TIP3    H165093   3.579   4.132  15.639 -0.1440  0.5968 -0.6114
14534TIP3    H265094   3.587   4.125  15.790 -0.1882 -0.3982 -0.6492
14535TIP3   OH265095   1.037   0.079  15.145  0.1794  0.7699 -0.2208
14535TIP3    H165096   1.071  -0.010  15.131  0.2136  0.9481 -1.4545
14535TIP3    H265097   1.100   0.120  15.203  0.1451 -0.0199  0.3972
14536TIP3   OH265098   3.398   0.027   0.879  0.5615  0.1800 -0.0667
14536TIP3    H165099   3.306   0.003   0.887  0.3259 -0.2275 -3.0555
14536TIP3    H265100   3.445  -0.048   0.918 -0.3538 -0.8560 -0.8827
14537TIP3   OH265101   5.818   4.248   3.843  0.2955  0.2167  0.1173
14537TIP3    H165102   5.840   4.312   3.776  2.4553  0.3721  0.8769
14537TIP3    H265103   5.893   4.250   3.903 -0.2468 -1.9652  0.9679
14538TIP3   OH265104   4.541   0.753   5.608  0.2540 -0.4402 -0.0397
14538TIP3    H165105   4.559   0.823   5.546 -0.7736  0.1170  0.2637
14538TIP3    H265106   4.574   0.674   5.565  0.6997  0.1158 -0.7365
14539TIP3   OH265107   3.843   6.528  12.005 -0.3282 -0.7772  0.1417
14539TIP3    H165108   3.851   6.432  12.005  1.7004 -0.6538 -0.0798
14539TIP3    H265109   3.912   6.558  12.063 -2.3305  0.5297  2.0002
14540TIP3   OH265110   2.540   1.333  15.456 -0.1972 -0.1991 -0.7170
14540TIP3    H165111   2.514   1.381  15.534  0.6354 -0.5455 -0.2190
14540TIP3    H265112   2.472   1.355  15.391 -1.5626 -0.8624  0.4373
14541TIP3   OH265113   5.783   2.629  12.730 -0.0221 -0.1374  0.5758
14541TIP3    H165114   5.865   2.675  12.749 -0.6658  1.3818 -0.1380
14541TIP3    H265115   5.772   2.639  12.635 -2.0562  1.5583  0.9119
14542TIP3   OH265116   3.099   1.538   3.613 -0.1587  0.1107  0.1355
14542TIP3    H165117   3.120   1.507   3.525  1.2637  2.4331 -0.4222
14542TIP3    H265118   3.183   1.559   3.653 -0.9226  2.0423  0.8704
14543TIP3   OH265119   4.134   3.079  13.414 -0.4727 -0.2449  0.5604
14543TIP3    H165120   4.045   3.046  13.396 -0.0046 -1.6367  0.6742
14543TIP3    H265121   4.131   3.106  13.506 -0.3610 -1.8556  1.0778
14544TIP3   OH265122   0.311   0.188  13.922 -0.0436 -0.1533  0.5275
14544TIP3    H165123   0.272   0.172  14.008 -0.5589  0.4138  0.4091
14544TIP3    H265124   0.352   0.275  13.930 -2.0227  0.9285 -0.4367
14545TIP3   OH265125   6.361   6.341   1.602  0.2598  0.1555 -0.7320
14545TIP3    H165126   6.389   6.431   1.623  0.4551  0.0946 -0.7317
14545TIP3    H265127   6.365   6.295   1.686  0.6801  0.0084 -0.8278
14546TIP3   OH265128   1.380   3.411   3.504 -0.4570  0.0755  0.0307
14546TIP3    H165129   1.412   3.408   3.414  0.6735 -1.7905  0.4483
14546TIP3    H265130   1.298   3.362   3.501  0.1276 -0.9358  0.1970
14547TIP3   OH265131   5.930   3.532  15.986 -0.0215 -0.2761  0.6148
14547TIP3    H165132   5.983   3.558  15.911 -0.5472  0.5174  0.5079
14547TIP3    H265133   5.876   3.608  16.005  2.7464  1.1230  4.2031
14548TIP3   OH265134   4.994   5.280   4.805 -0.1139  0.1609 -0.1043
14548TIP3    H165135   4.911   5.274   4.854  0.0286 -0.0467  0.1122
14548TIP3    H265136   5.061   5.260   4.870  0.1622  1.0455 -0.1091
14549TIP3   OH265137   4.979   5.774   0.458  0.7728  0.0861 -0.2776
14549TIP3    H165138   5.025   5.692   0.440  0.4160 -0.0931 -0.3851
14549TIP3    H265139   4.952   5.766   0.550  1.8410  0.6319  0.1021
14550TIP3   OH265140   3.910   5.308  16.972 -0.5409  0.3609  0.0164
14550TIP3    H165141   3.964   5.251  16.917 -2.0877  0.1211 -1.3363
14550TIP3    H265142   3.963   5.323  17.051  0.8001 -1.1703 -0.5403
14551TIP3   OH265143   5.724   0.626   5.296 -0.1794 -0.4063  0.1734
14551TIP3    H165144   5.709   0.557   5.233 -0.8581  0.6375 -0.8524
14551TIP3    H265145   5.638   0.645   5.333  0.2857 -1.4217  1.9202
14552TIP3   OH265146   0.541   2.584   5.016  0.1801 -0.6410 -0.3320
14552TIP3    H165147   0.580   2.532   4.946 -0.8577  0.2573 -1.6362
14552TIP3    H265148   0.614   2.605   5.074  1.2645 -0.6001 -1.6739
14553TIP3   OH265149   2.943   0.810   2.283 -0.2948 -0.3707 -0.3650
14553TIP3    H165150   2.965   0.761   2.204 -0.7131 -2.2666  0.6314
14553TIP3    H265151   2.894   0.885   2.251 -0.1891 -0.9167 -1.9266
14554TIP3   OH265152   4.269   0.078   5.497 -0.1047 -0.2028  0.4291
14554TIP3    H165153   4.254   0.146   5.431 -0.2965  0.7744  1.4614
14554TIP3    H265154   4.225   0.001   5.462  1.3775 -0.2512 -1.4830
14555TIP3   OH265155   2.426   0.446   2.044  0.2000  0.1765  0.0781
14555TIP3    H165156   2.464   0.532   2.061  2.5579 -0.9059  0.7095
14555TIP3    H265157   2.428   0.402   2.129 -0.6484 -0.6483 -0.3057
14556TIP3   OH265158   2.863   2.140   5.496  0.6970  0.6696  0.1884
14556TIP3    H165159   2.798   2.087   5.542  1.8245 -0.6031  0.3788
14556TIP3    H265160   2.836   2.138   5.405 -0.0520  0.9561  0.3944
14557TIP3   OH265161   4.143   3.211  15.154 -0.0360  0.3836 -0.0870
14557TIP3    H165162   4.101   3.165  15.081  0.8382  1.1131 -1.0819
14557TIP3    H265163   4.073   3.263  15.193 -0.4965  0.0442 -0.4429
14558TIP3   OH265164   5.990   0.613  14.604  0.0493  0.0590 -0.0219
14558TIP3    H165165   5.913   0.669  14.612  0.9393  1.1889  1.0015
14558TIP3    H265166   6.064   0.673  14.614  1.0438 -1.1387 -0.0352
14559TIP3   OH265167   0.455   1.307   4.698  0.1418 -0.0774 -0.0974
14559TIP3    H165168   0.427   1.369   4.765  1.8316  2.0998 -1.2705
14559TIP3    H265169   0.480   1.229   4.747  2.0412  1.6832  1.9847
14560TIP3   OH265170   1.406   4.660   2.808 -0.4899 -0.2335 -0.2874
14560TIP3    H165171   1.439   4.679   2.720 -2.4079  2.7231 -0.5000
14560TIP3    H265172   1.319   4.624   2.794  0.1006 -2.0156  0.4013
14561TIP3   OH265173   6.716   3.303   3.476 -0.1762  0.0597 -0.2627
14561TIP3    H165174   6.667   3.350   3.408 -0.4977 -0.1872 -0.2048
14561TIP3    H265175   6.746   3.372   3.536 -0.5425  0.2077 -0.2454
14562TIP3   OH265176   5.042   0.251  15.606 -0.2355  0.1429 -0.3372
14562TIP3    H165177   4.951   0.219  15.605 -0.6731  1.3141 -0.0790
14562TIP3    H265178   5.038   0.331  15.658  1.0917 -0.1711  0.2888
14563TIP3   OH265179   5.430   0.698   0.750  0.5701 -0.4344  0.0242
14563TIP3    H165180   5.412   0.765   0.816 -0.1529 -0.3853 -0.2120
14563TIP3    H265181   5.344   0.659   0.732  0.8646 -0.8898 -0.4106
14564TIP3   OH265182   5.417   6.263   5.909  0.0617 -0.0620  0.3017
14564TIP3    H165183   5.409   6.287   6.001  2.4893  1.6052  0.1979
14564TIP3    H265184   5.500   6.215   5.904  1.0248  1.6150 -1.2279
14565TIP3   OH265185   4.117   4.577  17.015 -0.8361 -0.5925  0.2088
14565TIP3    H165186   4.100   4.485  16.992  0.9800 -1.6817  2.6792
14565TIP3    H265187   4.198   4.598  16.970 -1.1953 -0.2225 -0.2688
14566TIP3   OH265188   5.729   1.773  15.052 -0.3741 -0.5773 -0.6073
14566TIP3    H165189   5.749   1.681  15.070 -2.6004 -1.1462 -0.6424
14566TIP3    H265190   5.730   1.815  15.138 -0.7487 -0.9746 -0.4020
14567TIP3   OH265191   2.087   4.642   5.001  0.0169  0.0645 -0.0087
14567TIP3    H165192   2.016   4.706   5.010 -0.5059 -0.6563  1.1795
14567TIP3    H265193   2.157   4.676   5.057  0.3870  0.4412 -0.6816
14568TIP3   OH265194   2.436   6.337   4.492 -0.2059 -0.0608 -0.0268
14568TIP3    H165195   2.382   6.367   4.565  0.4557 -0.1665  0.5138
14568TIP3    H265196   2.374   6.299   4.430 -0.8329  0.5625  0.2091
14569TIP3   OH265197   4.648   1.633   2.955  0.6344 -0.0926 -0.6382
14569TIP3    H165198   4.582   1.698   2.930  1.8249  0.8312 -1.4599
14569TIP3    H265199   4.605   1.549   2.938 -0.5592  0.4725 -0.5396
14570TIP3   OH265200   5.105   6.149  13.310 -0.1126 -0.3350 -0.5325
14570TIP3    H165201   5.125   6.237  13.344  1.4605 -1.2392  1.0281
14570TIP3    H265202   5.010   6.151  13.295  0.0159  1.9345 -1.5503
14571TIP3   OH265203   3.072   4.451   4.840 -0.0508 -0.5770 -0.4321
14571TIP3    H165204   2.982   4.483   4.841 -0.6056 -2.0419 -1.2381
14571TIP3    H265205   3.110   4.488   4.760 -0.1290 -0.5015 -0.4350
14572TIP3   OH265206   0.418   6.073  12.075  0.3558  0.2733  0.3726
14572TIP3    H165207   0.499   6.042  12.115  0.7058  0.0549 -0.4712
14572TIP3    H265208   0.398   6.008  12.008  0.8174  1.5607 -1.0856
14573TIP3   OH265209   0.763   2.668   5.449 -0.0149  0.6799 -0.1694
14573TIP3    H165210   0.809   2.742   5.486 -0.3653  0.2708  1.1440
14573TIP3    H265211   0.744   2.611   5.524 -2.6642  0.8409 -0.5933
14574TIP3   OH265212   5.388   2.931   0.065  0.3461  0.2153 -0.7651
14574TIP3    H165213   5.431   2.873   0.003 -1.9161 -0.7406 -1.5434
14574TIP3    H265214   5.404   2.891   0.151  2.3244  0.7902 -0.8309
14575TIP3   OH265215   5.805   6.690   4.315 -0.2915  0.2191  0.4046
14575TIP3    H165216   5.724   6.647   4.344  0.5219 -1.6169  0.1213
14575TIP3    H265217   5.788   6.714   4.224 -0.6470  0.1914  0.4623
14576TIP3   OH265218   0.203   0.189  15.462  0.0940 -0.5777  0.1264
14576TIP3    H165219   0.112   0.160  15.458  0.8687 -3.5030  0.8694
14576TIP3    H265220   0.219   0.232  15.378 -1.5481 -1.4533 -0.6834
14577TIP3   OH265221   5.689   2.710  10.934  0.0603 -0.0390 -0.5672
14577TIP3    H165222   5.635   2.701  10.856  1.8004 -0.9675 -1.7258
14577TIP3    H265223   5.743   2.631  10.935  1.5003  0.9000  0.4313
14578TIP3   OH265224   4.918   4.932   0.395 -0.8327 -0.1188  0.2212
14578TIP3    H165225   4.983   5.000   0.380  0.0898 -0.7813  1.0666
14578TIP3    H265226   4.848   4.951   0.332  0.4921  0.2103 -1.2174
14579TIP3   OH265227   4.776   0.969   3.230  0.1752 -0.0590 -0.2105
14579TIP3    H165228   4.826   1.050   3.244 -2.8000  1.9112 -0.0673
14579TIP3    H265229   4.777   0.925   3.315  1.0592  0.2855 -0.0338
14580TIP3   OH265230   3.770   6.413  16.600  0.1140  0.0621 -0.7749
14580TIP3    H165231   3.765   6.497  16.555  1.6861  1.4246  1.3715
14580TIP3    H265232   3.701   6.417  16.666 -0.3191 -0.6959 -1.1665
14581TIP3   OH265233   4.606   1.999   0.333 -0.2817  0.2700 -0.5563
14581TIP3    H165234   4.523   1.990   0.379  0.0257 -0.1866 -0.0792
14581TIP3    H265235   4.624   2.093   0.334 -0.9398  0.4068 -0.9368
14582TIP3   OH265236   2.447   4.098  14.855  0.0062  0.6137 -0.0985
14582TIP3    H165237   2.381   4.123  14.791  0.4996 -0.4080 -1.0397
14582TIP3    H265238   2.402   4.038  14.914 -0.0950  0.4780 -0.3122
14583TIP3   OH265239   3.505   3.522  11.594 -0.3607 -0.8831 -0.0467
14583TIP3    H165240   3.438   3.462  11.560 -0.7054 -0.3853 -0.2497
14583TIP3    H265241   3.507   3.506  11.688 -0.4611 -1.2006 -0.0978
14584TIP3   OH265242   0.429   3.145  14.872  0.2867  0.2807  0.1043
14584TIP3    H165243   0.337   3.149  14.846 -0.2081  1.1261  1.8019
14584TIP3    H265244   0.473   3.208  14.815 -0.0109 -0.7264 -1.2809
14585TIP3   OH265245   2.503   0.989  12.273  0.2776 -0.3349 -0.2815
14585TIP3    H165246   2.597   0.989  12.256  0.2782 -0.6796 -0.2985
14585TIP3    H265247   2.496   0.963  12.364  0.1457 -1.8572 -0.6974
14586TIP3   OH265248   5.972   4.072   1.050  0.4532 -0.1409 -0.4256
14586TIP3    H165249   5.929   3.990   1.076 -2.1065  1.3146  0.2412
14586TIP3    H265250   6.005   4.054   0.962  0.1031 -1.9475 -0.2283
14587TIP3   OH265251   4.190   5.506   0.038  0.1313 -0.1664  0.4429
14587TIP3    H165252   4.101   5.471   0.040  0.4883 -1.4266 -2.0649
14587TIP3    H265253   4.179   5.600   0.048 -1.6884 -0.0768 -1.6472
14588TIP3   OH265254   1.047   2.990  11.106 -0.2867  0.2997 -0.4599
14588TIP3    H165255   0.974   2.933  11.128 -0.7927  0.2294 -2.2076
14588TIP3    H265256   1.117   2.964  11.166 -1.2191 -0.6428  0.2371
14589TIP3   OH265257   6.150   2.346   4.410  0.5360 -0.2424 -0.0914
14589TIP3    H165258   6.125   2.381   4.496 -0.7972 -0.7360 -0.2434
14589TIP3    H265259   6.222   2.286   4.429 -1.0293 -1.8979  1.0343
14590TIP3   OH265260   5.870   1.161  11.043  0.3614 -0.4136 -0.1992
14590TIP3    H165261   5.911   1.126  10.964 -1.1768 -0.2882 -1.1018
14590TIP3    H265262   5.781   1.183  11.016 -0.4590 -1.0812  1.7531
14591TIP3   OH265263   3.224   2.425   4.526  0.4147 -0.2420  0.2937
14591TIP3    H165264   3.140   2.382   4.541  0.6370 -0.2930  1.4621
14591TIP3    H265265   3.270   2.418   4.610  0.7793  1.5758  0.2924
14592TIP3   OH265266   5.230   1.680   2.097 -0.5862 -0.2024 -0.4174
14592TIP3    H165267   5.310   1.633   2.073  0.3965  1.0368  0.2828
14592TIP3    H265268   5.197   1.716   2.014  0.4620  0.5774 -0.5116
14593TIP3   OH265269   4.102   4.477  16.379  0.1638  0.3125  0.0859
14593TIP3    H165270   4.117   4.492  16.472  0.6689 -1.6220  0.3690
14593TIP3    H265271   4.025   4.421  16.376  1.6482 -1.8438 -0.4311
14594TIP3   OH265272   4.295   2.275  14.894  0.1280  0.1486  0.2577
14594TIP3    H165273   4.383   2.296  14.862 -0.0056 -0.7791 -0.7729
14594TIP3    H265274   4.303   2.280  14.989  1.3020  0.0515  0.1841
14595TIP3   OH265275   6.762   3.994   4.838 -0.1657  0.2913  0.3319
14595TIP3    H165276   6.717   3.939   4.775 -0.4737 -1.5204  2.0410
14595TIP3    H265277   6.692   4.042   4.883 -0.3320 -1.2420  1.8087
14596TIP3   OH265278   1.336   5.747   0.825  0.1821 -0.0068 -0.6339
14596TIP3    H165279   1.250   5.708   0.805  0.5249 -0.4906 -1.1817
14596TIP3    H265280   1.354   5.718   0.915 -1.1565  1.8110  0.2816
14597TIP3   OH265281   1.839   6.562   3.180  0.6394 -0.1302 -0.2411
14597TIP3    H165282   1.794   6.570   3.095  1.8493 -2.4519 -1.2097
14597TIP3    H265283   1.779   6.510   3.234  1.1463 -1.2837 -0.7589
14598TIP3   OH265284   3.121   0.238  15.502 -0.3601  0.1334  0.0604
14598TIP3    H165285   3.035   0.214  15.465 -1.2392 -1.4864  2.8319
14598TIP3    H265286   3.174   0.159  15.492  0.6047  0.8798 -0.9412
14599TIP3   OH265287   1.216   3.906  15.099 -0.6070  0.3464  0.4659
14599TIP3    H165288   1.192   3.913  15.191  1.3312  1.3221  0.9416
14599TIP3    H265289   1.251   3.992  15.076  0.2883 -0.3224 -0.7848
14600TIP3   OH265290   5.483   6.384  11.255 -0.5673 -0.5274 -0.1434
14600TIP3    H165291   5.516   6.456  11.307 -1.2417  0.4723 -1.0602
14600TIP3    H265292   5.394   6.368  11.289 -0.3987 -0.9858  0.1002
14601TIP3   OH265293   2.769   4.846   2.784  0.2146 -0.1547  0.9988
14601TIP3    H165294   2.848   4.901   2.784  0.1831  0.0027 -1.1816
14601TIP3    H265295   2.800   4.760   2.755 -0.2424 -0.4025  1.2443
14602TIP3   OH265296   5.549   2.490  15.922 -0.8860 -0.0143 -0.4979
14602TIP3    H165297   5.633   2.536  15.916 -1.2504  0.4955 -2.6478
14602TIP3    H265298   5.514   2.515  16.008  1.8913 -1.6805  1.2773
14603TIP3   OH265299   0.624   1.150  14.041  0.0010 -0.2303 -0.4705
14603TIP3    H165300   0.709   1.152  13.996 -0.0355  0.5515 -0.5195
14603TIP3    H265301   0.641   1.104  14.123  0.6970  0.7707 -0.0392
14604TIP3   OH265302   3.439   1.814   1.085 -0.7373  0.2742  0.3647
14604TIP3    H165303   3.525   1.803   1.045 -0.8197 -1.1424  0.5284
14604TIP3    H265304   3.426   1.908   1.089  1.2788  0.5654  1.3093
14605TIP3   OH265305   2.738   3.507   2.633  0.1306  0.4885 -0.2327
14605TIP3    H165306   2.735   3.574   2.701  1.6410 -1.6224  2.0829
14605TIP3    H265307   2.831   3.489   2.621 -0.2247 -1.7910 -0.0582
14606TIP3   OH265308   1.243   3.392  13.858 -0.2502 -0.3732 -0.1423
14606TIP3    H165309   1.197   3.412  13.940  1.2480  0.9280  0.4488
14606TIP3    H265310   1.311   3.460  13.853  0.7089 -1.4088 -1.6530
14607TIP3   OH265311   5.056   2.014   4.560  0.7640  0.2376  0.4993
14607TIP3    H165312   5.033   2.106   4.557  2.0049  0.5632 -1.4572
14607TIP3    H265313   5.097   2.001   4.645 -0.3215  1.2458  1.1887
14608TIP3   OH265314   2.994   4.102  10.463  0.1327  0.3815  0.3473
14608TIP3    H165315   3.063   4.114  10.528  0.2718 -0.0046  0.2774
14608TIP3    H265316   3.019   4.022  10.416  2.0800  2.5889 -2.7476
14609TIP3   OH265317   1.799   6.769  10.408  0.0343 -0.6108 -0.9572
14609TIP3    H165318   1.716   6.773  10.455  0.2550 -0.1445 -0.5992
14609TIP3    H265319   1.775   6.741  10.320 -0.6623  0.6278 -1.1950
14610TIP3   OH265320   5.904   0.991   0.515 -0.0653  0.0700 -0.1663
14610TIP3    H165321   5.875   1.078   0.545  0.3914 -0.5533  2.3416
14610TIP3    H265322   5.860   0.930   0.575  3.6427 -1.1095  1.6168
14611TIP3   OH265323   3.325   5.039   1.977 -0.0082  0.0211  0.0125
14611TIP3    H165324   3.334   5.129   2.009  0.8502  0.5963 -1.7129
14611TIP3    H265325   3.415   5.005   1.977 -0.1548 -0.3756 -0.5767
14612TIP3   OH265326   0.048   5.582   0.134  1.0230  0.0409 -0.0911
14612TIP3    H165327  -0.044   5.597   0.114  0.7847  1.0075  1.5677
14612TIP3    H265328   0.079   5.525   0.063 -1.1424 -1.3429 -0.0074
14613TIP3   OH265329   4.813   1.289  11.969  0.5608 -0.1774  0.0747
14613TIP3    H165330   4.753   1.360  11.947  0.2199 -0.5369 -0.1580
14613TIP3    H265331   4.858   1.269  11.887  2.2080  1.1878  0.5651
14614TIP3   OH265332   1.241   4.202   6.176 -0.4278 -0.7246 -0.6711
14614TIP3    H165333   1.147   4.193   6.196  0.0963 -0.8194  2.2247
14614TIP3    H265334   1.266   4.285   6.218  1.0548 -1.4333 -0.0800
14615TIP3   OH265335   5.426   1.239   0.251 -0.5240 -0.8141 -0.6943
14615TIP3    H165336   5.366   1.217   0.322  1.5607  0.5238  1.6680
14615TIP3    H265337   5.475   1.159   0.234 -0.0770 -0.8125  0.4613
14616TIP3   OH265338   3.653   4.783  15.042 -0.6387  0.0182 -0.5247
14616TIP3    H165339   3.696   4.714  14.991  0.8341  1.2149 -0.9910
14616TIP3    H265340   3.561   4.778  15.017 -0.8116 -2.4423  0.2626
14617TIP3   OH265341   4.285   4.014   1.328 -0.1777  0.2827  0.4330
14617TIP3    H165342   4.237   3.932   1.319 -0.2469  0.0205  2.7244
14617TIP3    H265343   4.241   4.061   1.398  1.0266  1.4369  0.4646
14618TIP3   OH265344   3.003   0.855  16.765  0.0131  0.4088 -0.4880
14618TIP3    H165345   2.909   0.876  16.769  0.0271  0.7184 -1.4209
14618TIP3    H265346   3.033   0.861  16.855 -0.5305  1.8835 -0.3826
14619TIP3   OH265347   3.961   6.566  12.268  0.1906 -0.1849  0.3077
14619TIP3    H165348   3.996   6.503  12.331  0.0596  0.0025  0.5699
14619TIP3    H265349   3.867   6.547  12.266  0.1700 -0.0789  0.2942
14620TIP3   OH265350   5.858   4.163   2.320  0.3405 -0.1896  0.2763
14620TIP3    H165351   5.952   4.178   2.329 -0.0681  1.4642  2.8800
14620TIP3    H265352   5.830   4.224   2.253  0.8710  0.7099  0.8469
14621TIP3   OH265353   5.012   0.121  13.044  0.0399 -0.4414  0.1604
14621TIP3    H165354   4.926   0.163  13.041  0.5698  0.6383 -0.8591
14621TIP3    H265355   5.000   0.037  13.001 -0.5408 -0.3554  0.1544
14622TIP3   OH265356   5.116   3.579  13.616 -0.0665 -0.0589 -0.0264
14622TIP3    H165357   5.120   3.619  13.703 -0.4273  1.7950 -0.8086
14622TIP3    H265358   5.023   3.578  13.594  0.0342 -0.3457 -0.4642
14623TIP3   OH265359   4.447   2.402  14.490  0.2062 -0.1583  0.0272
14623TIP3    H165360   4.380   2.470  14.490  0.7351  0.4762  2.6928
14623TIP3    H265361   4.400   2.321  14.511 -0.0717 -0.2123 -0.7606
14624TIP3   OH265362   0.703   5.030  12.059 -0.0523  0.0940  0.0507
14624TIP3    H165363   0.754   4.985  11.992  1.9012 -2.4999  2.9887
14624TIP3    H265364   0.741   5.117  12.063  0.9280 -0.2560 -1.0528
14625TIP3   OH265365   3.691   5.304  11.771 -0.2926 -0.6164 -0.1481
14625TIP3    H165366   3.727   5.222  11.805  0.7893  0.3155  1.0995
14625TIP3    H265367   3.746   5.324  11.695 -1.1504 -1.4792 -1.0254
14626TIP3   OH265368   3.635   1.768   0.887  0.0387  0.1121  0.0818
14626TIP3    H165369   3.594   1.733   0.808 -0.0727 -0.3561  0.3468
14626TIP3    H265370   3.720   1.725   0.890 -0.2939 -0.5139  0.6752
14627TIP3   OH265371   6.296   4.789  17.225  0.3807  0.0183 -0.5760
14627TIP3    H165372   6.255   4.709  17.193  0.0599  0.5957 -1.6408
14627TIP3    H265373   6.387   4.782  17.197  0.0513  0.6242 -1.8557
14628TIP3   OH265374   6.123   2.952   6.126  0.2930 -0.5503 -0.9651
14628TIP3    H165375   6.091   2.906   6.203  0.5893  0.5733 -0.1515
14628TIP3    H265376   6.044   2.984   6.082  0.1735  0.0279 -0.3431
14629TIP3   OH265377   4.775   1.114   4.029 -0.9855 -0.3313 -0.3145
14629TIP3    H165378   4.771   1.120   3.934  1.9138  0.0798 -0.4941
14629TIP3    H265379   4.824   1.034   4.047 -2.2600 -0.8917  0.9088
14630TIP3   OH265380   4.425   1.341  14.779  0.1486 -0.4521 -0.2567
14630TIP3    H165381   4.388   1.429  14.784  1.9434  0.4310 -1.3777
14630TIP3    H265382   4.376   1.298  14.709 -1.1531 -0.6097  0.7064
14631TIP3   OH265383   4.555   3.795  11.159 -0.2679 -0.2552  0.2999
14631TIP3    H165384   4.557   3.784  11.064 -0.9561 -0.8147  0.3376
14631TIP3    H265385   4.571   3.888  11.174  3.0162 -0.6385 -0.1954
14632TIP3   OH265386   3.232   6.072  13.749 -0.5512 -0.4052  0.1866
14632TIP3    H165387   3.284   6.023  13.812  1.5592 -0.1678 -1.2859
14632TIP3    H265388   3.236   6.162  13.780  1.4361 -0.0985 -0.8067
14633TIP3   OH265389   2.211   6.486  13.826 -0.3062 -0.0583  0.2906
14633TIP3    H165390   2.273   6.471  13.755  0.4790  1.3201  0.6318
14633TIP3    H265391   2.189   6.399  13.859 -0.7445 -0.7188 -1.6681
14634TIP3   OH265392   3.457   5.412   2.881 -0.0152 -0.6714  0.7579
14634TIP3    H165393   3.491   5.360   2.953  0.3597  0.9504  1.7947
14634TIP3    H265394   3.534   5.436   2.829 -0.0200 -0.0195  1.0518
14635TIP3   OH265395   5.585   1.163  12.571 -0.3134  0.5562  1.2329
14635TIP3    H165396   5.584   1.133  12.480 -1.2399  1.1620  1.0247
14635TIP3    H265397   5.493   1.160  12.598  0.0292 -0.2546  2.3687
14636TIP3   OH265398   0.177   0.841   1.362 -0.0125  0.4297  0.3232
14636TIP3    H165399   0.272   0.828   1.365 -0.1875 -0.9609  0.5289
14636TIP3    H265400   0.145   0.801   1.443 -0.7922  0.7564  0.1825
14637TIP3   OH265401   5.239   6.076  13.925  0.3825 -0.3602 -0.0070
14637TIP3    H165402   5.227   6.044  13.836  1.6041  0.5155 -0.5192
14637TIP3    H265403   5.303   6.015  13.964 -1.8677 -2.1586  1.1105
14638TIP3   OH265404   2.460   6.586   5.804 -0.4357 -0.1141 -0.1356
14638TIP3    H165405   2.414   6.665   5.773 -1.5890  0.0311  1.7512
14638TIP3    H265406   2.553   6.606   5.791 -0.7704  0.8603 -1.2468
14639TIP3   OH265407   3.268   4.331   1.259 -0.6998  0.4897 -0.0112
14639TIP3    H165408   3.332   4.265   1.233  1.9502  2.7063  0.4394
14639TIP3    H265409   3.220   4.291   1.331 -0.1740 -1.4416 -0.6668
14640TIP3   OH265410   0.149   6.688  15.906  0.0283 -0.3092 -0.6954
14640TIP3    H165411   0.178   6.738  15.830  0.8406 -0.4728 -0.5058
14640TIP3    H265412   0.127   6.755  15.971 -1.4725 -0.1439 -1.3319
14641TIP3   OH265413   4.923   3.801  14.917 -0.1358  0.1888 -0.1057
14641TIP3    H165414   4.936   3.885  14.962 -3.0858  0.7603 -0.1044
14641TIP3    H265415   4.996   3.747  14.947  0.3172  1.8635  2.1534
14642TIP3   OH265416   6.008   3.647   3.672 -0.0386 -0.3802  0.0110
14642TIP3    H165417   6.029   3.601   3.591  0.5534 -1.2879  0.6568
14642TIP3    H265418   5.944   3.592   3.716 -0.0444 -0.1098  0.3505
14643TIP3   OH265419   2.775   1.894  11.235 -0.5060  0.6263  0.2023
14643TIP3    H165420   2.804   1.986  11.229  1.3303  0.0273 -0.8637
14643TIP3    H265421   2.815   1.852  11.159 -1.7926 -0.9585  0.3668
14644TIP3   OH265422   0.784   0.073   5.757 -0.6313 -0.3420 -0.5532
14644TIP3    H165423   0.740   0.068   5.842  0.5258 -1.2285  0.0234
14644TIP3    H265424   0.873   0.041   5.774 -0.2330 -0.0966 -2.0093
14645TIP3   OH265425   0.770   3.058   0.392 -0.5179 -0.4745  0.2198
14645TIP3    H165426   0.722   3.120   0.447  0.4732  2.1814 -1.7155
14645TIP3    H265427   0.705   3.022   0.332 -0.8622 -0.2578  0.4676
14646TIP3   OH265428   2.134   2.854  12.945 -0.1104  0.3847 -0.2798
14646TIP3    H165429   2.050   2.821  12.976  0.4280  0.0363  0.8341
14646TIP3    H265430   2.157   2.796  12.873  0.2124 -0.9045  0.8279
14647TIP3   OH265431   2.173   4.705  15.879  0.1231 -0.4727 -0.1101
14647TIP3    H165432   2.169   4.743  15.966  2.9856  2.1745 -0.9325
14647TIP3    H265433   2.100   4.745  15.832  0.6168  0.8683  0.2040
14648TIP3   OH265434   5.159   4.205  13.160  0.4356 -0.0498  0.3981
14648TIP3    H165435   5.130   4.273  13.221  1.0941 -0.2960  1.0007
14648TIP3    H265436   5.232   4.245  13.112 -0.3184  0.2755 -0.5200
14649TIP3   OH265437   5.140   2.902   1.953 -0.2167  0.4712 -0.2451
14649TIP3    H165438   5.069   2.883   2.015  1.4302 -0.7432  1.3938
14649TIP3    H265439   5.120   2.989   1.919 -1.3206  1.1142  1.8649
14650TIP3   OH265440   2.622   5.241   3.226  0.2661 -0.4455 -1.0898
14650TIP3    H165441   2.664   5.218   3.143  0.0365 -1.0449 -1.0414
14650TIP3    H265442   2.693   5.239   3.290  1.2636  3.5127 -1.7850
14651TIP3   OH265443   5.909   5.183   0.084 -0.1925 -0.0791  0.0782
14651TIP3    H165444   5.832   5.204   0.031  1.1947  0.5294 -1.8282
14651TIP3    H265445   5.960   5.124   0.028  1.3910  0.6803  0.6744
14652TIP3   OH265446   4.903   1.999   0.692  0.1973  0.1569  0.2373
14652TIP3    H165447   4.995   1.998   0.667  0.5747  1.2564  1.5279
14652TIP3    H265448   4.859   1.951   0.621  1.6093  0.5042 -0.9169
14653TIP3   OH265449   0.768   0.736   1.274 -0.0512 -0.3859 -0.0682
14653TIP3    H165450   0.800   0.763   1.188 -1.4116 -1.9272 -1.1294
14653TIP3    H265451   0.846   0.715   1.324  0.7144 -0.8526 -1.4205
14654TIP3   OH265452   3.472   0.669  17.298 -0.2892  0.4523  0.1954
14654TIP3    H165453   3.479   0.688  17.391 -0.5784 -1.2674  0.6066
14654TIP3    H265454   3.510   0.745  17.254  1.3673  0.5719  1.7590
14655TIP3   OH265455   6.706   2.550  16.241 -0.0893 -0.5472  0.3094
14655TIP3    H165456   6.784   2.516  16.286 -0.8931  0.9241  3.0558
14655TIP3    H265457   6.727   2.642  16.223 -0.9355 -0.3211  0.4363
14656TIP3   OH265458   0.280   0.586  15.883  0.5120  0.5057  0.1284
14656TIP3    H165459   0.221   0.512  15.891 -0.9746  1.8743  3.4048
14656TIP3    H265460   0.364   0.554  15.917 -0.0134  0.1997  1.1567
14657TIP3   OH265461   0.698   3.975   2.867  0.1039 -1.2953  0.8920
14657TIP3    H165462   0.666   3.893   2.904  1.7701 -1.5215  1.9457
14657TIP3    H265463   0.753   4.012   2.935 -0.4912  0.6476  0.3657
14658TIP3   OH265464   5.872   2.363  12.800  0.6749 -0.0214 -0.3083
14658TIP3    H165465   5.844   2.439  12.749  1.4739  0.6409  0.2133
14658TIP3    H265466   5.839   2.380  12.888 -0.6864 -1.1526 -0.5750
14659TIP3   OH265467   2.220   6.682   1.806  0.7724 -0.8974  0.2453
14659TIP3    H165468   2.139   6.717   1.844  1.6263  0.8993  0.5272
14659TIP3    H265469   2.230   6.596   1.847 -0.5123 -0.7708  0.8941
14660TIP3   OH265470   2.318   0.794  14.071 -0.2176  0.1673 -0.5432
14660TIP3    H165471   2.262   0.778  14.147  0.2135  2.3287  0.2913
14660TIP3    H265472   2.274   0.864  14.023  0.3327 -0.0830 -1.4215
14661TIP3   OH265473   4.020   0.022   3.906  0.0325 -0.3703  0.1303
14661TIP3    H165474   4.111  -0.003   3.895 -0.2338 -0.4560 -2.9961
14661TIP3    H265475   3.972  -0.061   3.910 -0.0195 -0.3381  0.1756
14662TIP3   OH265476   4.912   4.289  12.212  0.0281  0.4535  0.1731
14662TIP3    H165477   4.852   4.342  12.160 -2.1990 -1.2853  0.8300
14662TIP3    H265478   4.874   4.289  12.300  1.5035  0.0277  0.8343
14663TIP3   OH265479   0.505   0.257   2.317 -0.4130  0.6511 -0.2076
14663TIP3    H165480   0.563   0.330   2.340  1.8788 -0.6186 -1.6168
14663TIP3    H265481   0.504   0.202   2.394 -1.4013  1.6498  0.5287
14664TIP3   OH265482   4.087   5.470   4.639  0.5840 -0.1822 -0.5045
14664TIP3    H165483   4.074   5.564   4.626  0.6749 -0.1453 -0.3287
14664TIP3    H265484   4.110   5.462   4.731  0.5451 -0.3805 -0.5129
14665TIP3   OH265485   5.414   2.767   0.978 -0.3087  0.6634  0.5486
14665TIP3    H165486   5.485   2.773   1.042  1.2263 -1.8197 -0.7527
14665TIP3    H265487   5.429   2.840   0.918  1.3509  0.0352  0.1488
14666TIP3   OH265488   3.966   1.068  14.126  0.2976 -0.3562  0.2561
14666TIP3    H165489   4.056   1.056  14.097  0.2321 -0.0988 -0.0700
14666TIP3    H265490   3.928   1.128  14.061  0.6508  1.7151  1.8768
14667TIP3   OH265491   5.077   5.219   5.102 -0.1487  0.3032  0.4811
14667TIP3    H165492   5.015   5.255   5.166  0.7631 -0.3356  1.7724
14667TIP3    H265493   5.162   5.251   5.131  0.3860 -0.7909  0.1568
14668TIP3   OH265494   6.641   3.586   2.916  0.3720 -0.1556  0.1578
14668TIP3    H165495   6.628   3.492   2.913 -1.1828  0.0212  0.5462
14668TIP3    H265496   6.579   3.621   2.852  1.4906  0.5724 -0.5614
14669TIP3   OH265497   1.288   5.037  15.509  0.5854 -0.1000 -0.3811
14669TIP3    H165498   1.272   4.943  15.512  2.0854 -0.3807 -0.2524
14669TIP3    H265499   1.208   5.074  15.471  0.0746 -1.4367 -0.6731
14670TIP3   OH265500   2.044   6.534   4.899 -0.2810  0.9457  0.1039
14670TIP3    H165501   2.071   6.603   4.959 -0.4868  0.7088  0.4660
14670TIP3    H265502   1.967   6.495   4.939  1.6172 -1.6027  1.5354
14671TIP3   OH265503   5.609   1.796   4.543 -0.1926 -0.3869 -0.3941
14671TIP3    H165504   5.526   1.845   4.538 -0.0326 -0.1159 -0.4341
14671TIP3    H265505   5.677   1.864   4.542 -0.0128 -0.4890  1.4827
14672TIP3   OH265506   3.031   0.708   4.197 -0.9477  0.3651  0.1034
14672TIP3    H165507   3.124   0.719   4.216 -0.8354  1.3309 -0.8861
14672TIP3    H265508   2.987   0.768   4.256 -0.8733  0.5699 -0.0473
14673TIP3   OH265509   6.547   3.770   4.236  0.3159  0.0176  0.3957
14673TIP3    H165510   6.634   3.775   4.277  0.6738  0.7138 -0.4157
14673TIP3    H265511   6.551   3.832   4.163 -0.0844 -1.5790 -1.0743
14674TIP3   OH265512   5.911   6.441  15.950  0.3626  0.1277  0.1644
14674TIP3    H165513   5.822   6.444  15.916  0.8277  1.8549 -1.0086
14674TIP3    H265514   5.922   6.350  15.979 -1.0649 -0.6895 -1.6368
14675TIP3   OH265515   1.912   4.601   3.041 -0.1777  0.2677  0.3527
14675TIP3    H165516   2.001   4.635   3.034  0.2026 -0.0494  2.8374
14675TIP3    H265517   1.863   4.648   2.973  1.2232  2.6492  0.8942
14676TIP3   OH265518   6.191   1.405   1.536  0.6626 -0.1342 -0.2719
14676TIP3    H165519   6.244   1.367   1.466 -0.4552  0.0276 -1.2275
14676TIP3    H265520   6.166   1.491   1.502 -1.1429 -0.6509 -0.3414
14677TIP3   OH265521   4.844   3.086  15.805  0.3358  1.2119 -0.2547
14677TIP3    H165522   4.921   3.095  15.748 -0.3665  1.8414 -1.1287
14677TIP3    H265523   4.772   3.122  15.754 -0.3761  1.5183  0.9242
14678TIP3   OH265524   0.538   4.782  15.557  0.1316 -0.0711 -0.0616
14678TIP3    H165525   0.448   4.810  15.542  0.2652  0.7233  0.6038
14678TIP3    H265526   0.591   4.853  15.523  0.5155 -0.5533 -0.4814
14679TIP3   OH265527   0.621   2.660   3.178 -0.1787 -0.5706  0.1875
14679TIP3    H165528   0.706   2.617   3.186  0.1410 -0.1136 -0.5587
14679TIP3    H265529   0.643   2.753   3.167 -0.6464 -0.6777 -2.0905
14680TIP3   OH265530   3.916   1.927  12.169 -0.2793 -0.0180 -0.2360
14680TIP3    H165531   3.935   1.888  12.084  2.4436  1.7190 -0.5437
14680TIP3    H265532   3.883   1.855  12.222  1.2456 -1.9482 -1.7597
14681TIP3   OH265533   4.483   2.015  15.985 -0.0805  0.0484 -0.0427
14681TIP3    H165534   4.504   1.931  15.943  2.5239  0.5360  0.1431
14681TIP3    H265535   4.458   1.992  16.074 -0.5234 -0.6003 -0.3255
14682TIP3   OH265536   0.201   1.445  13.798  0.5471 -0.0076 -0.1298
14682TIP3    H165537   0.277   1.388  13.788  0.9906  0.3599  0.9784
14682TIP3    H265538   0.131   1.400  13.752  0.9505 -1.3130  0.4864
14683TIP3   OH265539   1.474   1.354   5.686  0.6430 -0.4058 -0.6506
14683TIP3    H165540   1.515   1.285   5.633  2.3339 -0.4515  0.6048
14683TIP3    H265541   1.485   1.434   5.635  1.8348 -0.5237 -0.6145
14684TIP3   OH265542   6.049   5.477  13.920 -0.2787  0.1444 -0.6262
14684TIP3    H165543   6.115   5.478  13.990  1.7582 -2.5539 -2.2802
14684TIP3    H265544   6.084   5.535  13.853 -0.3861 -0.0786 -0.8764
14685TIP3   OH265545   6.254   1.809  15.527  0.0541 -0.5257  0.8953
14685TIP3    H165546   6.164   1.820  15.495 -0.1348  0.6234  1.7758
14685TIP3    H265547   6.246   1.808  15.622  0.6739 -3.2824  1.0203
14686TIP3   OH265548   6.660   0.339  16.328  0.5103  0.3332 -0.4805
14686TIP3    H165549   6.629   0.427  16.307  0.2134  0.5837  0.9314
14686TIP3    H265550   6.754   0.347  16.337  0.3898  0.7093  0.5319
14687TIP3   OH265551   5.674   2.612  15.185 -0.5037 -0.2354 -0.0635
14687TIP3    H165552   5.655   2.687  15.128 -1.4577 -0.1385  0.3668
14687TIP3    H265553   5.770   2.611  15.192 -0.2784 -0.6983 -2.2671
14688TIP3   OH265554   4.378   1.337  16.982 -0.4629  0.2928 -0.5239
14688TIP3    H165555   4.340   1.421  17.006  2.2841  1.1318  1.3640
14688TIP3    H265556   4.468   1.358  16.957  0.5127 -2.1041  0.6435
14689TIP3   OH265557   6.710   1.942  16.458  0.4329 -0.2531  0.0218
14689TIP3    H165558   6.697   1.848  16.451  2.1327 -0.3871 -2.4608
14689TIP3    H265559   6.718   1.958  16.553  0.3952 -2.6107  0.4747
14690TIP3   OH265560   0.959   2.107  14.906  0.1534  0.1412 -0.0464
14690TIP3    H165561   1.035   2.164  14.891 -0.4609  1.0203  0.1081
14690TIP3    H265562   0.885   2.167  14.916 -0.9004 -0.7220 -2.0164
14691TIP3   OH265563   6.115   5.264   0.454  0.0750  0.2088 -0.3526
14691TIP3    H165564   6.095   5.220   0.537  0.6856  0.4762 -0.0623
14691TIP3    H265565   6.113   5.357   0.476 -0.0848  0.2919 -0.7154
14692TIP3   OH265566   5.639   3.877   5.170  0.1980 -0.0361 -0.0721
14692TIP3    H165567   5.572   3.816   5.137  1.0709 -0.4458 -1.1467
14692TIP3    H265568   5.714   3.862   5.113  0.3736  2.1999 -0.5099
14693TIP3   OH265569   2.186   2.653  17.023  0.0060 -0.0081 -0.2033
14693TIP3    H165570   2.241   2.649  16.945  0.3433 -1.6244  0.0633
14693TIP3    H265571   2.173   2.561  17.047 -0.3619  0.4391  1.4495
14694TIP3   OH265572   4.678   2.786   1.925 -0.1446 -0.3032  0.1966
14694TIP3    H165573   4.734   2.740   1.863 -0.4848  0.8289 -0.9902
14694TIP3    H265574   4.725   2.868   1.944 -1.7995  1.1577 -1.6318
14695TIP3   OH265575   3.945   6.760   6.319 -0.2821 -0.0127 -0.6974
14695TIP3    H165576   4.010   6.696   6.291 -2.0119 -2.1450 -0.1891
14695TIP3    H265577   3.933   6.818   6.244  0.2727 -1.2256 -1.7552
14696TIP3   OH265578   0.547   2.956   2.512 -0.5359  0.5453  0.1300
14696TIP3    H165579   0.613   2.916   2.569 -0.7958  0.0278  0.0779
14696TIP3    H265580   0.592   3.029   2.470  0.2010 -0.1867 -0.3987
14697TIP3   OH265581   4.134   0.010  11.382  0.3402  0.0114  0.2424
14697TIP3    H165582   4.066   0.007  11.315  1.7623 -0.6570 -1.2229
14697TIP3    H265583   4.206  -0.041  11.346  1.2941 -0.0685  2.1441
14698TIP3   OH265584   4.459   0.295   4.907 -0.0482 -0.4806  0.4877
14698TIP3    H165585   4.416   0.330   4.829 -0.3520 -1.1563  0.3467
14698TIP3    H265586   4.493   0.210   4.880  3.4083  0.9295 -0.0833
14699TIP3   OH265587   0.601   5.374  16.941  0.2025  0.2144 -0.0997
14699TIP3    H165588   0.638   5.295  16.902  1.4765  0.5357  0.4072
14699TIP3    H265589   0.591   5.353  17.034 -0.1498  0.3982 -0.0957
14700TIP3   OH265590   5.810   3.288   1.429 -0.1935 -0.0802 -0.1969
14700TIP3    H165591   5.783   3.370   1.471 -1.9954 -0.5102 -0.4247
14700TIP3    H265592   5.886   3.260   1.479  1.9700  2.8581 -1.5408
14701TIP3   OH265593   6.558   5.710   5.627  0.0620  0.1847 -0.8928
14701TIP3    H165594   6.493   5.659   5.674 -0.2263  1.6069  0.3345
14701TIP3    H265595   6.515   5.734   5.545 -0.1785 -0.6308 -1.0108
14702TIP3   OH265596   2.465   0.691  13.284 -0.4308  0.1512  0.1705
14702TIP3    H165597   2.402   0.730  13.223 -0.3367 -0.7943 -0.5569
14702TIP3    H265598   2.414   0.626  13.332 -0.5341  0.9793  1.2099
14703TIP3   OH265599   0.552   2.763   4.024 -0.1820 -0.4030  0.1186
14703TIP3    H165600   0.543   2.753   3.930 -0.5421 -0.6450  0.1769
14703TIP3    H265601   0.607   2.841   4.035 -1.7433  0.8129 -0.2717
14704TIP3   OH265602   6.153   1.140  17.152  0.0675 -0.5640  0.3176
14704TIP3    H165603   6.074   1.085  17.150 -1.1188  1.0779 -0.6946
14704TIP3    H265604   6.192   1.129  17.065 -1.3164  1.6236 -0.6936
14705TIP3   OH265605   2.157   5.765   6.033 -0.0877  0.0896 -0.2048
14705TIP3    H165606   2.153   5.816   5.953  0.0116 -0.2233 -0.4120
14705TIP3    H265607   2.104   5.687   6.014 -1.7738  0.9339  0.7132
14706TIP3   OH265608   6.685   2.493   5.484  0.0533 -0.4203 -0.5850
14706TIP3    H165609   6.780   2.498   5.499  0.2939 -1.4042 -1.5544
14706TIP3    H265610   6.666   2.565   5.424  0.4138 -0.8984 -1.2921
14707TIP3   OH265611   1.923   1.074   3.351  0.2217  0.2297  0.0120
14707TIP3    H165612   1.990   1.006   3.347  1.1134  1.0523  0.5864
14707TIP3    H265613   1.970   1.155   3.334 -0.5452  0.8587  0.8137
14708TIP3   OH265614   1.955   4.820  14.496  0.4357  0.1289  0.2623
14708TIP3    H165615   1.880   4.878  14.488  0.2346 -0.2536 -0.8233
14708TIP3    H265616   2.022   4.872  14.540 -0.0436  0.8683  0.1242
14709TIP3   OH265617   1.571   5.850   5.035 -0.4242 -0.5194 -0.6085
14709TIP3    H165618   1.546   5.848   5.127 -0.5027  0.0196 -0.6120
14709TIP3    H265619   1.587   5.943   5.017  2.8388 -0.8835 -0.2662
14710TIP3   OH265620   3.715   4.395   4.518 -0.3898 -0.1671  0.6411
14710TIP3    H165621   3.630   4.433   4.496 -2.0094 -2.8644  1.7061
14710TIP3    H265622   3.749   4.363   4.434 -1.6760 -1.3060  0.5124
14711TIP3   OH265623   6.178   1.035   0.487 -0.1847 -0.4864 -0.1656
14711TIP3    H165624   6.101   0.979   0.479 -0.1092 -0.6059 -0.0610
14711TIP3    H265625   6.251   0.981   0.456 -0.5465  0.6552 -3.3715
14712TIP3   OH265626   6.384   3.835   4.680  0.1346  0.1135 -0.2556
14712TIP3    H165627   6.379   3.741   4.662  0.2163 -0.1468  1.0118
14712TIP3    H265628   6.320   3.850   4.750  0.1872  0.9849 -0.3797
14713TIP3   OH265629   5.066   2.255   0.203  0.6845 -0.3129  0.1139
14713TIP3    H165630   5.103   2.191   0.143  0.8066 -0.9593  0.8511
14713TIP3    H265631   4.994   2.208   0.245  0.1552  0.3602 -0.0425
14714TIP3   OH265632   4.579   4.344   3.606  0.3690  0.5460 -0.1156
14714TIP3    H165633   4.546   4.432   3.628  0.1966  0.0654  1.7426
14714TIP3    H265634   4.512   4.285   3.641  0.4531 -0.3355 -1.4039
14715TIP3   OH265635   2.576   5.798   3.275  0.5585  0.3354  0.1531
14715TIP3    H165636   2.555   5.889   3.297  1.3181  0.5836 -0.1116
14715TIP3    H265637   2.566   5.751   3.357 -2.0589  0.2170 -0.1555
14716TIP3   OH265638   4.543   1.619   0.511 -0.3415  0.0903 -0.0738
14716TIP3    H165639   4.553   1.658   0.598 -1.1868 -0.8534  0.4678
14716TIP3    H265640   4.628   1.633   0.469  0.4644 -0.3904  1.3101
14717TIP3   OH265641   2.994   4.571  12.691  0.3638 -0.1770 -0.3904
14717TIP3    H165642   2.956   4.535  12.771  0.2521  1.2064  0.2080
14717TIP3    H265643   2.954   4.520  12.621  0.0594 -1.0579  0.4068
14718TIP3   OH265644   1.007   3.174   0.153 -0.2000 -0.1163 -0.0487
14718TIP3    H165645   1.027   3.205   0.241  0.0631 -2.0915  0.6353
14718TIP3    H265646   1.092   3.166   0.109  0.0419 -2.4958  0.7451
14719TIP3   OH265647   5.507   3.283   3.487 -0.5898  0.1902 -0.3709
14719TIP3    H165648   5.601   3.286   3.501 -0.4226  0.0165 -1.3615
14719TIP3    H265649   5.485   3.190   3.486 -0.9811  0.2475  1.0567
14720TIP3   OH265650   0.916   4.877   1.810  0.7544  0.1104  0.6214
14720TIP3    H165651   0.848   4.889   1.876  1.2560  1.2235  0.9773
14720TIP3    H265652   0.997   4.868   1.861  1.0698  0.3818  0.1755
14721TIP3   OH265653   0.663   2.293   1.390  0.8591  0.2894 -0.7403
14721TIP3    H165654   0.713   2.212   1.380  0.4650 -0.1670  0.7427
14721TIP3    H265655   0.576   2.264   1.419  0.8831  1.2458  0.3649
14722TIP3   OH265656   1.227   2.778  13.204 -0.0392  0.2921 -0.9469
14722TIP3    H165657   1.283   2.773  13.281 -0.9833 -0.0176 -0.2703
14722TIP3    H265658   1.226   2.871  13.182  0.8768  0.2816 -1.0841
14723TIP3   OH265659   1.889   3.747   4.983  0.2089 -0.4546 -0.4954
14723TIP3    H165660   1.974   3.727   5.023  0.4214  0.8230 -0.2766
14723TIP3    H265661   1.826   3.741   5.055  0.2551 -0.4462 -0.4545
14724TIP3   OH265662   2.170   0.926   1.742  0.6710 -0.3195 -0.1422
14724TIP3    H165663   2.122   0.874   1.806  0.5841 -0.2868 -0.1805
14724TIP3    H265664   2.143   1.016   1.760 -0.3135 -0.4266 -1.0432
14725TIP3   OH265665   3.148   6.457  16.477  0.1495  0.4650 -0.0195
14725TIP3    H165666   3.232   6.471  16.523  0.9865 -1.8755 -0.6845
14725TIP3    H265667   3.093   6.413  16.542  0.7293 -1.2447 -0.6201
14726TIP3   OH265668   1.568   6.645   5.206  0.1180 -0.3072 -0.2379
14726TIP3    H165669   1.522   6.659   5.288 -0.8195  0.1911 -0.8434
14726TIP3    H265670   1.659   6.669   5.225 -0.0109 -0.5566  0.7459
14727TIP3   OH265671   3.027   1.249  12.913  0.7765 -0.0058 -0.1170
14727TIP3    H165672   3.092   1.178  12.904  2.2523  1.2444  0.2307
14727TIP3    H265673   2.979   1.226  12.993 -0.1271 -1.6163 -1.0578
14728TIP3   OH265674   5.160   0.903  13.794 -0.0544 -0.0832  1.1322
14728TIP3    H165675   5.210   0.903  13.712 -0.7796  0.2793  0.6772
14728TIP3    H265676   5.212   0.957  13.853 -1.0444  2.3854 -0.0965
14729TIP3   OH265677   1.846   0.204  10.864  0.0122 -0.4472  0.2222
14729TIP3    H165678   1.803   0.153  10.934  2.1206 -2.1679  0.3707
14729TIP3    H265679   1.791   0.189  10.787 -1.6475  0.4426  1.1781
14730TIP3   OH265680   1.452   2.461   3.372  0.2568  0.2092  0.0588
14730TIP3    H165681   1.369   2.413   3.367 -0.9508  2.3521 -2.7336
14730TIP3    H265682   1.448   2.524   3.301  3.4770  1.7756  1.0823
14731TIP3   OH265683   3.815   3.695   3.314  0.0115 -0.1966 -0.2342
14731TIP3    H165684   3.884   3.680   3.379  0.0465 -2.3505 -0.7049
14731TIP3    H265685   3.858   3.746   3.245  1.4121 -2.0779 -0.8501
14732TIP3   OH265686   4.643   0.901  15.919  0.2842 -0.6733  0.1247
14732TIP3    H165687   4.590   0.977  15.897 -0.3816 -1.2428 -0.2479
14732TIP3    H265688   4.732   0.936  15.928 -0.1165  0.2645  0.6305
14733TIP3   OH265689   1.852   1.907  13.097  0.1269 -0.6463  0.5287
14733TIP3    H165690   1.820   1.989  13.060 -0.7057 -1.4438 -0.5765
14733TIP3    H265691   1.797   1.840  13.058 -0.9409 -1.5579  3.3646
14734TIP3   OH265692   5.426   4.502  13.782  0.2811 -0.1292 -0.0479
14734TIP3    H165693   5.467   4.532  13.701  1.5547 -0.4407  0.4570
14734TIP3    H265694   5.341   4.546  13.784 -0.1608 -0.8216 -1.9776
14735TIP3   OH265695   4.119   3.327  13.997  0.2025  0.1507  0.0241
14735TIP3    H165696   4.092   3.408  13.953  1.3661  0.8141  0.4562
14735TIP3    H265697   4.068   3.258  13.955  0.5967  0.8701 -1.7262
14736TIP3   OH265698   3.699   2.347  13.041 -0.7291 -0.1859  0.0421
14736TIP3    H165699   3.737   2.333  13.128  2.1393  2.4862 -0.5974
14736TIP3    H265700   3.630   2.411  13.055  0.0015  0.5521  0.3354
14737TIP3   OH265701   3.262   3.842   3.506 -0.2255 -0.3482  0.3390
14737TIP3    H165702   3.192   3.842   3.441 -0.6065 -0.3640  0.7430
14737TIP3    H265703   3.217   3.859   3.589  0.3517  0.4774  0.4918
14738TIP3   OH265704   0.245   3.611  15.146  0.1962  0.4344  0.3193
14738TIP3    H165705   0.315   3.673  15.129 -1.2203  1.7485 -0.9913
14738TIP3    H265706   0.230   3.567  15.062  0.2969 -0.7800  0.9085
14739TIP3   OH265707   4.212   4.050   0.794 -0.5637 -0.3009 -0.0843
14739TIP3    H165708   4.191   3.972   0.743 -0.3040 -0.8821  0.6742
14739TIP3    H265709   4.222   4.018   0.883 -3.7573  1.0774  0.9202
14740TIP3   OH265710   6.571   2.358  12.803  0.0205 -0.0111 -0.4291
14740TIP3    H165711   6.552   2.315  12.720 -1.6466 -2.1462  0.9328
14740TIP3    H265712   6.485   2.385  12.837  0.8051  2.3670 -0.1137
14741TIP3   OH265713   1.090   5.749   1.023  0.1041 -0.3984  0.2366
14741TIP3    H165714   1.006   5.793   1.037  0.2838  0.4983 -1.2332
14741TIP3    H265715   1.069   5.676   0.965  0.3866  0.1021 -0.5131
14742TIP3   OH265716   4.462   0.394   4.474  0.0930 -0.0666 -0.2741
14742TIP3    H165717   4.463   0.434   4.387  0.6997 -0.8172 -0.6274
14742TIP3    H265718   4.537   0.334   4.474 -0.3218 -0.6086  0.5079
14743TIP3   OH265719   1.250   5.470  13.825 -0.2514 -0.2627  0.1021
14743TIP3    H165720   1.172   5.495  13.775 -1.4614 -0.7156  1.7050
14743TIP3    H265721   1.218   5.410  13.892  1.4719 -0.3846  0.8605
14744TIP3   OH265722   1.307   5.434   4.793  0.2233  0.3834  0.9245
14744TIP3    H165723   1.345   5.347   4.787 -0.1507  0.3207 -1.5993
14744TIP3    H265724   1.382   5.494   4.788  0.4989  0.2597  2.8671
14745TIP3   OH265725   5.008   3.761   2.905  0.8642 -0.2856 -0.2092
14745TIP3    H165726   4.994   3.667   2.903 -0.1756 -0.1607 -2.9173
14745TIP3    H265727   4.951   3.796   2.837  2.0080  2.2032 -0.0217
14746TIP3   OH265728   6.266   1.503  13.640 -0.0491  0.0215  0.2302
14746TIP3    H165729   6.322   1.516  13.717 -0.3719  1.6605  0.2311
14746TIP3    H265730   6.301   1.564  13.574  1.0207 -2.2259 -1.4196
14747TIP3   OH265731   1.598   4.459   2.892  0.2240  0.1226  0.3851
14747TIP3    H165732   1.524   4.449   2.832  1.8269 -0.7847 -1.5248
14747TIP3    H265733   1.648   4.532   2.856  2.8421 -2.3238 -1.3116
14748TIP3   OH265734   0.112   3.281  15.665 -0.0813 -0.3275 -0.2449
14748TIP3    H165735   0.069   3.271  15.580  0.1240 -0.8916 -0.2885
14748TIP3    H265736   0.043   3.313  15.723 -0.1712  0.2768 -0.6701
14749TIP3   OH265737   3.575   3.662  16.374 -0.4542  0.2949 -0.1235
14749TIP3    H165738   3.565   3.650  16.469  0.6608 -0.4958 -0.0871
14749TIP3    H265739   3.517   3.596  16.336 -0.2403  0.0176  0.0222
14750TIP3   OH265740   2.401   2.046  13.307 -0.0253 -0.6260 -0.0409
14750TIP3    H165741   2.309   2.017  13.310 -0.2635  0.1228  0.3277
14750TIP3    H265742   2.432   2.034  13.397 -0.2091  0.4735  0.1844
14751TIP3   OH265743   5.077   0.238   5.488 -0.3685 -0.0541  0.1663
14751TIP3    H165744   5.161   0.197   5.507 -1.0659 -0.6784  2.1215
14751TIP3    H265745   5.099   0.330   5.471  0.8423 -0.5080 -0.9096
14752TIP3   OH265746   0.350   6.267   0.875 -0.0767 -0.6300 -0.0874
14752TIP3    H165747   0.257   6.261   0.895 -0.2286  0.2616 -0.5099
14752TIP3    H265748   0.371   6.360   0.882  0.9058 -0.8707  0.5167
14753TIP3   OH265749   4.018   6.687   4.486 -0.3930 -0.8924  0.8105
14753TIP3    H165750   3.940   6.707   4.434  0.4217  2.1233  0.5370
14753TIP3    H265751   3.994   6.715   4.575  0.6248  1.1208  0.5206
14754TIP3   OH265752   5.779   3.988  11.352  0.0222 -0.0863  0.6106
14754TIP3    H165753   5.717   4.040  11.302  0.2306  0.2484  0.6955
14754TIP3    H265754   5.795   3.910  11.299  2.0318  1.3208 -0.9762
14755TIP3   OH265755   4.161   3.036   3.067  0.1427 -0.0875  0.1328
14755TIP3    H165756   4.120   3.043   3.152  2.0842 -1.7186  1.3029
14755TIP3    H265757   4.146   3.121   3.025 -1.8029  0.3532  1.6126
14756TIP3   OH265758   5.467   5.677   4.382 -0.1687  0.3343 -0.0805
14756TIP3    H165759   5.559   5.693   4.403 -0.2815  2.6989 -1.1298
14756TIP3    H265760   5.418   5.719   4.452 -0.4478  2.4003 -1.4422
14757TIP3   OH265761   5.209   0.773   2.808  0.3153  0.1426  0.6152
14757TIP3    H165762   5.280   0.729   2.855  0.7949  0.9099  0.6387
14757TIP3    H265763   5.135   0.713   2.814  0.5675 -0.0729  1.7564
14758TIP3   OH265764   4.298   2.500   9.976 -0.0934 -0.0109  0.1336
14758TIP3    H165765   4.378   2.484   9.927 -0.9748 -0.3649 -1.2571
14758TIP3    H265766   4.229   2.455   9.926 -1.4243  1.6792  0.3369
14759TIP3   OH265767   0.219   4.071   4.042  0.1979 -0.0515 -0.3312
14759TIP3    H165768   0.304   4.064   4.086 -0.2399 -0.9625  0.4054
14759TIP3    H265769   0.167   4.129   4.099  0.3721  0.6615 -0.8797
14760TIP3   OH265770   4.057   4.567  13.772 -0.3614  0.4166 -0.3099
14760TIP3    H165771   4.045   4.482  13.813 -0.4162 -0.4889 -2.0878
14760TIP3    H265772   4.028   4.631  13.837 -1.0333 -0.9658  0.7731
14761TIP3   OH265773   1.788   1.359   4.840 -0.1138  0.0125 -0.1583
14761TIP3    H165774   1.741   1.442   4.846  1.2103  0.7748  0.0614
14761TIP3    H265775   1.880   1.384   4.839  0.2974 -1.4458 -0.4456
14762TIP3   OH265776   4.508   5.905   5.325 -0.0924 -0.0203 -0.3203
14762TIP3    H165777   4.452   5.885   5.399  0.2438 -0.8446 -0.2765
14762TIP3    H265778   4.542   5.820   5.296 -0.9811  0.1507 -2.0452
14763TIP3   OH265779   0.382   0.436  11.616 -0.3024 -0.0053  0.1215
14763TIP3    H165780   0.400   0.382  11.693  0.7657  1.5909  1.0473
14763TIP3    H265781   0.424   0.391  11.544  0.8099 -0.2795  0.9236
14764TIP3   OH265782   6.058   3.144   2.669  0.0885 -0.2931  0.0624
14764TIP3    H165783   6.009   3.215   2.710  0.1148 -0.5591  0.5647
14764TIP3    H265784   6.041   3.068   2.726 -0.1711 -0.7522 -0.6185
14765TIP3   OH265785   0.208   2.206  11.575  0.0998 -1.0994 -0.0226
14765TIP3    H165786   0.139   2.188  11.639  0.9222 -2.1536  0.6099
14765TIP3    H265787   0.287   2.218  11.627  0.0236  2.7783 -0.5209
14766TIP3   OH265788   3.469   6.759   5.485  0.1461  1.0514  0.2075
14766TIP3    H165789   3.406   6.687   5.475 -1.5717  2.4217  0.8031
14766TIP3    H265790   3.429   6.818   5.548  1.2352  2.8421 -0.6868
14767TIP3   OH265791   2.082   5.419   5.141 -0.4889 -0.4972 -0.2252
14767TIP3    H165792   2.176   5.420   5.163  0.0835  1.2996 -2.4193
14767TIP3    H265793   2.063   5.328   5.121  0.4652 -1.0967  1.3471
14768TIP3   OH265794   5.065   5.379   2.153  0.1601  0.2995 -0.5228
14768TIP3    H165795   5.119   5.301   2.161 -0.4633 -0.1023 -0.1768
14768TIP3    H265796   5.127   5.450   2.133  0.7995 -0.1519 -0.1442
14769TIP3   OH265797   1.200   3.354   1.249  0.2266  0.0545  0.2020
14769TIP3    H165798   1.106   3.366   1.262  0.2285  0.1449  0.1287
14769TIP3    H265799   1.220   3.272   1.296  0.2711  0.4929  0.9633
14770TIP3   OH265800   3.936   0.841   2.942 -0.0241 -0.2572  0.9364
14770TIP3    H165801   4.018   0.823   2.989 -0.4784 -0.3558  1.7090
14770TIP3    H265802   3.914   0.758   2.900  0.4359 -0.1419  0.4509
14771TIP3   OH265803   4.157   6.775   3.136 -0.0300  0.4576 -0.0920
14771TIP3    H165804   4.117   6.792   3.221 -1.4693 -0.7893 -0.4697
14771TIP3    H265805   4.136   6.852   3.084  0.2799  0.9302  0.4621
14772TIP3   OH265806   3.418   6.239  12.059 -0.0897  0.3198 -0.5118
14772TIP3    H165807   3.342   6.181  12.069 -0.7537  0.8787 -1.9793
14772TIP3    H265808   3.466   6.203  11.984  0.1539  0.9706 -0.6732
14773TIP3   OH265809   3.878   0.967  16.322  0.4549  0.0213 -0.7861
14773TIP3    H165810   3.815   1.039  16.325 -0.8462 -1.0944 -0.3263
14773TIP3    H265811   3.890   0.949  16.229  0.9512  0.9488 -0.9092
14774TIP3   OH265812   6.146   4.731  14.465  0.5166  0.3989 -0.2127
14774TIP3    H165813   6.175   4.798  14.528  0.1570  1.2671 -0.9499
14774TIP3    H265814   6.089   4.674  14.516  0.5176  0.8838  0.3459
14775TIP3   OH265815   0.902   6.365   5.319  0.4355 -0.2391 -0.7030
14775TIP3    H165816   0.946   6.444   5.288 -0.6620  0.2643 -1.0334
14775TIP3    H265817   0.817   6.396   5.350  0.6586 -1.0443  0.8144
14776TIP3   OH265818   0.468   2.157  11.240 -0.5556 -0.3700 -0.2878
14776TIP3    H165819   0.492   2.083  11.184  1.2785 -0.7758  0.9375
14776TIP3    H265820   0.522   2.229  11.209 -0.9934 -0.0461 -0.3040
14777TIP3   OH265821   0.272   1.238  11.672  0.4825  0.3662  0.2390
14777TIP3    H165822   0.226   1.322  11.661 -0.0472 -0.0476 -0.8342
14777TIP3    H265823   0.345   1.243  11.610  0.8461  0.3005  0.6594
14778TIP3   OH265824   1.779   2.651   4.822  0.2655  0.8222 -0.6435
14778TIP3    H165825   1.760   2.739   4.790 -0.3352  0.7748 -0.4281
14778TIP3    H265826   1.693   2.613   4.839  0.5338  1.1232  1.7755
14779TIP3   OH265827   3.074   6.308  14.083  0.1093 -0.1032  0.7999
14779TIP3    H165828   3.155   6.268  14.053 -0.0261  1.0552 -1.2627
14779TIP3    H265829   3.101   6.384  14.134  0.3069  0.0055  0.5293
14780TIP3   OH265830   0.335   1.027  17.231  0.6181 -0.5057  0.1338
14780TIP3    H165831   0.314   1.089  17.161  0.7377  0.2391  0.7458
14780TIP3    H265832   0.387   0.959  17.188  1.1164  0.2027 -0.4093
14781TIP3   OH265833   5.721   5.559   4.796  0.0066 -0.3183  0.5013
14781TIP3    H165834   5.759   5.537   4.881  1.0943  0.8494  0.3493
14781TIP3    H265835   5.656   5.627   4.815 -1.4460 -1.6791  0.6472
14782TIP3   OH265836   4.194   2.707   4.856 -0.5608 -0.7146  0.0016
14782TIP3    H165837   4.139   2.742   4.786  1.4324 -0.5511 -1.6000
14782TIP3    H265838   4.143   2.637   4.895 -1.6642 -0.9978 -1.8212
14783TIP3   OH265839   0.798   4.001  12.680  0.2756  0.4241 -0.1295
14783TIP3    H165840   0.742   3.938  12.635 -1.8009  2.4132 -0.4817
14783TIP3    H265841   0.780   3.988  12.773  2.1158 -1.4451  0.0461
14784TIP3   OH265842   4.786   0.138   2.433  0.7395  0.3957  0.5795
14784TIP3    H165843   4.873   0.148   2.395  0.1719  1.4301 -0.4947
14784TIP3    H265844   4.726   0.140   2.359 -0.1024 -2.8699  1.0034
14785TIP3   OH265845   5.974   6.743   0.596  0.3178  0.3291  0.7408
14785TIP3    H165846   6.064   6.749   0.564  0.3815 -3.0909 -0.1147
14785TIP3    H265847   5.923   6.794   0.533  1.5367  1.8068  0.9003
14786TIP3   OH265848   3.466   5.471  16.029 -0.0721  0.0207  0.6468
14786TIP3    H165849   3.430   5.382  16.033 -1.2117  0.4630  0.7895
14786TIP3    H265850   3.397   5.522  15.986  1.4010  0.4501 -1.3411
14787TIP3   OH265851   1.275   5.034   4.176 -0.2156  0.1676 -0.4153
14787TIP3    H165852   1.294   5.077   4.260 -0.1837  0.1362 -0.4064
14787TIP3    H265853   1.348   5.060   4.119  0.5760 -1.0294  0.0046
14788TIP3   OH265854   4.100   1.726  12.957  0.1633 -0.2925  0.3800
14788TIP3    H165855   4.185   1.758  12.924  1.0536 -1.2959  1.6016
14788TIP3    H265856   4.120   1.693  13.045 -1.3460 -1.3171  0.3581
14789TIP3   OH265857   2.071   6.646   0.094 -0.6773  0.1482 -0.3731
14789TIP3    H165858   2.000   6.587   0.069 -0.7984  0.3161 -0.4277
14789TIP3    H265859   2.072   6.712   0.024  0.0992 -0.3436 -0.8368
14790TIP3   OH265860   3.064   3.655  16.387 -0.3227 -0.4590 -0.2315
14790TIP3    H165861   2.987   3.705  16.415 -0.9189 -0.5562 -1.6190
14790TIP3    H265862   3.063   3.576  16.441 -0.1773  0.3510  0.9868
14791TIP3   OH265863   3.683   0.457   3.713  0.5711  0.3140  0.2693
14791TIP3    H165864   3.598   0.501   3.710  0.2517 -0.0730  2.1964
14791TIP3    H265865   3.671   0.377   3.662 -0.0936  0.4762  0.1675
14792TIP3   OH265866   1.881   0.615  14.295  0.1498  0.0610  0.2159
14792TIP3    H165867   1.837   0.700  14.297 -2.5386 -1.1252 -2.1835
14792TIP3    H265868   1.911   0.605  14.204 -1.3910 -2.3299 -0.1165
14793TIP3   OH265869   3.038   6.731  13.085  0.6510  0.0415  0.1368
14793TIP3    H165870   2.979   6.689  13.148 -3.9226  0.8010 -3.1274
14793TIP3    H265871   3.021   6.825  13.095  0.1735  0.2060 -1.7909
14794TIP3   OH265872   5.629   4.968  12.516  0.2798  0.2676  0.3820
14794TIP3    H165873   5.725   4.968  12.512  0.2980  0.4788  0.7248
14794TIP3    H265874   5.602   4.900  12.454  0.6211  0.7105 -0.2583
14795TIP3   OH265875   3.011   1.881   5.300  0.6936 -0.2209  0.3446
14795TIP3    H165876   2.985   1.973   5.306  1.9046  0.0867  1.2318
14795TIP3    H265877   2.957   1.837   5.367  1.3277  0.1467  1.1090
14796TIP3   OH265878   1.845   2.540  16.589 -0.1445  0.2913  0.6241
14796TIP3    H165879   1.763   2.503  16.555  0.5643 -0.2084 -0.5966
14796TIP3    H265880   1.864   2.614  16.531  0.6611 -0.0651  0.4216
14797TIP3   OH265881   1.502   1.789  15.807 -0.2163 -0.7566  0.2368
14797TIP3    H165882   1.576   1.769  15.864  0.6099 -0.5150 -0.7123
14797TIP3    H265883   1.529   1.754  15.721 -0.8276  0.0932 -0.3145
14798TIP3   OH265884   1.550   3.801   6.552  0.1529 -0.1029  0.3310
14798TIP3    H165885   1.609   3.860   6.598  0.1141 -0.7032  1.1671
14798TIP3    H265886   1.590   3.715   6.560 -0.2910 -0.3505 -0.0292
14799TIP3   OH265887   3.409   5.276  12.387 -0.0061  0.6519 -0.4578
14799TIP3    H165888   3.341   5.298  12.324 -0.4959 -0.4256 -0.3356
14799TIP3    H265889   3.376   5.307  12.471 -0.5895 -0.2712 -0.3221
14800TIP3   OH265890   2.582   6.137  16.004 -0.1624 -0.5209  0.1281
14800TIP3    H165891   2.621   6.059  15.964  0.4720 -1.0722  1.7198
14800TIP3    H265892   2.651   6.203  15.998 -1.3859  0.6530 -3.0540
14801TIP3   OH265893   3.286   3.168   4.364 -0.0414  0.0308  0.1745
14801TIP3    H165894   3.311   3.076   4.368 -0.1388  0.0335  0.9486
14801TIP3    H265895   3.214   3.171   4.301  0.4457 -0.3032 -0.4134
14802TIP3   OH265896   2.307   6.164  17.105 -0.2271 -0.1498 -0.8989
14802TIP3    H165897   2.293   6.169  17.200 -0.8398  0.9852 -1.0346
14802TIP3    H265898   2.284   6.251  17.073 -1.2217 -0.8786 -2.2513
14803TIP3   OH265899   4.843   3.731  11.074  0.1525 -0.2064 -0.0276
14803TIP3    H165900   4.849   3.773  10.988  0.6366  0.9221  0.5378
14803TIP3    H265901   4.749   3.717  11.087 -0.2164  2.2673  0.4581
14804TIP3   OH265902   6.020   5.658   4.346  0.2527 -0.5960 -0.0717
14804TIP3    H165903   5.928   5.674   4.325  0.1704  0.1826  0.8157
14804TIP3    H265904   6.068   5.684   4.266 -0.2291 -0.1180 -0.2122
14805TIP3   OH265905   3.697   1.024  13.363 -0.2467 -0.6706 -0.5925
14805TIP3    H165906   3.677   0.953  13.302  1.6819 -1.1448 -0.7644
14805TIP3    H265907   3.792   1.034  13.356 -0.0676 -0.2227  1.7989
14806TIP3   OH265908   5.938   0.099  15.029  0.7957  0.1518  0.8334
14806TIP3    H165909   5.989   0.173  14.996  1.1318  0.2745  1.6117
14806TIP3    H265910   5.859   0.099  14.975  1.9092 -0.4833 -0.8974
14807TIP3   OH265911   6.420   4.164   3.904 -0.2097 -0.1538  0.1614
14807TIP3    H165912   6.355   4.121   3.960  0.4329  0.4349  1.4063
14807TIP3    H265913   6.450   4.094   3.846 -1.3022 -0.6500  0.1549
14808TIP3   OH265914   1.565   3.971   4.816  0.2536 -0.3256  1.0583
14808TIP3    H165915   1.507   4.032   4.770  0.9894  0.0116  0.5669
14808TIP3    H265916   1.622   3.936   4.748  0.5611 -0.7292  1.5218
14809TIP3   OH265917   2.617   4.858  13.464 -0.8795 -0.2480 -0.1746
14809TIP3    H165918   2.531   4.822  13.442 -0.4884 -0.6601 -1.0701
14809TIP3    H265919   2.598   4.942  13.506 -1.8277 -1.5378  2.1440
14810TIP3   OH265920   0.987   1.497  12.064 -0.3127 -0.7880  0.2807
14810TIP3    H165921   1.008   1.584  12.028 -0.4709 -0.6366  0.5533
14810TIP3    H265922   0.932   1.515  12.140 -0.0139 -1.1111  0.5771
14811TIP3   OH265923   0.190   0.192   5.277  0.4542  0.0068  0.0292
14811TIP3    H165924   0.172   0.148   5.360  0.6423  0.8671  0.5391
14811TIP3    H265925   0.283   0.174   5.260  0.9214  1.3279  0.9603
14812TIP3   OH265926   1.853   5.501   0.615 -0.0368 -0.8037 -0.1947
14812TIP3    H165927   1.848   5.541   0.528 -0.3508  0.5674  0.4307
14812TIP3    H265928   1.763   5.504   0.648  0.3469  0.2566  0.8346
14813TIP3   OH265929   6.529   1.316  12.434  0.1812 -0.5066 -0.1912
14813TIP3    H165930   6.467   1.339  12.503 -2.1193 -1.7319 -1.7134
14813TIP3    H265931   6.491   1.239  12.392  2.5219 -1.0192 -1.5687
14814TIP3   OH265932   0.797   6.793   0.586  0.3225  0.2127 -0.2637
14814TIP3    H165933   0.866   6.734   0.618  0.1312  0.4174  0.5442
14814TIP3    H265934   0.722   6.775   0.644  0.1995  1.1062 -0.1390
14815TIP3   OH265935   2.882   4.521  12.382 -0.4240 -0.0500  0.3606
14815TIP3    H165936   2.899   4.591  12.319  0.1994  0.1828  0.7758
14815TIP3    H265937   2.793   4.536  12.412  0.0670  1.2409  1.2641
14816TIP3   OH265938   2.251   4.075  16.674  0.3472  0.3243 -0.0605
14816TIP3    H165939   2.309   4.001  16.655 -0.5899 -0.8875  1.5269
14816TIP3    H265940   2.287   4.115  16.753  0.5711  1.3034 -0.6359
14817TIP3   OH265941   3.844   6.050   6.106 -0.9537 -0.0669  0.3132
14817TIP3    H165942   3.897   6.098   6.042  0.7179 -1.0163  0.9187
14817TIP3    H265943   3.850   6.102   6.186 -1.3780  0.0831  0.2514
14818TIP3   OH265944   0.814   4.810   1.061 -0.1880  0.4859 -0.2511
14818TIP3    H165945   0.723   4.834   1.048 -0.2671 -0.1991 -1.0397
14818TIP3    H265946   0.854   4.818   0.974  0.6456  1.3410  0.1934
14819TIP3   OH265947   4.557   4.185  16.700 -0.1558 -0.3473 -0.0898
14819TIP3    H165948   4.538   4.115  16.764 -1.1196 -0.4713 -0.4884
14819TIP3    H265949   4.527   4.149  16.617  0.2462  0.1756 -0.4605
14820TIP3   OH265950   4.530   1.643   2.610 -0.0947 -0.4635  0.0248
14820TIP3    H165951   4.619   1.665   2.638 -0.6259  0.7459  0.8381
14820TIP3    H265952   4.529   1.663   2.516  1.4879 -3.8593 -0.8673
14821TIP3   OH265953   2.246   0.735   2.663 -0.9663 -0.7579 -0.3152
14821TIP3    H165954   2.201   0.819   2.651 -1.1532 -0.8413 -0.2113
14821TIP3    H265955   2.210   0.700   2.745 -0.6030 -0.7599 -0.1552
14822TIP3   OH265956   2.918   3.330   4.942  0.2852  0.4969 -0.3667
14822TIP3    H165957   2.995   3.276   4.926 -1.5159 -2.3043 -0.2958
14822TIP3    H265958   2.907   3.330   5.037 -0.2536  0.1728 -0.4259
14823TIP3   OH265959   2.042   0.913   4.788 -0.3948  0.1452  0.3873
14823TIP3    H165960   2.080   0.871   4.711  0.2190  0.2485  0.6332
14823TIP3    H265961   1.990   0.986   4.752 -1.0318 -0.4842 -0.0000
14824TIP3   OH265962   6.671   3.434   5.854  0.1390 -0.3269 -0.0302
14824TIP3    H165963   6.694   3.380   5.779  1.2317  2.2564 -1.6479
14824TIP3    H265964   6.702   3.522   5.833 -0.2021  0.7039  3.1196
14825TIP3   OH265965   1.020   6.247  15.305 -0.2899 -0.3596 -0.0736
14825TIP3    H165966   1.089   6.295  15.350 -0.3442 -0.2237 -0.1328
14825TIP3    H265967   0.954   6.231  15.372 -0.1399 -0.6111  0.0158
14826TIP3   OH265968   3.445   6.606   4.302 -0.0181  0.0234 -0.6302
14826TIP3    H165969   3.510   6.660   4.258 -0.5705  1.6118  0.3592
14826TIP3    H265970   3.495   6.548   4.359  0.6287  2.7742  1.8697
14827TIP3   OH265971   2.184   5.124   1.212  0.7386  0.7047  0.3959
14827TIP3    H165972   2.252   5.121   1.279  0.3933 -0.3630  0.7236
14827TIP3    H265973   2.223   5.081   1.136  0.9006  1.3330  0.1125
14828TIP3   OH265974   0.440   3.066  16.638 -0.8793  0.2624 -0.0101
14828TIP3    H165975   0.458   3.156  16.664 -0.0983 -0.3251  1.5472
14828TIP3    H265976   0.387   3.030  16.709 -0.8613 -0.6200 -0.4296
14829TIP3   OH265977   2.433   0.803  16.467 -0.1190 -0.6620  0.3363
14829TIP3    H165978   2.517   0.848  16.468 -0.6155  0.2944  1.0267
14829TIP3    H265979   2.368   0.874  16.475 -1.0047 -1.3503 -0.4845
14830TIP3   OH265980   2.942   2.866  12.347 -0.0315  0.1706  0.3111
14830TIP3    H165981   2.987   2.858  12.263 -0.2037 -2.7915  0.3921
14830TIP3    H265982   3.009   2.897  12.408  0.3690  1.3024 -0.6688
14831TIP3   OH265983   4.116   4.931   5.198 -0.2403 -0.5002  0.3982
14831TIP3    H165984   4.154   4.942   5.285 -0.8284 -1.6575  0.8287
14831TIP3    H265985   4.169   4.863   5.157  0.7377  0.8144 -0.5982
14832TIP3   OH265986   1.605   5.373   3.270 -0.3081 -0.2047 -0.7644
14832TIP3    H165987   1.667   5.301   3.261 -0.1477 -0.1509 -0.1150
14832TIP3    H265988   1.618   5.425   3.190 -0.2476 -0.7528 -1.1134
14833TIP3   OH265989   3.480   4.281   0.095  0.0101  0.2625  0.5741
14833TIP3    H165990   3.453   4.281   0.003  1.1099  3.4768  0.1056
14833TIP3    H265991   3.405   4.246   0.142 -1.2681  0.1573 -1.4261
14834TIP3   OH265992   4.668   2.516  11.196 -0.1757 -0.3493  0.5666
14834TIP3    H165993   4.575   2.528  11.177 -0.6198 -0.8549  2.2944
14834TIP3    H265994   4.705   2.481  11.114 -1.4374  0.0783 -0.2114
14835TIP3   OH265995   3.531   6.320   3.446  0.4095  0.4190  0.0590
14835TIP3    H165996   3.625   6.335   3.454  0.1120  1.9517  0.8910
14835TIP3    H265997   3.490   6.393   3.491 -1.1979 -0.4381  0.0738
14836TIP3   OH265998   0.259   3.752   6.038 -0.5171 -0.4344  0.3045
14836TIP3    H165999   0.340   3.726   6.082  0.1783  0.8049 -0.1938
14836TIP3    H266000   0.278   3.741   5.945 -1.4544 -1.5503  0.2130
14837TIP3   OH266001   5.434   6.553   1.681 -0.4761  0.3294  0.2570
14837TIP3    H166002   5.464   6.615   1.614 -0.2029  1.5284  1.4373
14837TIP3    H266003   5.492   6.478   1.672 -0.9434  0.1313 -1.3498
14838TIP3   OH266004   1.404   1.309  11.886 -0.5114 -0.3794 -0.5059
14838TIP3    H166005   1.333   1.359  11.924  1.4836  1.9042  0.5009
14838TIP3    H266006   1.443   1.261  11.959  1.0292  1.1060 -0.2750
14839TIP3   OH266007   2.033   5.276  12.459  0.0387  0.1843  0.3910
14839TIP3    H166008   2.010   5.366  12.484  1.4039  0.3861  0.9985
14839TIP3    H266009   2.072   5.238  12.538  2.6031  0.1919 -0.7836
14840TIP3   OH266010   0.100   2.941   1.072  0.0590  0.4110 -0.0391
14840TIP3    H166011   0.132   3.029   1.054 -1.0519  0.7455 -0.4737
14840TIP3    H266012   0.168   2.883   1.037 -0.4054  1.0854 -2.2674
14841TIP3   OH266013   5.445   4.313  13.332 -0.3150  0.4550 -1.1235
14841TIP3    H166014   5.396   4.267  13.401 -0.0912  2.1327  0.2049
14841TIP3    H266015   5.537   4.292  13.350 -0.0762  2.4796  0.4066
14842TIP3   OH266016   0.457   5.009   6.001 -0.0243  0.1886  0.0241
14842TIP3    H166017   0.418   5.096   6.009  0.5977  0.6365 -1.3724
14842TIP3    H266018   0.445   4.968   6.087  0.7629  2.1010  1.0935
14843TIP3   OH266019   3.536   3.594  14.849 -0.1478 -0.1753 -0.1875
14843TIP3    H166020   3.598   3.659  14.817 -0.5038  0.1967 -0.1296
14843TIP3    H266021   3.591   3.525  14.888  0.3409 -0.9699 -2.1684
14844TIP3   OH266022   4.070   4.229  11.534 -0.3834  0.6728  0.2522
14844TIP3    H166023   4.113   4.148  11.505 -0.5607  0.9994 -0.9724
14844TIP3    H266024   4.125   4.261  11.606 -0.8513 -1.0458  1.4599
14845TIP3   OH266025   0.987   0.018   2.019  0.1815 -0.0944 -0.7608
14845TIP3    H166026   1.010  -0.038   2.093 -2.6684  1.4076  1.4241
14845TIP3    H266027   0.908  -0.021   1.983  0.0457  0.7073 -1.3434
14846TIP3   OH266028   1.924   6.543  14.057 -0.3310  0.0827 -0.2482
14846TIP3    H166029   1.898   6.553  13.966  0.9413 -1.3775 -0.8096
14846TIP3    H266030   1.843   6.520  14.103 -0.5966 -1.5580 -1.4445
14847TIP3   OH266031   1.084   0.361   4.916 -0.1042 -0.6697  0.1696
14847TIP3    H166032   1.166   0.347   4.868 -0.9945  0.6928 -1.8847
14847TIP3    H266033   1.108   0.347   5.008  2.8429  1.2105 -0.1572
14848TIP3   OH266034   0.943   2.939  11.491  0.3846 -0.0578 -0.1507
14848TIP3    H166035   0.868   2.907  11.541  1.5538  0.0763  1.7997
14848TIP3    H266036   0.918   3.028  11.465 -0.4264 -0.2968 -0.2147
14849TIP3   OH266037   5.765   2.583  12.431  0.6251 -0.1966 -0.0907
14849TIP3    H166038   5.792   2.532  12.354  1.1534  1.1534 -0.8371
14849TIP3    H266039   5.682   2.622  12.405 -0.0101 -1.0144  0.6528
14850TIP3   OH266040   0.471   6.449  14.596 -0.3520  0.5265 -0.1462
14850TIP3    H166041   0.562   6.425  14.578 -0.2988 -0.0992  0.8693
14850TIP3    H266042   0.451   6.516  14.532  1.1824  1.4656  0.3067
14851TIP3   OH266043   3.317   0.215  14.424  0.2137  0.4480  0.1444
14851TIP3    H166044   3.333   0.163  14.502 -1.6439  1.9651  1.6204
14851TIP3    H266045   3.223   0.232  14.425  0.2613  1.2085 -2.0055
14852TIP3   OH266046   6.401   1.518  13.894  0.0899  0.0823 -0.3436
14852TIP3    H166047   6.450   1.444  13.930 -1.1298 -0.8339 -0.4816
14852TIP3    H266048   6.413   1.588  13.958  0.1641 -0.6755  0.4944
14853TIP3   OH266049   4.962   0.607   2.344  0.7139  0.1557  0.1051
14853TIP3    H166050   4.955   0.622   2.250 -3.3907  0.3367  0.2841
14853TIP3    H266051   4.950   0.694   2.383  0.7397 -0.1607  0.8337
14854TIP3   OH266052   2.208   0.269   0.782 -0.1779  0.7595 -0.0629
14854TIP3    H166053   2.222   0.282   0.876 -0.6022  1.6422 -0.1185
14854TIP3    H266054   2.253   0.186   0.763 -0.5282  0.2972  1.0135
14855TIP3   OH266055   5.345   4.945   4.648 -0.3584 -0.1350  0.1706
14855TIP3    H166056   5.352   5.036   4.621 -0.5840 -0.0110  0.5284
14855TIP3    H266057   5.435   4.916   4.661 -0.3310  0.4050  1.2773
14856TIP3   OH266058   3.423   1.354  11.146 -0.4879  0.5250 -1.0062
14856TIP3    H166059   3.455   1.270  11.113  0.1907  0.3950 -0.0844
14856TIP3    H266060   3.330   1.354  11.126 -0.8430 -1.1813  0.3907
14857TIP3   OH266061   6.361   1.486   4.899 -0.0787  0.0780  0.2541
14857TIP3    H166062   6.312   1.560   4.933  1.7524  1.0144  0.9769
14857TIP3    H266063   6.436   1.477   4.958  0.5408 -1.3934 -0.6888
14858TIP3   OH266064   0.388   2.361  13.492 -0.4203 -0.3309  0.1563
14858TIP3    H166065   0.466   2.414  13.511 -0.9414  0.2609  0.7055
14858TIP3    H266066   0.314   2.419  13.513 -1.0167 -0.6549 -0.9984
14859TIP3   OH266067   5.388   1.315   3.561 -0.0690  0.5454  0.0200
14859TIP3    H166068   5.439   1.234   3.560 -2.8697 -1.3629 -0.4316
14859TIP3    H266069   5.385   1.340   3.654  1.4551  0.5838  0.0712
14860TIP3   OH266070   5.263   4.295   3.981  0.2799 -0.1273 -0.2479
14860TIP3    H166071   5.204   4.340   3.920 -0.5777 -2.9873 -1.6936
14860TIP3    H266072   5.334   4.358   3.996 -1.7810  2.4220 -0.5206
14861TIP3   OH266073   3.834   2.860   5.802 -0.5708 -0.1801 -0.7934
14861TIP3    H166074   3.819   2.924   5.733  0.2923 -0.7377 -1.5343
14861TIP3    H266075   3.919   2.884   5.839 -1.1698  0.3020  0.3082
14862TIP3   OH266076   4.015   1.408  16.451 -0.2588  0.0752  0.1375
14862TIP3    H166077   4.107   1.404  16.424 -0.7971 -2.2071 -1.6935
14862TIP3    H266078   3.982   1.488  16.413  0.8274  0.6612  0.3774
14863TIP3   OH266079   0.621   2.284   6.346  0.1848  0.2555  0.2385
14863TIP3    H166080   0.586   2.372   6.355 -0.6929 -0.2668  2.7514
14863TIP3    H266081   0.549   2.233   6.310 -0.0889  0.1148  0.9766
14864TIP3   OH266082   1.940   0.090   0.895 -0.2790 -0.3524  0.2432
14864TIP3    H166083   1.956   0.060   0.806  0.4221 -0.7210  0.4874
14864TIP3    H266084   1.919   0.010   0.944  1.2636 -0.4503  0.8218
14865TIP3   OH266085   1.821   4.668   5.847 -0.4871 -0.1763 -0.2785
14865TIP3    H166086   1.787   4.750   5.813 -0.5126 -0.2103 -0.3341
14865TIP3    H266087   1.916   4.678   5.846 -0.3921 -0.8832 -2.1455
14866TIP3   OH266088   6.359   6.261   6.079 -0.4491  0.2820 -0.0955
14866TIP3    H166089   6.419   6.328   6.046  0.5390  0.4111  1.8203
14866TIP3    H266090   6.305   6.307   6.144 -0.3559 -0.5792  0.6115
14867TIP3   OH266091   2.986   5.285   4.894  0.2089  0.3178 -0.0636
14867TIP3    H166092   2.917   5.316   4.953  0.5776 -0.1760  0.6382
14867TIP3    H266093   2.991   5.352   4.826 -0.7153  0.5379  0.0762
14868TIP3   OH266094   3.131   1.488  14.287  0.2185 -0.2878 -0.0074
14868TIP3    H166095   3.169   1.400  14.285 -1.8802 -1.2635 -0.5327
14868TIP3    H266096   3.151   1.522  14.374  0.3818 -1.6221  0.4930
14869TIP3   OH266097   2.668   4.920   5.821 -0.7893 -0.0506 -0.1077
14869TIP3    H166098   2.610   4.966   5.761  1.0948  2.3041 -0.2644
14869TIP3    H266099   2.621   4.917   5.904 -1.7242  0.4211 -0.6160
14870TIP3   OH266100   6.770   2.121  12.921  0.1335  0.0063 -0.2090
14870TIP3    H166101   6.720   2.065  12.980 -1.4642  1.6270  0.0435
14870TIP3    H266102   6.741   2.096  12.834  0.6309 -0.6423 -0.2006
14871TIP3   OH266103   6.735   5.812  15.561 -0.1751  0.4143  0.0128
14871TIP3    H166104   6.645   5.816  15.594 -0.4765  1.8654 -0.8915
14871TIP3    H266105   6.727   5.777  15.473  0.2729 -0.4007  0.2849
14872TIP3   OH266106   4.295   5.422   6.860  0.1915  0.8444 -0.3069
14872TIP3    H166107   4.216   5.476   6.867 -0.0164  0.3223  1.9021
14872TIP3    H266108   4.350   5.469   6.797 -0.6732  2.7536  0.2803
14873TIP3   OH266109   1.941   3.463  15.367 -0.0036 -0.1142  0.5484
14873TIP3    H166110   1.985   3.482  15.450  2.2266 -0.4618 -0.4787
14873TIP3    H266111   1.965   3.536  15.310 -0.9362 -0.2312 -0.0205
14874TIP3   OH266112   1.934   3.646  16.926 -0.7941  0.2516  0.6752
14874TIP3    H166113   1.949   3.639  17.021 -1.5380  1.1475  0.8787
14874TIP3    H266114   1.981   3.725  16.900 -0.2289 -0.2304  0.2035
14875TIP3   OH266115   3.274   1.867  12.288  0.4081 -0.5227  0.1084
14875TIP3    H166116   3.271   1.917  12.370  0.4800 -0.1031 -0.1418
14875TIP3    H266117   3.347   1.806  12.299  2.2256  1.3696 -0.6735
14876TIP3   OH266118   1.474   2.748   0.094 -0.1768 -0.0874 -0.3263
14876TIP3    H166119   1.486   2.683   0.025 -0.1663 -0.3814 -0.0502
14876TIP3    H266120   1.562   2.774   0.118 -0.1880  0.3163 -0.7009
14877TIP3   OH266121   5.105   0.633   4.920 -0.1827 -0.5369  0.0274
14877TIP3    H166122   5.073   0.583   4.844  0.0387 -1.1249  0.3110
14877TIP3    H266123   5.168   0.695   4.882 -1.5166  0.5446 -0.5156
14878TIP3   OH266124   0.227   5.256   1.290 -0.5331  0.3672 -0.2247
14878TIP3    H166125   0.158   5.200   1.255  2.3294 -4.8247  1.2374
14878TIP3    H266126   0.192   5.290   1.372 -2.0425 -0.4221 -0.5109
14879TIP3   OH266127   5.230   0.067  12.049  0.1093  0.1722 -0.4739
14879TIP3    H166128   5.190  -0.018  12.067 -0.3454  0.6691  0.9156
14879TIP3    H266129   5.249   0.064  11.955 -1.6208 -0.7362 -0.8449
14880TIP3   OH266130   0.753   1.242  11.073  0.1424 -0.1763  0.0101
14880TIP3    H166131   0.715   1.210  11.155  0.0550 -0.4939 -0.1547
14880TIP3    H266132   0.743   1.337  11.078  2.0563  0.0131  1.3377
14881TIP3   OH266133   5.525   1.238   2.362  0.1422 -0.1923  0.2994
14881TIP3    H166134   5.436   1.233   2.395  0.1557 -0.5351  0.2814
14881TIP3    H266135   5.580   1.233   2.440  0.2477 -2.9822  0.1314
14882TIP3   OH266136   2.730   0.975  15.703  0.4141 -0.2698 -0.2955
14882TIP3    H166137   2.761   1.056  15.742 -0.0315 -0.0602 -0.3696
14882TIP3    H266138   2.679   1.003  15.626 -1.5378 -0.4829  0.8488
14883TIP3   OH266139   2.617   0.063   4.425 -0.3296 -0.6132 -0.2991
14883TIP3    H166140   2.682   0.081   4.357 -0.8757  2.3319 -0.2012
14883TIP3    H266141   2.538   0.040   4.377 -0.3415  0.0996 -0.6440
14884TIP3   OH266142   0.979   5.493   1.865 -0.0760 -0.6871  0.2775
14884TIP3    H166143   0.955   5.531   1.949 -1.7149 -0.5587 -0.2133
14884TIP3    H266144   0.909   5.431   1.845 -1.1676  1.1359 -2.1330
14885TIP3   OH266145   5.353   1.221   2.757  0.0424  0.4839  0.1912
14885TIP3    H166146   5.285   1.185   2.814  1.2743 -1.3095  0.6192
14885TIP3    H266147   5.305   1.274   2.693 -1.7265 -0.5355  0.5971
14886TIP3   OH266148   6.041   0.655  11.357  0.1828 -0.4235  0.5708
14886TIP3    H166149   6.046   0.651  11.261 -0.0592 -0.8160  0.5743
14886TIP3    H266150   6.032   0.749  11.376 -1.5428 -0.4616  0.1179
14887TIP3   OH266151   5.913   0.599  12.353  0.1410  0.5718 -0.1572
14887TIP3    H166152   5.821   0.616  12.374  0.0253  0.2463 -0.4010
14887TIP3    H266153   5.922   0.624  12.261 -0.0017 -0.5544 -0.4898
14888TIP3   OH266154   1.430   2.373   2.936  0.1819 -0.6676 -0.0341
14888TIP3    H166155   1.442   2.432   3.010 -1.4679 -1.1508  0.6594
14888TIP3    H266156   1.402   2.430   2.864 -0.8540 -0.5074  0.4773
14889TIP3   OH266157   0.390   1.432   1.003 -0.3936  0.4193 -0.9852
14889TIP3    H166158   0.397   1.342   1.033  2.4499  1.1287  0.8144
14889TIP3    H266159   0.314   1.432   0.944  0.0237 -3.2772 -1.7343
14890TIP3   OH266160   0.360   2.585  14.024  0.2488  0.3541  0.3329
14890TIP3    H166161   0.280   2.565  14.072 -0.3367 -0.4985 -0.9139
14890TIP3    H266162   0.330   2.610  13.936  1.3009  1.1684  0.1813
14891TIP3   OH266163   0.126   5.434   0.716 -0.4015 -0.0111  0.0614
14891TIP3    H166164   0.126   5.525   0.746  1.8890  0.5748 -1.5157
14891TIP3    H266165   0.209   5.398   0.747 -1.4323 -1.7542  0.9948
14892TIP3   OH266166   5.408   3.400   5.196 -0.3481 -0.1492  0.1056
14892TIP3    H166167   5.418   3.323   5.140  1.2731  0.2029 -0.1401
14892TIP3    H266168   5.375   3.468   5.138  0.1423 -0.1213 -0.1446
14893TIP3   OH266169   1.816   3.712  11.915 -0.6000  0.4708  0.2747
14893TIP3    H166170   1.876   3.767  11.863 -1.5696  1.9574  0.6802
14893TIP3    H266171   1.860   3.703  12.000  0.1771 -0.5250 -0.2067
14894TIP3   OH266172   5.059   3.354  16.495  0.2464 -0.1130  0.1430
14894TIP3    H166173   4.995   3.353  16.424  0.0415  2.5625  0.1982
14894TIP3    H266174   5.017   3.404  16.565  1.7448  0.2923  0.7993
14895TIP3   OH266175   3.257   1.641   0.493 -0.7291 -0.0093  0.0224
14895TIP3    H166176   3.259   1.657   0.587 -1.9648  0.0369  0.0517
14895TIP3    H266177   3.318   1.706   0.457  0.6993 -0.8157  0.8668
14896TIP3   OH266178   6.360   5.944   0.775  0.2725  0.3904 -0.8059
14896TIP3    H166179   6.273   5.970   0.803  0.2201 -0.5901  0.0069
14896TIP3    H266180   6.353   5.849   0.760  0.5532  0.7062 -3.2412
14897TIP3   OH266181   5.857   4.771  16.009 -0.7522 -0.4588 -0.6995
14897TIP3    H166182   5.773   4.752  16.052 -1.4179 -1.3444 -2.3048
14897TIP3    H266183   5.851   4.862  15.982 -0.8656 -0.2931 -0.1412
14898TIP3   OH266184   4.775   2.318   0.806 -0.5695  0.4045 -0.3793
14898TIP3    H166185   4.867   2.323   0.832  0.0301 -0.8051 -2.0261
14898TIP3    H266186   4.765   2.386   0.739 -0.4733 -0.3774 -1.2062
14899TIP3   OH266187   6.543   5.748  11.548 -0.0586  0.1118  0.7134
14899TIP3    H166188   6.578   5.809  11.483  0.5501 -0.4223  0.5292
14899TIP3    H266189   6.449   5.764  11.547 -0.2645 -0.8554 -1.3469
14900TIP3   OH266190   2.192   3.950  13.641  0.0004 -0.0108 -0.1614
14900TIP3    H166191   2.194   3.857  13.660  1.1404  0.2991  1.4153
14900TIP3    H266192   2.099   3.971  13.632 -0.4627 -0.7994  2.2820
14901TIP3   OH266193   2.367   3.106  11.033 -0.3876 -0.2051  0.1820
14901TIP3    H166194   2.454   3.131  11.065 -0.3288 -0.0772 -0.0721
14901TIP3    H266195   2.307   3.146  11.096 -0.2744  0.0804  0.1130
14902TIP3   OH266196   6.342   3.808  15.708 -0.3830  0.3288  0.1229
14902TIP3    H166197   6.334   3.870  15.635 -0.5182  0.4109  0.2066
14902TIP3    H266198   6.427   3.768  15.696 -0.7375 -0.2488 -0.5457
14903TIP3   OH266199   1.376   5.504   4.501  0.1101  0.2824 -0.0331
14903TIP3    H166200   1.458   5.538   4.537 -0.0915 -2.8351  4.2636
14903TIP3    H266201   1.317   5.501   4.576 -2.0655 -2.6777 -1.6322
14904TIP3   OH266202   6.175   6.419  17.003  0.3578 -0.2880  0.2175
14904TIP3    H166203   6.136   6.410  16.915 -0.4597  0.7006  0.4580
14904TIP3    H266204   6.265   6.446  16.986  0.2418 -0.2234 -0.3311
14905TIP3   OH266205   5.276   2.064  14.417 -0.2614  0.3077 -0.2161
14905TIP3    H166206   5.317   2.009  14.350 -0.3193 -2.0868  1.5906
14905TIP3    H266207   5.311   2.030  14.500  0.4588  3.6829  1.0201
14906TIP3   OH266208   3.177   0.571   1.893  0.5139 -0.0792  0.3514
14906TIP3    H166209   3.118   0.519   1.839  1.1264 -0.5079  0.0974
14906TIP3    H266210   3.236   0.508   1.933  2.1198  0.5039 -0.9980
14907TIP3   OH266211   5.219   6.032   5.029  0.4021  0.4937 -0.1450
14907TIP3    H166212   5.242   6.118   4.993 -2.1384  0.9343 -0.8565
14907TIP3    H266213   5.152   6.050   5.095 -0.8446 -0.9741 -0.9374
14908TIP3   OH266214   0.037   5.542  11.168 -0.2480  0.2214 -0.3779
14908TIP3    H166215   0.073   5.474  11.111  0.3810 -0.5677  0.9311
14908TIP3    H266216  -0.004   5.604  11.107 -0.2515 -0.9688 -1.6384
14909TIP3   OH266217   3.193   4.020  15.296  0.0696  0.2565 -0.0508
14909TIP3    H166218   3.176   4.086  15.363  0.4921 -0.8005  1.1410
14909TIP3    H266219   3.146   3.942  15.326 -1.2775  0.2541 -1.9412
14910TIP3   OH266220   2.689   2.633   2.426 -0.9614 -0.3549 -0.9249
14910TIP3    H166221   2.708   2.697   2.358  0.5438 -0.6265 -0.7949
14910TIP3    H266222   2.632   2.568   2.384 -0.7600 -0.0616 -1.6599
14911TIP3   OH266223   6.521   6.095   6.507  0.2773 -0.4675  0.0796
14911TIP3    H166224   6.517   6.007   6.468 -2.1309 -0.0853 -0.7065
14911TIP3    H266225   6.501   6.154   6.435 -1.8085  0.4343  1.3068
14912TIP3   OH266226   3.337   5.693   2.650  0.2208  1.1629  0.6229
14912TIP3    H166227   3.338   5.678   2.744 -0.5148  3.7668  1.1405
14912TIP3    H266228   3.399   5.630   2.614  1.9585  1.3475  3.0737
14913TIP3   OH266229   5.979   3.963  12.249  0.2131  0.1320 -0.1955
14913TIP3    H166230   5.937   3.911  12.317  1.4684 -0.7806 -0.0846
14913TIP3    H266231   5.964   3.914  12.168 -0.6700  0.8557 -0.4866
14914TIP3   OH266232   3.104   6.362   4.900 -0.1954  0.2440  0.4775
14914TIP3    H166233   3.083   6.439   4.954  1.0322  0.4019  0.7660
14914TIP3    H266234   3.180   6.323   4.943  1.8994  1.3122 -1.9917
14915TIP3   OH266235   5.218   2.663  12.147  0.3756 -0.1444  0.2958
14915TIP3    H166236   5.189   2.753  12.155  1.5693  0.2986 -0.1709
14915TIP3    H266237   5.139   2.614  12.123 -0.2690  0.7720  0.5042
14916TIP3   OH266238   6.059   1.976  16.735 -0.2995 -1.3578 -0.1159
14916TIP3    H166239   5.979   2.007  16.692 -1.0139 -0.2262  1.8606
14916TIP3    H266240   6.099   2.056  16.770  0.8806 -2.0856  0.2321
14917TIP3   OH266241   1.325   3.156   0.476  0.0097 -0.4342 -0.0756
14917TIP3    H166242   1.288   3.219   0.414  2.4193  1.0086 -0.2021
14917TIP3    H266243   1.324   3.203   0.560 -1.7631 -1.7810  0.7326
14918TIP3   OH266244   2.877   0.594  16.466  0.4883 -0.4077  0.2855
14918TIP3    H166245   2.937   0.533  16.424 -0.4473 -1.6748  0.7315
14918TIP3    H266246   2.833   0.542  16.533 -1.7158  0.2317 -0.5779
14919TIP3   OH266247   5.997   5.989  10.971  0.0753  0.0338 -0.0065
14919TIP3    H166248   6.056   5.915  10.988  2.4081  0.8874 -3.3778
14919TIP3    H266249   6.054   6.058  10.937 -2.6815  1.4327 -2.2485
14920TIP3   OH266250   5.567   3.525   2.099 -0.5353 -0.8469 -0.3408
14920TIP3    H166251   5.532   3.474   2.172 -1.6041  0.7204  0.2941
14920TIP3    H266252   5.489   3.559   2.054  0.1421  0.4932 -0.5414
14921TIP3   OH266253   3.096   1.868  11.642  0.0849 -0.5465  0.2367
14921TIP3    H166254   3.060   1.871  11.554  0.7457  0.5877 -0.0178
14921TIP3    H266255   3.019   1.876  11.699 -0.1853  0.7665 -0.2776
14922TIP3   OH266256   2.579   3.207  13.962 -0.2068  0.0577 -0.2495
14922TIP3    H166257   2.500   3.190  13.911 -0.4490  0.5657 -0.0420
14922TIP3    H266258   2.609   3.293  13.932 -0.1650  0.2107  0.2337
14923TIP3   OH266259   1.310   3.190   5.283 -0.7484 -0.3135  0.3653
14923TIP3    H166260   1.372   3.222   5.349  0.2168 -0.9603 -0.1888
14923TIP3    H266261   1.269   3.269   5.248  0.4646  0.2258  0.0939
14924TIP3   OH266262   1.342   2.126  16.959 -0.3614  0.0032  0.6838
14924TIP3    H166263   1.385   2.060  16.904 -2.0724  0.4289 -1.2877
14924TIP3    H266264   1.388   2.121  17.043  1.2427 -1.8821 -0.2272
14925TIP3   OH266265   5.600   5.932  14.948 -0.2504 -0.1335 -0.5328
14925TIP3    H166266   5.535   5.928  14.878  0.5459 -2.4015 -1.2319
14925TIP3    H266267   5.645   6.015  14.935 -1.5778  0.4844 -1.3315
14926TIP3   OH266268   5.747   0.075   2.286  0.4418 -0.0630 -0.3097
14926TIP3    H166269   5.731   0.058   2.193  1.5066  2.5962 -1.0546
14926TIP3    H266270   5.662   0.063   2.328 -0.2185 -0.5927 -1.7309
14927TIP3   OH266271   0.085   3.067  12.725 -0.6397  0.9352  0.5220
14927TIP3    H166272   0.071   2.977  12.697  1.4520  1.3123 -2.2193
14927TIP3    H266273   0.135   3.060  12.807  0.5649 -0.4492 -0.2884
14928TIP3   OH266274   6.313   3.569  15.468  0.2466  0.1837 -0.0760
14928TIP3    H166275   6.291   3.498  15.528 -0.8999 -1.0181 -1.8160
14928TIP3    H266276   6.242   3.632  15.478  0.5165  0.4158  0.4314
14929TIP3   OH266277   1.056   4.909  13.938 -0.0232 -0.1620 -0.5007
14929TIP3    H166278   1.031   4.908  13.846 -1.1122 -0.6765 -0.2073
14929TIP3    H266279   1.085   4.999  13.955  0.7081 -0.2037 -1.4697
14930TIP3   OH266280   0.368   4.686  16.143  0.4247 -0.5024  0.6649
14930TIP3    H166281   0.282   4.707  16.179  1.1927 -1.0566  3.0051
14930TIP3    H266282   0.350   4.659  16.053 -1.6637  0.7191  0.6548
14931TIP3   OH266283   1.558   3.173  12.923 -0.4770  0.2481  0.2293
14931TIP3    H166284   1.530   3.086  12.950  0.7162 -0.4201 -0.5827
14931TIP3    H266285   1.652   3.175  12.942 -0.6631  1.7064  1.0920
14932TIP3   OH266286   1.293   3.329  15.268  0.0973  0.2823  0.1481
14932TIP3    H166287   1.367   3.342  15.209  1.6968  0.8227  2.1229
14932TIP3    H266288   1.327   3.269  15.335 -1.2963  0.4524  1.0472
14933TIP3   OH266289   6.323   6.432  14.865  0.0165 -0.0038  1.1616
14933TIP3    H166290   6.398   6.484  14.893 -0.1698  0.3394  1.0299
14933TIP3    H266291   6.293   6.387  14.944 -0.9450  1.5037  1.6806
14934TIP3   OH266292   1.233   4.590   0.633 -0.4972  0.0416  0.2421
14934TIP3    H166293   1.319   4.553   0.655 -0.1651 -0.5497 -1.7989
14934TIP3    H266294   1.180   4.573   0.710  0.7991 -1.0103  0.9610
14935TIP3   OH266295   3.588   4.458   2.949 -0.0519 -0.3198 -0.0229
14935TIP3    H166296   3.496   4.434   2.950 -0.3481  0.0244 -3.9649
14935TIP3    H266297   3.591   4.542   2.996 -1.2901 -1.3213  1.9849
14936TIP3   OH266298   2.163   3.550  14.757 -0.1926 -0.1524 -0.0222
14936TIP3    H166299   2.163   3.547  14.852 -1.7409  3.0429  0.1937
14936TIP3    H266300   2.074   3.528  14.731  0.3607 -1.6120 -0.8534
14937TIP3   OH266301   0.162   4.693   1.981  0.1527  0.0699  0.1963
14937TIP3    H166302   0.212   4.679   2.062 -0.0491  0.5935  0.4118
14937TIP3    H266303   0.227   4.685   1.911  0.2837 -0.6416  0.3908
14938TIP3   OH266304   4.936   1.404  16.264  0.3309  0.1491 -0.1170
14938TIP3    H166305   5.020   1.448  16.276  0.1698  0.7285 -1.0560
14938TIP3    H266306   4.927   1.395  16.169 -0.9379  0.6129 -0.0527
14939TIP3   OH266307   5.048   1.548  17.290 -0.3624  0.3101  0.3644
14939TIP3    H166308   5.085   1.463  17.266  0.3427  1.2533 -2.1980
14939TIP3    H266309   4.982   1.527  17.355  0.5143 -2.0826  0.6068
14940TIP3   OH266310   3.325   3.677  15.330  0.5637  0.4594  0.0935
14940TIP3    H166311   3.235   3.697  15.356  0.7153  0.6845  0.4395
14940TIP3    H266312   3.330   3.708  15.239  0.4688  0.9921  0.2651
14941TIP3   OH266313   0.967   2.694  14.892 -0.5326 -0.4494  0.2324
14941TIP3    H166314   0.963   2.624  14.827  0.6767  0.8242 -1.2812
14941TIP3    H266315   0.897   2.755  14.867  0.5927  0.5616 -0.5518
14942TIP3   OH266316   1.442   2.066  14.842  0.3943  0.1079 -0.5703
14942TIP3    H166317   1.517   2.124  14.837  0.5662 -0.1825 -1.7176
14942TIP3    H266318   1.479   1.978  14.834  0.0981 -0.1596  0.7148
14943TIP3   OH266319   0.953   1.542  11.213 -0.8207 -0.4625  0.1806
14943TIP3    H166320   0.929   1.567  11.302 -2.3442  2.3811 -0.8998
14943TIP3    H266321   0.870   1.538  11.166  0.1154  1.5167 -1.8219
14944TIP3   OH266322   2.651   3.700   4.966  0.2039  0.4521 -0.0169
14944TIP3    H166323   2.568   3.700   4.919  0.2864  0.5939 -0.1628
14944TIP3    H266324   2.649   3.779   5.019  0.4361  0.6876 -0.3580
14945TIP3   OH266325   0.317   2.497   3.987  0.3889  0.1214  0.4823
14945TIP3    H166326   0.333   2.581   3.943  0.3519  1.1395  2.3290
14945TIP3    H266327   0.397   2.446   3.970  0.9141  0.9793  0.3278
14946TIP3   OH266328   6.747   4.266   6.357 -0.0250 -0.2848  0.3948
14946TIP3    H166329   6.805   4.324   6.308  0.1236  0.4197  1.3937
14946TIP3    H266330   6.739   4.306   6.443 -0.6615 -1.2621  0.8082
14947TIP3   OH266331   3.610   2.256   3.148 -0.2162 -0.0929  0.2672
14947TIP3    H166332   3.653   2.298   3.222  1.8700 -1.8790  0.1503
14947TIP3    H266333   3.679   2.245   3.082 -1.4965 -0.5691 -1.0588
14948TIP3   OH266334   0.276   3.925   2.105 -0.6457  0.0738  0.6594
14948TIP3    H166335   0.336   3.864   2.148  0.4796  0.0584 -0.8702
14948TIP3    H266336   0.266   3.890   2.017 -1.3647  1.1671  0.2944
14949TIP3   OH266337   1.390   1.816   3.563  0.6488 -0.0290  0.1205
14949TIP3    H166338   1.331   1.778   3.499  0.6274 -4.0628  2.1739
14949TIP3    H266339   1.346   1.895   3.593 -0.7753  0.2851 -2.5236
14950TIP3   OH266340   5.373   4.813  11.213  0.2241  0.2155 -0.5036
14950TIP3    H166341   5.456   4.797  11.259 -0.4900 -1.8928  0.1678
14950TIP3    H266342   5.399   4.829  11.122  1.3641 -0.9794 -0.4215
14951TIP3   OH266343   5.458   2.888  12.069 -0.0475  0.0011  0.7553
14951TIP3    H166344   5.364   2.878  12.077  0.0083 -1.3290  0.0071
14951TIP3    H266345   5.473   2.983  12.071 -1.4062  0.2281  0.6854
14952TIP3   OH266346   3.637   0.423  10.276  0.6990  0.1438 -0.0117
14952TIP3    H166347   3.700   0.486  10.312 -0.4161  0.9597  0.6012
14952TIP3    H266348   3.584   0.475  10.215  1.7660 -0.9452 -1.9427
14953TIP3   OH266349   0.877   2.519  12.679  0.0845 -0.0679  0.3201
14953TIP3    H166350   0.789   2.509  12.644  0.8432 -0.8756 -1.5125
14953TIP3    H266351   0.887   2.613  12.693 -0.5509  0.2003 -0.9243
14954TIP3   OH266352   1.550   0.864  14.983  0.2029 -0.0453 -0.8175
14954TIP3    H166353   1.613   0.822  14.925  0.5775  1.3531 -1.4576
14954TIP3    H266354   1.521   0.794  15.042  0.6624 -1.2266 -1.9576
14955TIP3   OH266355   5.195   1.065  15.448 -0.1948 -0.2383 -0.0518
14955TIP3    H166356   5.157   1.033  15.530  0.9394 -0.7278  0.3044
14955TIP3    H266357   5.144   1.144  15.427 -1.0392 -0.5712  0.6732
14956TIP3   OH266358   6.696   3.860  11.628 -0.2881  0.3934 -0.3364
14956TIP3    H166359   6.766   3.919  11.599  1.3015 -0.4321  1.5489
14956TIP3    H266360   6.729   3.772  11.609 -0.3183 -0.0553  1.4676
14957TIP3   OH266361   4.754   4.634   3.151  0.1952 -0.6059  0.0253
14957TIP3    H166362   4.742   4.552   3.104 -1.2001  0.1916 -1.1031
14957TIP3    H266363   4.847   4.654   3.141 -0.2601  0.5381 -4.3507
14958TIP3   OH266364   4.136   1.408   4.711  0.3581 -0.8317 -0.3824
14958TIP3    H166365   4.193   1.336   4.683 -0.4797 -1.2065 -1.1772
14958TIP3    H266366   4.144   1.410   4.807  3.3087  0.4915 -0.5546
14959TIP3   OH266367   1.444   3.176  12.646  0.4085  0.7209 -1.0175
14959TIP3    H166368   1.502   3.186  12.721  3.0222 -1.6949 -2.5223
14959TIP3    H266369   1.499   3.192  12.570 -1.3211 -0.0832 -2.5280
14960TIP3   OH266370   0.773   3.045  12.235  0.6632  0.2063  0.0608
14960TIP3    H166371   0.745   2.989  12.307  0.6598  0.7648  0.5053
14960TIP3    H266372   0.693   3.062  12.186  0.8456 -1.0607 -0.7267
14961TIP3   OH266373   6.290   0.108   2.759 -0.0666 -0.1955 -0.1079
14961TIP3    H166374   6.258   0.062   2.682  1.5976 -0.0100 -0.9545
14961TIP3    H266375   6.215   0.159   2.790 -0.8338 -0.4706 -1.4376
14962TIP3   OH266376   4.340   6.055  16.995 -0.5417  0.5158 -0.2926
14962TIP3    H166377   4.331   5.961  17.005 -1.0222  0.7769  3.4116
14962TIP3    H266378   4.250   6.088  17.002 -0.3029  1.2692 -0.7383
14963TIP3   OH266379   2.105   3.489  12.084  0.3444 -0.1504  0.6259
14963TIP3    H166380   2.176   3.470  12.145 -0.1598 -0.7087  1.0568
14963TIP3    H266381   2.049   3.411  12.087  1.0588 -0.8317 -1.6306
14964TIP3   OH266382   0.146   3.201   0.351 -0.2083 -0.0875  0.4776
14964TIP3    H166383   0.149   3.108   0.328 -0.3618  0.0643 -0.1957
14964TIP3    H266384   0.068   3.210   0.406  0.4118 -0.5420  1.4603
14965TIP3   OH266385   3.237   6.021  12.127 -0.1295 -0.3465  0.1140
14965TIP3    H166386   3.188   6.072  12.063  0.2929 -0.4874 -0.3234
14965TIP3    H266387   3.183   5.943  12.141 -0.9281  0.3409  1.0149
14966TIP3   OH266388   4.105   0.110   0.477  0.0863  0.6505  0.4544
14966TIP3    H166389   4.061   0.096   0.393  0.8288 -1.5159  0.3458
14966TIP3    H266390   4.041   0.080   0.542  0.2009  0.5375  0.5157
14967TIP3   OH266391   1.217   0.048   2.842 -0.2569 -0.0276  0.2567
14967TIP3    H166392   1.163   0.082   2.913  0.2664  1.3467  0.0381
14967TIP3    H266393   1.298   0.021   2.885  0.7581  2.4170  0.0493
14968TIP3   OH266394   6.571   6.415   3.555  0.0357  0.0410 -0.0377
14968TIP3    H166395   6.599   6.352   3.621  0.7303  0.0929 -0.2816
14968TIP3    H266396   6.641   6.480   3.551 -0.0153  0.0583 -0.8070
14969TIP3   OH266397   4.747   4.836  12.052 -0.2522  0.5861 -0.0020
14969TIP3    H166398   4.676   4.791  12.099 -0.3352  0.9803  0.2515
14969TIP3    H266399   4.703   4.906  12.004  0.2942  3.1122  2.8903
14970TIP3   OH266400   5.002   1.368  16.764 -0.4800  0.1456  0.0785
14970TIP3    H166401   5.052   1.297  16.722  0.9320  0.7682  0.6325
14970TIP3    H266402   4.941   1.397  16.696 -1.7654 -2.1741  0.1220
14971TIP3   OH266403   3.818   3.339   6.397  0.2188 -0.5788 -0.2591
14971TIP3    H166404   3.846   3.252   6.428  1.9164  0.5485  1.5687
14971TIP3    H266405   3.890   3.397   6.420 -0.4570  1.1891 -2.3351
14972TIP3   OH266406   1.421   6.724   1.793  0.4191  0.0588  0.7208
14972TIP3    H166407   1.403   6.647   1.848 -1.2220 -0.5469 -0.5917
14972TIP3    H266408   1.391   6.798   1.846 -1.1832 -0.5195  0.6713
14973TIP3   OH266409   3.044   2.651  15.747 -0.0706  0.0772 -0.0093
14973TIP3    H166410   2.967   2.603  15.776  1.2011 -0.7459  2.2697
14973TIP3    H266411   3.010   2.734  15.715 -1.9897 -0.7723 -0.3006
14974TIP3   OH266412   3.773   4.885  11.014 -0.3005  0.4142 -0.3354
14974TIP3    H166413   3.745   4.921  11.099  0.9669  0.8975 -0.0943
14974TIP3    H266414   3.740   4.795  11.014  1.6398 -0.4150  1.7385
14975TIP3   OH266415   5.322   3.055  14.756  0.0258  0.2784  0.5772
14975TIP3    H166416   5.401   3.014  14.720  0.1202  0.4458  0.5897
14975TIP3    H266417   5.251   2.997  14.729  0.0766  0.4879 -0.0375
14976TIP3   OH266418   0.162   2.970  11.896 -0.1333  0.2429 -0.3150
14976TIP3    H166419   0.094   3.013  11.843 -0.6394 -0.6431 -0.3995
14976TIP3    H266420   0.242   3.019  11.876  0.1982 -1.3383 -3.6011
14977TIP3   OH266421   2.629   6.622   3.442  0.1537 -0.8117  0.4275
14977TIP3    H166422   2.592   6.620   3.530  0.6408 -0.8872  0.6287
14977TIP3    H266423   2.655   6.531   3.425 -0.5907 -0.9404 -0.0715
14978TIP3   OH266424   2.072   4.203   4.307  0.1851  0.2612  0.0864
14978TIP3    H166425   2.082   4.143   4.233 -0.3101  1.1788 -0.7521
14978TIP3    H266426   1.995   4.170   4.353 -0.6033  0.7335 -0.8615
14979TIP3   OH266427   0.163   5.750   3.036  0.2917 -0.1387  0.2079
14979TIP3    H166428   0.248   5.734   3.077 -0.1845  0.6392  1.5660
14979TIP3    H266429   0.177   5.729   2.944  1.9518 -0.0616  0.3994
14980TIP3   OH266430   0.927   4.375   2.244  0.1312 -0.1807 -0.1725
14980TIP3    H166431   0.958   4.429   2.317 -1.3913  0.5020 -0.0007
14980TIP3    H266432   0.920   4.287   2.279  3.0116 -0.6524 -0.5509
14981TIP3   OH266433   6.534   5.896  17.033  0.0045  0.1723 -0.5974
14981TIP3    H166434   6.560   5.984  17.007  0.8816 -0.2410 -1.1826
14981TIP3    H266435   6.501   5.856  16.952  0.0412 -0.1797 -0.4397
14982TIP3   OH266436   1.589   6.561  11.543  0.0993 -0.1456 -0.1599
14982TIP3    H166437   1.586   6.467  11.524  0.3027 -0.0734 -0.5677
14982TIP3    H266438   1.500   6.584  11.567  0.3122 -0.7113  1.2704
14983TIP3   OH266439   6.235   3.964   0.666 -0.2501  0.2197 -0.0184
14983TIP3    H166440   6.296   3.890   0.670  1.4286  1.2842 -3.1956
14983TIP3    H266441   6.258   4.010   0.586 -2.2753  3.3545  1.0396
14984TIP3   OH266442   2.400   3.388  15.218  0.3367  0.3163 -0.2443
14984TIP3    H166443   2.401   3.300  15.182  0.1225  0.7636 -1.3874
14984TIP3    H266444   2.487   3.422  15.201 -0.4453  1.3615 -2.5565
14985TIP3   OH266445   5.759   1.143  16.122 -0.5056 -0.1795  0.1952
14985TIP3    H166446   5.791   1.100  16.044  2.0089 -0.3117  1.2087
14985TIP3    H266447   5.753   1.074  16.188  0.8244  0.4747  1.0525
14986TIP3   OH266448   0.918   2.488   5.020 -0.2264 -0.0182 -0.1164
14986TIP3    H166449   1.012   2.507   5.019  0.1500 -1.3221  2.2488
14986TIP3    H266450   0.877   2.569   5.051  0.2780  0.0730  0.3169
14987TIP3   OH266451   4.009   4.511   4.266  0.0107 -0.5872  0.2813
14987TIP3    H166452   3.926   4.488   4.224 -0.4510  1.1276  0.1795
14987TIP3    H266453   4.072   4.450   4.229 -0.9025 -0.8435 -0.9160
14988TIP3   OH266454   5.908   0.421  12.809 -0.2880  0.3783  0.0968
14988TIP3    H166455   5.903   0.340  12.759 -0.0979 -0.7013  1.7425
14988TIP3    H266456   5.884   0.489  12.747 -1.6916 -1.0608 -1.0326
14989TIP3   OH266457   2.292   3.910  12.729  0.2531 -0.7036  0.8367
14989TIP3    H166458   2.205   3.936  12.700  0.4471 -0.6788  0.2559
14989TIP3    H266459   2.301   3.947  12.817 -0.5037 -1.1296  1.1009
14990TIP3   OH266460   2.310   4.462  12.620  0.6214  0.6880 -0.3958
14990TIP3    H166461   2.368   4.390  12.595 -0.0923 -0.2237  0.5146
14990TIP3    H266462   2.227   4.443  12.576 -0.0042  0.1748  0.9574
14991TIP3   OH266463   2.599   4.302   1.818 -0.0144  0.6776  0.0011
14991TIP3    H166464   2.610   4.336   1.730 -1.3835  2.2236  0.3748
14991TIP3    H266465   2.605   4.379   1.874 -1.7079  0.0966  1.0386
14992TIP3   OH266466   4.797   1.745  16.188  0.2947 -0.1140  0.2658
14992TIP3    H166467   4.732   1.679  16.213 -0.0564  0.2344  0.2897
14992TIP3    H266468   4.747   1.827  16.182  0.6979  0.1247  0.1008
14993TIP3   OH266469   1.674   4.118  14.202 -1.0492  0.4279  0.0627
14993TIP3    H166470   1.694   4.206  14.234 -1.7056  0.9976 -1.0382
14993TIP3    H266471   1.595   4.129  14.150 -0.7544 -0.6903 -0.6532
14994TIP3   OH266472   0.140   2.022  14.099 -0.0773 -0.0518 -0.1751
14994TIP3    H166473   0.226   2.047  14.066  0.0370  0.8442  0.7548
14994TIP3    H266474   0.079   2.045  14.029  0.1735  1.6439  0.1288
14995TIP3   OH266475   4.311   2.524  12.365 -0.2215  0.3080  0.5661
14995TIP3    H166476   4.340   2.611  12.338 -0.9535  0.4067  0.0619
14995TIP3    H266477   4.218   2.523  12.344 -0.4624 -0.2041  1.5976
14996TIP3   OH266478   1.659   2.088  16.673 -0.6412  0.1822 -0.2470
14996TIP3    H166479   1.754   2.095  16.664 -0.6601 -0.1724 -0.7430
14996TIP3    H266480   1.636   2.157  16.735 -0.1365  0.6701 -0.5923
14997TIP3   OH266481   3.675   2.146  11.042  0.4306  0.0577 -0.2806
14997TIP3    H166482   3.673   2.215  10.975 -0.2348 -1.0986 -1.4946
14997TIP3    H266483   3.584   2.138  11.070  0.2962 -1.1527 -1.0285
14998TIP3   OH266484   5.642   5.322   1.183  0.1876  0.3330 -0.7946
14998TIP3    H166485   5.649   5.229   1.162 -0.1703  0.0804  0.1651
14998TIP3    H266486   5.633   5.365   1.098  0.9823 -0.4422 -1.2943
14999TIP3   OH266487   1.279   0.270  15.000  0.1727  0.0079  0.0090
14999TIP3    H166488   1.322   0.309  14.925 -1.7174  0.7958 -0.7094
14999TIP3    H266489   1.201   0.228  14.965 -0.9321  0.6705  1.5459
15000TIP3   OH266490   3.091   0.246   5.787 -0.4952 -0.0912 -0.1292
15000TIP3    H166491   3.084   0.238   5.692  0.4749 -2.0897 -0.0873
15000TIP3    H266492   3.183   0.266   5.803 -0.2139 -1.7267  0.4412
15001TIP3   OH266493   1.276   3.737  16.122 -0.2018 -0.5392  0.1381
15001TIP3    H166494   1.351   3.737  16.181 -0.2759 -0.7784  0.2316
15001TIP3    H266495   1.208   3.785  16.170  0.2127  0.5844 -0.3574
15002TIP3   OH266496   6.471   5.660   1.723  0.1139  0.0040 -0.0402
15002TIP3    H166497   6.405   5.730   1.725 -1.2013 -1.1782  0.1045
15002TIP3    H266498   6.467   5.621   1.811  1.3537  0.2023  0.1169
15003TIP3   OH266499   4.111   1.891   4.009 -0.0138  0.8628  0.2290
15003TIP3    H166500   4.102   1.844   4.091  2.8283 -1.6726 -0.7347
15003TIP3    H266501   4.135   1.980   4.034  2.0780 -0.1683  2.2219
15004TIP3   OH266502   3.193   6.417  16.214  0.1731 -0.1215 -0.0150
15004TIP3    H166503   3.280   6.455  16.207  1.3189 -2.0274  2.5422
15004TIP3    H266504   3.166   6.434  16.304 -1.4477 -0.8851 -0.3213
15005TIP3   OH266505   5.536   2.258   6.475  0.5144  0.6492  0.3546
15005TIP3    H166506   5.533   2.238   6.381  1.7062  0.7768  0.2741
15005TIP3    H266507   5.495   2.344   6.482  0.1852  0.5274 -0.0124
15006TIP3   OH266508   0.388   1.888   0.684  0.2519  0.4581  0.0238
15006TIP3    H166509   0.307   1.884   0.633  0.0071  0.1282  0.4200
15006TIP3    H266510   0.358   1.892   0.775  0.6825  0.5318  0.1653
15007TIP3   OH266511   4.536   3.550  12.240  0.3931  0.0586 -0.3757
15007TIP3    H166512   4.606   3.584  12.184 -0.0159  0.6191 -0.5555
15007TIP3    H266513   4.577   3.540  12.326  0.2341  2.2191  0.0108
15008TIP3   OH266514   3.459   1.122   4.534 -0.9911 -0.4988 -0.8645
15008TIP3    H166515   3.394   1.150   4.469 -0.1559  0.4889 -1.3153
15008TIP3    H266516   3.537   1.101   4.483 -1.2894 -2.8995 -0.4470
15009TIP3   OH266517   6.694   4.797  11.633  0.2523 -0.4203  0.3550
15009TIP3    H166518   6.733   4.884  11.640 -1.5253  0.6758 -1.8457
15009TIP3    H266519   6.699   4.761  11.721  3.0977  0.9413  0.8710
15010TIP3   OH266520   6.401   5.112  15.091  0.5288 -0.6545 -0.0469
15010TIP3    H166521   6.376   5.161  15.013 -1.3027  1.0752  1.4865
15010TIP3    H266522   6.495   5.100  15.083  0.7510  1.4545 -1.4775
15011TIP3   OH266523   5.059   6.546  16.264  0.4502  0.7950  0.8778
15011TIP3    H166524   4.969   6.547  16.296 -0.4740 -2.7290 -1.0573
15011TIP3    H266525   5.059   6.605  16.188 -0.4042  0.3739  0.5388
15012TIP3   OH266526   1.274   0.635   2.206 -0.0659  0.1223  0.1914
15012TIP3    H166527   1.322   0.622   2.288  0.3008  0.8598  0.1019
15012TIP3    H266528   1.341   0.663   2.143 -0.6756  1.7062  0.2021
15013TIP3   OH266529   4.199   6.652   4.256 -0.7392 -0.3024 -0.3734
15013TIP3    H166530   4.131   6.645   4.322 -0.8817  0.1981 -0.4651
15013TIP3    H266531   4.182   6.736   4.212  1.1890  0.8760  0.9968
15014TIP3   OH266532   5.956   4.072   5.219 -0.1304  0.3426  0.5383
15014TIP3    H166533   5.949   3.994   5.165  1.0578  0.8356 -0.3712
15014TIP3    H266534   5.921   4.142   5.165 -0.3396  0.5955  0.9976
15015TIP3   OH266535   2.827   2.923   0.879  0.0054 -0.2547 -0.4584
15015TIP3    H166536   2.775   2.954   0.953  0.3649  0.7952 -0.6206
15015TIP3    H266537   2.854   2.835   0.903 -0.5599 -0.2259  0.3047
15016TIP3   OH266538   6.446   3.710  11.448 -0.3464 -0.2397  0.1405
15016TIP3    H166539   6.465   3.803  11.449  0.0478 -0.3035 -0.8969
15016TIP3    H266540   6.362   3.703  11.403  0.6109 -0.5374 -1.6792
15017TIP3   OH266541   5.715   1.326  11.934  0.0276 -0.2246  0.2860
15017TIP3    H166542   5.658   1.402  11.928 -0.9573 -0.8293  1.6274
15017TIP3    H266543   5.803   1.360  11.916 -0.6516  0.8014 -1.3417
15018TIP3   OH266544   1.689   6.774  11.965  1.1083  0.2386  0.2941
15018TIP3    H166545   1.620   6.737  12.021  2.1541  0.2863  1.6744
15018TIP3    H266546   1.718   6.852  12.011  1.0488  1.0846 -1.0520
15019TIP3   OH266547   5.252   3.874  16.350  0.7065  0.6117  0.4560
15019TIP3    H166548   5.173   3.927  16.337  1.6194  1.9862  0.3289
15019TIP3    H266549   5.281   3.852  16.262 -0.6264 -1.6910  0.4910
15020TIP3   OH266550   2.801   1.710   4.905  0.1873 -0.3127 -1.3439
15020TIP3    H166551   2.768   1.620   4.914 -2.7244  0.7583  0.2352
15020TIP3    H266552   2.860   1.721   4.979 -3.9397  0.6171  2.2663
15021TIP3   OH266553   1.819   6.477   0.007 -0.3853  0.1820  0.3245
15021TIP3    H166554   1.732   6.478   0.047 -1.1912  2.0576 -1.2649
15021TIP3    H266555   1.802   6.475  -0.087  1.3107  0.1809 -0.0184
15022TIP3   OH266556   1.172   1.216  10.678  0.3026  0.6090  0.0946
15022TIP3    H166557   1.110   1.185  10.612 -0.6370  2.0205  0.2505
15022TIP3    H266558   1.242   1.257  10.627  0.5401  0.0220 -0.0581
15023TIP3   OH266559   2.439   6.326   2.482  0.1426  0.2567  0.1504
15023TIP3    H166560   2.437   6.417   2.452 -0.2537  0.3933  0.5808
15023TIP3    H266561   2.440   6.275   2.401  0.3046  0.6384 -0.0960
15024TIP3   OH266562   3.843   1.190   1.560  0.3851  0.1003  0.3110
15024TIP3    H166563   3.824   1.239   1.641 -0.9138 -0.6503  0.4965
15024TIP3    H266564   3.908   1.125   1.586 -0.3132 -0.3911  0.8663
15025TIP3   OH266565   0.715   3.931   3.485 -0.0861 -0.2318 -0.1543
15025TIP3    H166566   0.646   3.994   3.504  0.6356  1.1021 -1.7301
15025TIP3    H266567   0.669   3.848   3.474 -1.1176  0.0918  1.3784
15026TIP3   OH266568   4.206   0.426  10.918  0.5006  0.0920 -0.3077
15026TIP3    H166569   4.159   0.470  10.988  1.0231  1.3049 -0.7001
15026TIP3    H266570   4.298   0.451  10.931  1.1563 -2.3885  0.5807
15027TIP3   OH266571   1.433   4.530  14.398 -0.1608 -0.3018 -0.4599
15027TIP3    H166572   1.409   4.495  14.312  0.2759  1.0427 -1.1499
15027TIP3    H266573   1.455   4.452  14.449  0.4582 -1.0843 -1.8460
15028TIP3   OH266574   3.930   3.444  11.865 -0.1874 -0.0908 -0.4937
15028TIP3    H166575   3.959   3.490  11.786 -0.6878 -0.3290 -0.8241
15028TIP3    H266576   3.905   3.514  11.925  1.3017  0.1227 -0.1012
15029TIP3   OH266577   5.348   1.866  11.487  0.2448 -0.5311  0.4627
15029TIP3    H166578   5.306   1.949  11.509 -0.8737 -0.8545 -0.3508
15029TIP3    H266579   5.356   1.819  11.570  0.9959  0.4211  0.9463
15030TIP3   OH266580   3.353   0.784  12.830 -0.0398  0.2429 -0.1280
15030TIP3    H166581   3.343   0.810  12.739 -1.2609  2.6089  0.6252
15030TIP3    H266582   3.268   0.747  12.854  0.0498  0.2820  0.2546
15031TIP3   OH266583   1.522   4.851   1.486 -0.1320  0.3260  0.2539
15031TIP3    H166584   1.600   4.904   1.469  0.6369 -0.7318  0.3457
15031TIP3    H266585   1.530   4.777   1.426 -0.9405  0.0774  0.4407
15032TIP3   OH266586   6.556   4.853  12.416  0.1703 -0.1032  0.3851
15032TIP3    H166587   6.636   4.884  12.458 -0.0537 -0.8826  1.4343
15032TIP3    H266588   6.562   4.757  12.420 -1.1217 -0.1883  1.1395
15033TIP3   OH266589   0.589   6.733   0.773  0.4329  0.2088 -0.2104
15033TIP3    H166590   0.497   6.706   0.777  0.0895  1.3242 -0.1564
15033TIP3    H266591   0.621   6.722   0.862 -0.2797  1.8701  0.2819
15034TIP3   OH266592   6.547   6.796  13.154 -0.4108 -0.5602 -0.2040
15034TIP3    H166593   6.621   6.745  13.186 -0.3056  0.1656  0.7540
15034TIP3    H266594   6.471   6.756  13.195 -0.4796 -0.8617 -0.6231
15035TIP3   OH266595   0.067   4.998   5.551 -0.1008 -0.1309 -0.1916
15035TIP3    H166596   0.121   5.074   5.532 -1.5978  0.6822 -1.4539
15035TIP3    H266597   0.129   4.927   5.563  1.3188  1.1761  0.5144
15036TIP3   OH266598   3.603   3.846   0.311  0.0112 -0.1639  0.1644
15036TIP3    H166599   3.543   3.855   0.385  2.3956 -1.2726  2.3992
15036TIP3    H266600   3.641   3.934   0.301 -0.3010 -0.0145  0.2904
15037TIP3   OH266601   2.709   0.175   2.937  0.8426 -0.2737 -0.6327
15037TIP3    H166602   2.676   0.193   3.025  0.4300 -1.8023 -0.4471
15037TIP3    H266603   2.630   0.156   2.886  1.0528  0.9119 -1.4300
15038TIP3   OH266604   6.471   1.997  13.953  0.0342  0.0264 -0.0263
15038TIP3    H166605   6.486   1.913  13.912 -0.5191 -0.8200  1.4214
15038TIP3    H266606   6.390   1.985  14.003  0.3607  1.1752  0.8172
15039TIP3   OH266607   4.438   6.398  13.169 -0.8612  0.1177  0.1298
15039TIP3    H166608   4.362   6.433  13.121 -1.0559 -0.5829 -0.0880
15039TIP3    H266609   4.443   6.451  13.248 -0.9420  0.8601 -0.3486
15040TIP3   OH266610   2.298   2.293   0.127 -0.2961 -0.0101  0.1982
15040TIP3    H166611   2.354   2.369   0.140  1.2652 -1.1450  0.4248
15040TIP3    H266612   2.277   2.295   0.033 -1.3894  1.4083  0.4452
15041TIP3   OH266613   0.630   5.504   1.113  0.3843 -0.2369  0.0314
15041TIP3    H166614   0.568   5.561   1.158  0.5989 -2.1838  3.0764
15041TIP3    H266615   0.715   5.546   1.127  0.3679 -0.4728  0.8851
15042TIP3   OH266616   3.497   2.879  14.958  0.0331  0.1712 -0.6446
15042TIP3    H166617   3.427   2.847  14.901  0.0053  1.4517 -1.3892
15042TIP3    H266618   3.498   2.974  14.942  0.5042  0.4614  0.9708
15043TIP3   OH266619   5.321   5.206   5.254  0.4746 -0.1518  0.2844
15043TIP3    H166620   5.375   5.196   5.176  1.1536  0.4574  0.6658
15043TIP3    H266621   5.338   5.126   5.305 -0.5592 -0.9128 -0.5227
15044TIP3   OH266622   3.824   1.526   2.755 -0.4183  0.2060 -0.2231
15044TIP3    H166623   3.904   1.562   2.719  0.5946  0.8043  2.4349
15044TIP3    H266624   3.759   1.595   2.744 -0.5000 -0.0927 -1.9192
15045TIP3   OH266625   4.125   6.366  13.068  0.1529  0.7835 -0.5612
15045TIP3    H166626   4.184   6.297  13.038 -0.9256 -0.0157 -0.8924
15045TIP3    H266627   4.099   6.338  13.156 -0.9970  0.2755 -1.0448
15046TIP3   OH266628   4.847   1.881   2.334  0.2207  0.6897  0.0995
15046TIP3    H166629   4.916   1.824   2.369  0.2039  0.4492 -0.2615
15046TIP3    H266630   4.774   1.822   2.316  0.5556  0.6522 -1.2386
15047TIP3   OH266631   5.914   2.050   1.016  0.1589  0.5688 -0.1551
15047TIP3    H166632   5.838   1.992   1.024  0.0934  0.4893 -1.2921
15047TIP3    H266633   5.884   2.132   1.056  0.4621 -0.3228  2.0399
15048TIP3   OH266634   4.502   0.471   5.600 -0.0410 -0.3188 -0.6981
15048TIP3    H166635   4.564   0.486   5.528 -0.0607 -0.6299 -0.7837
15048TIP3    H266636   4.557   0.451   5.675  0.0361  1.3700 -0.2705
15049TIP3   OH266637   3.890   6.774  11.821 -0.7302  0.5219 -0.8201
15049TIP3    H166638   3.870   6.711  11.890 -0.5769  0.4827 -0.8124
15049TIP3    H266639   3.963   6.736  11.773 -0.3226  0.9106 -0.5221
15050TIP3   OH266640   0.931   6.559   3.069 -0.0883 -0.1347  0.2382
15050TIP3    H166641   0.903   6.500   3.139 -1.3907 -0.1999 -0.2945
15050TIP3    H266642   0.966   6.635   3.114 -1.3171  0.0132  0.9856
15051TIP3   OH266643   6.557   1.284   1.989 -0.2956 -0.3458  0.5260
15051TIP3    H166644   6.479   1.322   2.029 -0.8851 -1.7698  0.7576
15051TIP3    H266645   6.528   1.253   1.904  0.1832 -0.2743  0.3323
15052TIP3   OH266646   0.634   1.506  15.215  0.0967 -0.1023 -0.4090
15052TIP3    H166647   0.728   1.520  15.210  0.3099 -0.5621  1.6218
15052TIP3    H266648   0.620   1.418  15.180  0.9237 -1.4430  2.3336
15053TIP3   OH266649   4.018   2.599   1.642  0.0170  0.7401 -0.1229
15053TIP3    H166650   3.923   2.592   1.648 -0.0505  2.1056  0.7614
15053TIP3    H266651   4.052   2.529   1.699 -0.4690  0.9789  0.4629
15054TIP3   OH266652   2.319   0.904  14.764 -0.0792  0.1235  0.0288
15054TIP3    H166653   2.232   0.910  14.724  0.1387  0.5526 -0.3901
15054TIP3    H266654   2.321   0.817  14.803 -0.5521 -0.0434 -0.3052
15055TIP3   OH266655   5.410   3.087   2.041  0.2519  0.1130  0.2607
15055TIP3    H166656   5.322   3.096   2.077 -0.4661  0.9172 -1.5976
15055TIP3    H266657   5.468   3.116   2.112 -0.9301 -0.6498  1.5963
15056TIP3   OH266658   0.692   5.210  14.581 -0.1472 -0.4138 -0.3244
15056TIP3    H166659   0.780   5.192  14.548 -0.3674  0.2351 -1.2944
15056TIP3    H266660   0.703   5.215  14.676  0.7205 -1.0820 -0.3763
15057TIP3   OH266661   6.123   1.422   2.252  0.1294 -0.1573  0.5292
15057TIP3    H166662   6.057   1.355   2.231 -1.2772  1.2637  0.2096
15057TIP3    H266663   6.118   1.432   2.347  1.8038 -1.8912  0.8684
15058TIP3   OH266664   5.455   3.286   0.970 -0.2147 -0.8000 -0.1809
15058TIP3    H166665   5.365   3.275   0.941 -0.6314 -3.3355  1.6658
15058TIP3    H266666   5.500   3.207   0.941  1.6912  0.7445 -1.7268
15059TIP3   OH266667   4.239   0.407   5.292 -0.4131 -0.2116  0.4082
15059TIP3    H166668   4.246   0.464   5.215 -1.0707 -0.2937  0.2783
15059TIP3    H266669   4.239   0.318   5.256 -2.1514 -0.2289  0.3494
15060TIP3   OH266670   4.820   1.971   4.892  0.3266  0.3552  0.4508
15060TIP3    H166671   4.765   1.947   4.818 -0.6310  0.6301  1.0559
15060TIP3    H266672   4.786   1.920   4.966  0.7383  0.6888  0.8842
15061TIP3   OH266673   5.255   1.951   0.819 -0.4508 -0.0196  0.4679
15061TIP3    H166674   5.186   1.950   0.885 -0.7251 -0.8561  0.1842
15061TIP3    H266675   5.240   1.871   0.768  0.0632  0.3569 -0.2841
15062TIP3   OH266676   5.035   2.963   6.656  0.0903 -0.4773  0.0185
15062TIP3    H166677   5.065   3.023   6.588  0.8370  0.2994  1.0094
15062TIP3    H266678   5.049   2.876   6.618 -2.9300 -0.1294 -2.2708
15063TIP3   OH266679   1.723   1.014   2.685 -0.4599  0.0312  0.4677
15063TIP3    H166680   1.723   0.919   2.674 -2.5626  0.0336  0.0523
15063TIP3    H266681   1.651   1.045   2.630  1.0566  2.0462 -0.5332
15064TIP3   OH266682   1.896   6.403  16.579 -0.0157  0.1058  0.0168
15064TIP3    H166683   1.837   6.359  16.517 -0.8885  1.8703 -0.4583
15064TIP3    H266684   1.974   6.424  16.527  0.9293 -1.8294  0.5356
15065TIP3   OH266685   2.372   1.506  11.545  0.7669 -1.0469  0.0795
15065TIP3    H166686   2.366   1.433  11.607  1.7958 -0.5763  0.7651
15065TIP3    H266687   2.389   1.583  11.600 -1.5490 -0.0379 -0.5220
15066TIP3   OH266688   1.689   2.888  14.218 -0.2623  0.6761 -0.1011
15066TIP3    H166689   1.708   2.888  14.312  0.3766  2.8023 -0.1717
15066TIP3    H266690   1.717   2.802  14.187 -2.7042 -1.0235  2.0130
15067TIP3   OH266691   0.634   5.550   1.597 -0.6113 -0.1780  0.0606
15067TIP3    H166692   0.549   5.594   1.589 -0.3238  0.1017 -2.3564
15067TIP3    H266693   0.676   5.565   1.512  0.8224 -2.4776  0.2938
15068TIP3   OH266694   5.134   1.868   1.048  0.3320  0.3540 -0.1820
15068TIP3    H166695   5.132   1.814   1.127  0.4805 -0.3196 -0.6253
15068TIP3    H266696   5.063   1.832   0.993 -0.3801  1.4099  0.0209
15069TIP3   OH266697   2.938   0.378   3.143 -0.5212 -0.0226 -0.2520
15069TIP3    H166698   2.907   0.468   3.138  0.2370  0.3538  1.1269
15069TIP3    H266699   2.941   0.348   3.053  0.2684  1.7207 -0.8505
15070TIP3   OH266700   5.610   3.230  12.974 -0.3161 -0.4450 -0.1524
15070TIP3    H166701   5.545   3.161  12.988 -0.8832  0.1280  0.0934
15070TIP3    H266702   5.558   3.310  12.964  0.2726 -0.1892 -1.4425
15071TIP3   OH266703   2.091   1.007  15.121 -0.1151 -0.1443 -0.0972
15071TIP3    H166704   2.099   1.093  15.162  1.1475  1.0550 -2.5945
15071TIP3    H266705   2.181   0.982  15.100 -0.4892 -1.9786  0.3281
15072TIP3   OH266706   4.160   6.754  16.782 -0.5051  0.0704  0.1286
15072TIP3    H166707   4.082   6.805  16.759  0.1255  0.2307 -1.8142
15072TIP3    H266708   4.216   6.759  16.704  0.6628 -1.5312  0.8160
15073TIP3   OH266709   4.975   1.623  13.580  0.1813 -0.2970 -0.3432
15073TIP3    H166710   4.917   1.547  13.576 -1.7850  1.1760 -1.3317
15073TIP3    H266711   4.993   1.635  13.674 -0.0585 -1.5351 -0.1312
15074TIP3   OH266712   3.299   3.701  12.719  0.4874 -0.2927 -0.1696
15074TIP3    H166713   3.234   3.701  12.649 -3.0149  0.4746  2.7602
15074TIP3    H266714   3.326   3.610  12.727 -0.0682 -0.6124 -1.5872
15075TIP3   OH266715   6.689   1.476   5.649  0.1444 -0.0643 -0.4447
15075TIP3    H166716   6.718   1.385   5.642  0.1709 -0.1279  0.3507
15075TIP3    H266717   6.602   1.470   5.689  0.7752  0.3168  1.0528
15076TIP3   OH266718   3.762   0.223  12.118 -0.4263 -0.2965 -0.1010
15076TIP3    H166719   3.690   0.197  12.061  0.7329  0.2230 -1.8690
15076TIP3    H266720   3.838   0.224  12.062  0.7039  0.7098  1.3702
15077TIP3   OH266721   3.353   3.443  12.709 -0.0404  0.1911  0.6961
15077TIP3    H166722   3.307   3.422  12.789 -1.1059 -0.2123 -0.0049
15077TIP3    H266723   3.445   3.425  12.729 -0.3020 -0.0108  1.7763
15078TIP3   OH266724   4.481   3.815  16.276 -0.4091 -0.3039 -0.7057
15078TIP3    H166725   4.434   3.889  16.237 -0.5894  0.4235  0.8119
15078TIP3    H266726   4.417   3.774  16.333 -0.4230 -1.9179 -1.8193
15079TIP3   OH266727   0.699   2.218   0.724  0.4454 -0.6318  0.4172
15079TIP3    H166728   0.700   2.284   0.794 -1.7192 -1.0207  0.8791
15079TIP3    H266729   0.622   2.241   0.671 -0.4698 -2.8852  0.7001
15080TIP3   OH266730   6.173   4.726  14.990  0.1174  0.4201 -0.3582
15080TIP3    H166731   6.125   4.678  15.058  1.0625 -1.0495 -0.6807
15080TIP3    H266732   6.170   4.817  15.019  1.1331 -0.2413  2.0912
15081TIP3   OH266733   0.981   5.123  11.286  0.6320 -0.6840  0.3401
15081TIP3    H166734   1.009   5.125  11.195  0.4691  2.0280  0.2591
15081TIP3    H266735   0.946   5.035  11.299 -0.2687 -0.8536 -2.5159
15082TIP3   OH266736   1.365   4.468   1.298  0.1426  1.1945  0.1804
15082TIP3    H166737   1.302   4.399   1.277  2.4991 -0.8182 -0.7573
15082TIP3    H266738   1.342   4.494   1.387 -1.3922 -0.1473  0.2344
15083TIP3   OH266739   1.617   2.472   3.591 -0.4587 -0.5899  0.0442
15083TIP3    H166740   1.588   2.391   3.633 -1.0987 -0.0885  0.5921
15083TIP3    H266741   1.584   2.466   3.501 -0.9893 -0.6995  0.2400
15084TIP3   OH266742   0.426   2.145  13.707  0.2472  0.5261  0.5284
15084TIP3    H166743   0.476   2.161  13.627 -1.2182  2.3602 -0.0850
15084TIP3    H266744   0.402   2.233  13.738 -1.6611 -0.2436  1.3850
15085TIP3   OH266745   5.944   5.063   0.359  0.3367  0.6650  0.5947
15085TIP3    H166746   5.906   5.085   0.274  0.1777  2.8955  1.1935
15085TIP3    H266747   6.027   5.111   0.361  0.6568  0.0991  1.4484
15086TIP3   OH266748   1.867   1.543  12.090 -0.2598 -0.5288 -0.4829
15086TIP3    H166749   1.882   1.485  12.016  1.8443  0.6100 -1.0166
15086TIP3    H266750   1.947   1.538  12.142 -0.1366  1.5881 -0.3616
15087TIP3   OH266751   0.151   6.264  13.814  0.3298 -0.1186  0.0660
15087TIP3    H166752   0.184   6.302  13.733  2.0789 -1.6281  0.0150
15087TIP3    H266753   0.085   6.327  13.845  0.7420  1.2491 -1.6900
15088TIP3   OH266754   0.707   4.277   6.098 -0.6125 -0.3060 -0.5175
15088TIP3    H166755   0.620   4.276   6.058 -0.9347  0.0856  0.1525
15088TIP3    H266756   0.689   4.281   6.192  0.1194 -1.8761 -0.2887
15089TIP3   OH266757   0.693   0.068  16.472 -0.0814  0.3619  0.1308
15089TIP3    H166758   0.635   0.046  16.399  0.2818 -0.2514  0.0163
15089TIP3    H266759   0.752  -0.007  16.478 -0.1647  0.3723  1.1220
15090TIP3   OH266760   3.107   2.579   0.863  0.3004 -0.3939 -0.0195
15090TIP3    H166761   3.063   2.500   0.832  0.8397 -0.7222  0.0233
15090TIP3    H266762   3.089   2.582   0.957 -0.1566 -0.1784 -0.1148
15091TIP3   OH266763   2.283   1.361  12.116 -0.8107 -0.2817 -0.1379
15091TIP3    H166764   2.366   1.409  12.110 -1.9508  1.8444  0.1591
15091TIP3    H266765   2.294   1.306  12.193  0.4976 -0.4104 -0.3835
15092TIP3   OH266766   4.233   0.330   5.662  0.1720 -0.4116 -0.2038
15092TIP3    H166767   4.304   0.281   5.622 -1.1106 -1.2864 -1.5209
15092TIP3    H266768   4.263   0.420   5.664  2.6510 -1.1427  2.3650
15093TIP3   OH266769   1.129   0.519  16.174 -0.2966 -0.1103 -0.1530
15093TIP3    H166770   1.091   0.543  16.258 -0.7086  2.9188 -1.0707
15093TIP3    H266771   1.206   0.575  16.166  0.4041 -1.1923 -1.2990
15094TIP3   OH266772   0.481   4.634  11.673 -0.2268 -0.2364  0.5061
15094TIP3    H166773   0.446   4.717  11.641  0.3428 -0.1335  0.1328
15094TIP3    H266774   0.457   4.570  11.605 -0.7790 -0.4142  0.8544
15095TIP3   OH266775   1.861   3.870   2.135  0.2093 -0.5117 -0.1432
15095TIP3    H166776   1.831   3.847   2.048 -0.1787  1.6287 -0.6247
15095TIP3    H266777   1.862   3.787   2.183 -0.4916 -1.5741 -1.8828
15096TIP3   OH266778   1.153   3.057  15.294 -0.2367 -0.2611  0.1925
15096TIP3    H166779   1.142   3.137  15.242  0.9022  0.1520  0.5451
15096TIP3    H266780   1.127   2.986  15.236  2.6100  0.0169 -1.5759
15097TIP3   OH266781   2.438   3.639  13.546  0.0583  0.4433 -0.3716
15097TIP3    H166782   2.525   3.633  13.585  0.0611  0.7574 -0.3312
15097TIP3    H266783   2.413   3.731  13.555  0.1200  0.5519 -1.2466
15098TIP3   OH266784   3.951   1.007   3.912  0.6685 -0.6389 -0.0710
15098TIP3    H166785   3.877   0.987   3.970 -0.6490 -2.1123 -2.1500
15098TIP3    H266786   3.923   1.084   3.863  1.0022 -0.5252 -0.0857
15099TIP3   OH266787   4.947   4.667  11.607 -0.2913 -0.7957 -0.5477
15099TIP3    H166788   4.942   4.673  11.511  1.3439  1.6160 -0.5731
15099TIP3    H266789   4.903   4.745  11.639  1.0478 -0.4517  0.5569
15100TIP3   OH266790   3.467   2.361  14.666 -0.2772 -0.1101 -0.2654
15100TIP3    H166791   3.382   2.405  14.662  0.7478  1.8764 -1.5820
15100TIP3    H266792   3.483   2.333  14.576  0.4209 -0.5591 -0.0031
15101TIP3   OH266793   4.963   2.747   4.357 -0.2726  0.2822  0.4589
15101TIP3    H166794   5.028   2.812   4.333 -0.4490  0.0042 -0.8778
15101TIP3    H266795   4.905   2.742   4.280 -0.3795 -1.2765  0.6090
15102TIP3   OH266796   0.905   3.902  13.884 -0.6682 -0.1928  0.0674
15102TIP3    H166797   0.835   3.876  13.825  0.2215  0.5320 -1.3631
15102TIP3    H266798   0.959   3.824  13.894 -0.7083 -0.2584 -0.2443
15103TIP3   OH266799   1.983   4.349   0.142  0.2235  0.7059  0.7589
15103TIP3    H166800   2.031   4.376   0.064  0.4420  0.4018  0.7883
15103TIP3    H266801   1.951   4.261   0.122  0.5741  0.4889  1.1408
15104TIP3   OH266802   3.185   3.155  15.663  0.4528 -0.1057 -0.0021
15104TIP3    H166803   3.174   3.180  15.571  0.6294  1.5561  0.4027
15104TIP3    H266804   3.120   3.207  15.710 -0.3600 -1.7093  0.7369
15105TIP3   OH266805   3.716   3.789  14.796  0.2382 -0.4078  0.1743
15105TIP3    H166806   3.772   3.836  14.734 -0.9519  0.9449  0.0502
15105TIP3    H266807   3.698   3.854  14.865 -1.4482 -0.6531  0.0096
15106TIP3   OH266808   4.663   3.157  12.666  0.0982 -0.0993 -0.8580
15106TIP3    H166809   4.591   3.115  12.619 -2.0812  0.4696  1.7658
15106TIP3    H266810   4.694   3.090  12.727 -0.2075  0.5920  0.0709
15107TIP3   OH266811   1.216   0.473   6.556 -0.0264  0.3532 -0.2823
15107TIP3    H166812   1.285   0.525   6.597  1.1730 -0.3796 -1.2860
15107TIP3    H266813   1.213   0.392   6.607  0.8912 -0.2151 -1.0980
15108TIP3   OH266814   4.861   3.195  16.110 -0.0888  0.3694  0.3580
15108TIP3    H166815   4.909   3.153  16.038 -1.0691  0.5455 -0.4138
15108TIP3    H266816   4.769   3.189  16.084 -0.3561  1.6790  0.9480
15109TIP3   OH266817   1.251   5.511   3.632 -0.4111  0.2971 -0.2502
15109TIP3    H166818   1.308   5.588   3.631 -0.2471  0.1750 -0.2932
15109TIP3    H266819   1.173   5.539   3.681  0.1905  0.1049  0.8346
15110TIP3   OH266820   0.114   1.040   4.218 -0.0014 -0.3733  0.1124
15110TIP3    H166821   0.158   0.994   4.146 -0.7298 -0.6178 -0.1873
15110TIP3    H266822   0.045   0.980   4.246 -0.7035  0.3549 -0.0157
15111TIP3   OH266823   4.379   2.588   2.961 -0.2960  0.3938  0.4863
15111TIP3    H166824   4.331   2.557   3.038 -1.0470  1.0293  0.2882
15111TIP3    H266825   4.323   2.656   2.924  0.0705  0.1105 -0.6140
15112TIP3   OH266826   3.079   3.402  13.576  0.1519  1.0367  0.4030
15112TIP3    H166827   3.025   3.421  13.653  1.6561 -1.5764  2.2863
15112TIP3    H266828   3.021   3.354  13.517 -0.0768 -0.3098  1.6759
15113TIP3   OH266829   1.537   5.144   2.800  0.3723 -0.4065  0.1965
15113TIP3    H166830   1.486   5.078   2.847  1.6621 -1.2440  0.4434
15113TIP3    H266831   1.571   5.098   2.723 -1.2937  0.8115 -1.3632
15114TIP3   OH266832   6.150   3.761   1.407 -0.0271  0.4165 -0.4534
15114TIP3    H166833   6.073   3.814   1.387  0.0269  0.9200  0.5625
15114TIP3    H266834   6.120   3.671   1.400 -0.2449  0.5780 -1.7482
15115TIP3   OH266835   5.167   5.468  12.298  0.4218 -0.3692  0.4961
15115TIP3    H166836   5.221   5.472  12.377  0.3628 -1.0659  0.5759
15115TIP3    H266837   5.098   5.533  12.313  0.2326 -0.7124  1.1529
15116TIP3   OH266838   5.666   3.557  16.830  0.1171 -0.1052  0.2496
15116TIP3    H166839   5.709   3.538  16.747 -1.0740  0.1223 -0.4433
15116TIP3    H266840   5.690   3.648  16.850  0.3671 -0.1472  0.1397
15117TIP3   OH266841   2.490   0.771  11.831 -0.5172 -0.0483 -0.2990
15117TIP3    H166842   2.456   0.793  11.918 -0.5330 -0.4232 -0.2096
15117TIP3    H266843   2.469   0.678  11.820  0.4170 -0.2732 -0.2689
15118TIP3   OH266844   1.648   6.203   3.079 -0.3391 -0.3458  0.0187
15118TIP3    H166845   1.675   6.218   2.988  0.8497 -0.7585  0.2973
15118TIP3    H266846   1.586   6.130   3.073  0.1330 -0.7156 -0.4034
15119TIP3   OH266847   1.444   0.422   5.413 -0.6150 -0.5639  0.0113
15119TIP3    H166848   1.458   0.474   5.492 -0.2760  1.3889 -1.2752
15119TIP3    H266849   1.362   0.454   5.377 -0.3214 -0.7920 -0.8882
15120TIP3   OH266850   1.924   3.734  13.898  0.3011  0.0166 -0.6549
15120TIP3    H166851   1.908   3.730  13.992  2.0049  0.7774 -0.2969
15120TIP3    H266852   1.860   3.799  13.867 -0.5808 -0.5701 -0.1209
15121TIP3   OH266853   1.544   3.359   3.280  0.5494  0.5122 -0.7272
15121TIP3    H166854   1.563   3.273   3.318  2.6511  0.6868 -1.2655
15121TIP3    H266855   1.497   3.340   3.199  1.9895 -0.2399 -1.4272
15122TIP3   OH266856   1.556   1.132  12.970  0.4660  0.1915 -0.2557
15122TIP3    H166857   1.615   1.185  13.024  1.8238 -1.5490  0.0393
15122TIP3    H266858   1.487   1.104  13.031  0.6041  0.3323 -0.0332
15123TIP3   OH266859   1.839   0.329   4.189  0.1019 -0.7839  0.4418
15123TIP3    H166860   1.778   0.401   4.209 -0.5896 -1.3563  0.4247
15123TIP3    H266861   1.844   0.327   4.094  1.0209 -0.0257  0.4613
15124TIP3   OH266862   0.965   6.653   3.468  0.5709 -0.0858 -0.4363
15124TIP3    H166863   1.015   6.571   3.465  0.6209 -0.0762  0.1040
15124TIP3    H266864   1.007   6.709   3.402  0.3691 -0.5865 -0.9970
15125TIP3   OH266865   3.179   6.429   1.041  0.5425  0.0589 -0.1111
15125TIP3    H166866   3.160   6.337   1.025 -0.3235  0.1345  0.3826
15125TIP3    H266867   3.123   6.476   0.978 -1.2162  0.2957  1.5259
15126TIP3   OH266868   0.769   2.372   3.576  0.3277  0.0323  0.5183
15126TIP3    H166869   0.710   2.418   3.636 -0.1408  1.1083 -0.7383
15126TIP3    H266870   0.719   2.295   3.548 -0.3643  0.7440 -0.2526
15127TIP3   OH266871   0.203   2.911   0.309 -0.2204 -0.5865  0.4016
15127TIP3    H166872   0.120   2.874   0.339 -0.6090  0.4924  0.7072
15127TIP3    H266873   0.263   2.836   0.307 -1.5416 -1.6828 -1.2200
15128TIP3   OH266874   1.401   5.142   3.947 -0.0095  0.7030  0.7481
15128TIP3    H166875   1.357   5.102   3.873 -0.3181 -0.1215  1.3698
15128TIP3    H266876   1.482   5.178   3.910  0.5001 -0.8947  0.2599
15129TIP3   OH266877   4.718   4.894   4.844  0.6446 -0.2850  0.2982
15129TIP3    H166878   4.666   4.879   4.924  0.5444  0.6934  0.4203
15129TIP3    H266879   4.683   4.831   4.781  0.3897 -0.7296  0.8731
15130TIP3   OH266880   6.720   3.186  13.790 -0.8419 -0.6750  0.1144
15130TIP3    H166881   6.710   3.092  13.809  0.5502 -1.0162 -0.6664
15130TIP3    H266882   6.693   3.194  13.698  1.0956 -0.7486 -0.5066
15131TIP3   OH266883   2.116   3.266   4.667  0.2576 -0.9572  0.4667
15131TIP3    H166884   2.093   3.273   4.760  1.5441 -0.2419  0.7530
15131TIP3    H266885   2.035   3.290   4.621  0.5707  2.4027  1.4224
15132TIP3   OH266886   5.430   3.931   0.460  0.1474  0.3205  0.1292
15132TIP3    H166887   5.518   3.895   0.459  0.5560  1.1542 -2.5286
15132TIP3    H266888   5.437   4.010   0.514 -0.1509 -1.8657  3.7340
15133TIP3   OH266889   5.041   2.787   2.996 -0.1630 -0.1704  0.3125
15133TIP3    H166890   5.107   2.854   2.979 -0.9228  0.3245 -0.7044
15133TIP3    H266891   5.091   2.705   2.997  0.6735  0.3245  0.9661
15134TIP3   OH266892   2.197   5.199  11.925 -0.3736 -0.7487  0.1702
15134TIP3    H166893   2.237   5.157  12.001  1.9175  0.1201 -0.4747
15134TIP3    H266894   2.251   5.172  11.851 -0.7806  0.7414 -0.7211
15135TIP3   OH266895   0.067   1.403  17.040  0.4912  0.0088  0.1024
15135TIP3    H166896  -0.027   1.384  17.046 -0.0383  1.9016 -0.9876
15135TIP3    H266897   0.072   1.498  17.051  1.9849  0.2834 -2.2622
15136TIP3   OH266898   5.699   0.568   2.939 -0.7339  0.0910 -0.0259
15136TIP3    H166899   5.624   0.512   2.924  0.8621 -1.5236 -2.9100
15136TIP3    H266900   5.690   0.639   2.876 -0.5166  0.6655  0.5703
15137TIP3   OH266901   5.358   2.720  13.985 -0.1763  0.2789  0.2963
15137TIP3    H166902   5.400   2.681  14.062 -0.7564  0.1638  0.5556
15137TIP3    H266903   5.431   2.746  13.929  0.4142  3.0074  2.1477
15138TIP3   OH266904   5.579   1.473   0.762 -0.6214 -0.1683  0.0010
15138TIP3    H166905   5.649   1.460   0.826 -0.8037 -0.5856  0.1213
15138TIP3    H266906   5.533   1.551   0.792 -0.8850 -0.5265  0.5482
15139TIP3   OH266907   6.204   1.544   5.244  0.5698 -0.1256  0.0651
15139TIP3    H166908   6.153   1.549   5.163  0.8816  0.0017 -0.1247
15139TIP3    H266909   6.295   1.542   5.215  0.6820 -0.0953  0.4125
15140TIP3   OH266910   4.801   0.017  15.326  0.1266 -0.6586 -0.3124
15140TIP3    H166911   4.789   0.102  15.368 -0.0125 -0.5579 -0.5548
15140TIP3    H266912   4.884  -0.016  15.360 -0.1780 -0.7557  0.3480
15141TIP3   OH266913   2.921   3.732   4.256 -0.3569 -0.3525  0.1035
15141TIP3    H166914   2.934   3.763   4.167 -0.0774  0.0756  0.2909
15141TIP3    H266915   2.828   3.750   4.274 -1.0438 -2.5356 -0.8932
15142TIP3   OH266916   1.391   2.981  12.216 -0.0502 -0.1811  0.0935
15142TIP3    H166917   1.460   2.916  12.230 -0.2606 -0.1455  1.4956
15142TIP3    H266918   1.346   2.952  12.137  1.4903 -0.2702 -0.7806
15143TIP3   OH266919   6.698   6.619  13.365  0.0615 -0.1608 -0.1799
15143TIP3    H166920   6.665   6.531  13.385 -1.0424  0.4232  0.7308
15143TIP3    H266921   6.698   6.664  13.450 -0.8205  1.1730 -0.8586
15144TIP3   OH266922   3.154   6.369   3.043 -0.0862 -0.4768  0.0762
15144TIP3    H166923   3.074   6.335   3.001 -0.5518  0.1902  0.3966
15144TIP3    H266924   3.122   6.413   3.122  0.7596 -1.4670  0.9836
15145TIP3   OH266925   2.002   5.448  13.751 -0.1262  0.1838  0.1029
15145TIP3    H166926   1.943   5.375  13.772  2.4549 -2.1608 -0.2490
15145TIP3    H266927   2.049   5.420  13.672  3.0096  0.8468  1.5578
15146TIP3   OH266928   3.035   5.147   4.535 -0.3914  0.0355  0.4694
15146TIP3    H166929   3.084   5.182   4.461 -0.7765 -1.2878 -0.4475
15146TIP3    H266930   2.962   5.208   4.547 -0.2911  0.2971 -0.2097
15147TIP3   OH266931   5.430   1.188  12.985  0.5817 -0.2414  0.0980
15147TIP3    H166932   5.467   1.225  13.066  0.2875  0.2101  0.0322
15147TIP3    H266933   5.479   1.229  12.915 -1.7063  2.4371 -0.1216
15148TIP3   OH266934   6.141   3.884  15.292  0.2933 -0.0633  0.1165
15148TIP3    H166935   6.068   3.928  15.250 -0.3569  0.5615  1.8379
15148TIP3    H266936   6.102   3.811  15.339  1.1727 -1.5898 -1.3982
15149TIP3   OH266937   6.525   4.902  14.274  0.1206 -0.2930 -0.0357
15149TIP3    H166938   6.459   4.966  14.249  1.2307  0.5233 -0.9690
15149TIP3    H266939   6.579   4.891  14.195  0.5124 -1.6731  0.3958
15150TIP3   OH266940   3.873   2.312  15.089 -0.4706  0.9332  0.1214
15150TIP3    H166941   3.867   2.327  14.994  1.0820  0.3980 -0.0749
15150TIP3    H266942   3.788   2.341  15.122 -1.9423 -0.9663 -1.7020
15151TIP3   OH266943   4.568   3.285  14.705  0.0149 -0.2016 -0.7055
15151TIP3    H166944   4.527   3.367  14.732 -1.6960 -0.6556 -1.7753
15151TIP3    H266945   4.585   3.239  14.788 -0.5288  0.5273 -0.1731
15152TIP3   OH266946   2.054   0.945   2.650 -0.0941  0.5501  0.2853
15152TIP3    H166947   2.076   1.035   2.673  0.9614  0.3888 -0.0841
15152TIP3    H266948   1.972   0.928   2.697 -0.4076  1.7591  0.2049
15153TIP3   OH266949   6.480   0.292   3.818  0.2152 -0.2120 -0.1819
15153TIP3    H166950   6.549   0.275   3.754  1.2196 -0.3360  0.8943
15153TIP3    H266951   6.488   0.222   3.882 -0.7858 -0.1115  0.0724
15154TIP3   OH266952   4.628   0.689  12.473 -0.1352  0.3175  0.4156
15154TIP3    H166953   4.550   0.703  12.419  0.5276 -1.1319 -1.0007
15154TIP3    H266954   4.604   0.615  12.529  0.5073 -0.7792 -0.7072
15155TIP3   OH266955   6.052   1.332   0.771  0.4274  0.5020 -0.1767
15155TIP3    H166956   6.106   1.396   0.725  1.4162  0.0909  0.3628
15155TIP3    H266957   6.109   1.255   0.781 -0.2234  0.0868  0.4906
15156TIP3   OH266958   3.127   5.449   5.095 -0.8773  0.4417 -0.2476
15156TIP3    H166959   3.154   5.420   5.008 -1.0542  1.6015 -0.7022
15156TIP3    H266960   3.033   5.431   5.098 -0.6502 -0.7109  0.1631
15157TIP3   OH266961   5.039   4.396  13.306  0.4785 -0.6138  0.7168
15157TIP3    H166962   4.978   4.470  13.310  1.3480  0.0838  1.2552
15157TIP3    H266963   5.114   4.423  13.358  1.4278 -1.3038 -0.2506
15158TIP3   OH266964   2.120   4.473   5.597 -0.4932  0.1257 -0.2698
15158TIP3    H166965   2.084   4.385   5.605 -0.8319  0.4510  3.8947
15158TIP3    H266966   2.215   4.461   5.597 -0.4893 -0.2713  2.1687
15159TIP3   OH266967   2.182   3.164  15.370  0.6143 -0.1409 -0.2297
15159TIP3    H166968   2.232   3.121  15.300  0.7237  0.7596 -0.7258
15159TIP3    H266969   2.118   3.218  15.323  1.2351  1.1211  0.3373
15160TIP3   OH266970   5.790   4.503   1.471 -0.3552 -0.2185 -0.1749
15160TIP3    H166971   5.835   4.426   1.506 -1.2110 -0.5503  0.2192
15160TIP3    H266972   5.853   4.542   1.411 -0.5160 -2.1917 -1.7390
15161TIP3   OH266973   2.953   3.957  11.934  0.3867 -0.4955  0.4443
15161TIP3    H166974   2.956   4.053  11.932  1.0195 -0.4827  1.3964
15161TIP3    H266975   2.880   3.934  11.877  0.6368  0.5281 -0.3164
15162TIP3   OH266976   0.695   0.966  16.409 -0.2587  0.2387  0.6332
15162TIP3    H166977   0.778   0.985  16.364 -1.2839  1.4395 -0.8874
15162TIP3    H266978   0.700   1.017  16.490  0.7117 -0.1653  0.8473
15163TIP3   OH266979   6.351   2.637   0.329 -0.1783  0.2624  0.4556
15163TIP3    H166980   6.265   2.656   0.293  0.4476  0.6800 -0.9057
15163TIP3    H266981   6.371   2.712   0.384  0.5269  1.6733 -1.5939
15164TIP3   OH266982   3.351   4.196   2.094 -0.1130 -0.4821  0.0953
15164TIP3    H166983   3.373   4.233   2.008 -4.0579 -1.2685 -1.4747
15164TIP3    H266984   3.397   4.252   2.157  0.3060  2.2401 -2.4120
15165TIP3   OH266985   6.735   2.510  15.282 -0.1529 -0.3242 -0.4560
15165TIP3    H166986   6.787   2.591  15.285 -1.3211  0.4673 -0.9549
15165TIP3    H266987   6.800   2.440  15.279  0.8906  0.5461  0.8375
15166TIP3   OH266988   2.904   5.651  13.087  0.3896 -0.6745 -0.5113
15166TIP3    H166989   2.946   5.683  13.167 -2.2532 -0.9011  1.0862
15166TIP3    H266990   2.904   5.727  13.029 -0.5550  0.5447  0.9903
15167TIP3   OH266991   5.267   1.636   4.778 -0.1425  0.4025  0.2903
15167TIP3    H166992   5.274   1.731   4.771  0.2054  0.5100  1.7556
15167TIP3    H266993   5.201   1.612   4.713 -0.5621  1.6973  0.2105
15168TIP3   OH266994   0.388   4.675   0.896 -0.7004  0.1959  0.2949
15168TIP3    H166995   0.413   4.583   0.902  0.1873  0.4868  1.3256
15168TIP3    H266996   0.383   4.692   0.802  0.9646 -0.4362  0.0517
15169TIP3   OH266997   1.559   0.602  13.495  0.5309  0.0314  0.6299
15169TIP3    H166998   1.612   0.607  13.415 -0.9309 -3.0838 -0.7218
15169TIP3    H266999   1.525   0.691  13.507  2.6258  1.1129 -0.8610
15170TIP3   OH267000   3.899   6.200  13.668  0.0122  0.5744 -0.5208
15170TIP3    H167001   3.908   6.274  13.728 -0.7055 -1.3663  2.1545
15170TIP3    H267002   3.972   6.143  13.689 -1.8545 -1.5148  0.6529
15171TIP3   OH267003   4.638   5.182   3.095  0.0370  0.4849  0.4193
15171TIP3    H167004   4.645   5.256   3.035  1.3476  0.7635  0.8741
15171TIP3    H267005   4.712   5.126   3.072 -1.9034 -1.6120 -1.0752
15172TIP3   OH267006   5.685   2.589   3.635  0.6276 -0.2556  0.7776
15172TIP3    H167007   5.620   2.631   3.579 -0.5401  0.3779  2.5214
15172TIP3    H267008   5.746   2.658   3.659  1.7194 -0.7426 -0.4505
15173TIP3   OH267009   6.108   3.003  11.958  0.1921 -0.4772  0.1553
15173TIP3    H167010   6.141   3.051  12.034  0.1696  0.2732 -0.2955
15173TIP3    H267011   6.171   2.932  11.945 -1.0766 -2.1095  2.3158
15174TIP3   OH267012   4.539   1.252   5.570  0.5028 -0.1436 -0.4822
15174TIP3    H167013   4.488   1.179   5.536 -0.7039  0.0410  0.8276
15174TIP3    H267014   4.580   1.291   5.493 -1.7543  0.0178 -1.6627
15175TIP3   OH267015   2.456   5.381   2.821  0.3054 -0.1435  0.3520
15175TIP3    H167016   2.383   5.321   2.803  0.3717 -0.1558  0.1227
15175TIP3    H267017   2.527   5.324   2.850  0.4077 -0.1906  0.0154
15176TIP3   OH267018   3.006   6.732   1.866 -0.2972  0.1927  0.2376
15176TIP3    H167019   3.024   6.659   1.925 -0.0024 -1.4131 -1.7132
15176TIP3    H267020   3.092   6.768   1.846 -0.3704  0.5387  0.5432
15177TIP3   OH267021   4.164   1.802   5.195 -0.2615  0.5694 -0.1225
15177TIP3    H167022   4.070   1.803   5.215 -0.4550  0.7815 -1.0245
15177TIP3    H267023   4.173   1.856   5.117  0.6317  0.6155 -0.0007
15178TIP3   OH267024   3.717   4.702   2.721  0.3474 -0.2951  0.0543
15178TIP3    H167025   3.803   4.685   2.758  0.6695  2.1128  0.5692
15178TIP3    H267026   3.663   4.727   2.795 -0.5938 -0.9356 -0.3896
15179TIP3   OH267027   6.182   1.683  11.311  0.4938 -0.2027 -0.6024
15179TIP3    H167028   6.090   1.658  11.312  1.0376 -2.4077 -0.5352
15179TIP3    H267029   6.198   1.722  11.397  0.2484 -2.5286  0.5806
15180TIP3   OH267030   4.362   6.070  13.542 -0.1446  0.2859  0.1712
15180TIP3    H167031   4.348   6.056  13.448  1.6993  0.5574 -0.1777
15180TIP3    H267032   4.276   6.096  13.575 -0.7909  0.3803 -1.4822
15181TIP3   OH267033   0.026   1.276   1.725 -0.7194 -0.1266 -0.2541
15181TIP3    H167034   0.091   1.252   1.659 -0.9873  1.1632 -1.0227
15181TIP3    H267035   0.065   1.250   1.808  1.0196  1.0798 -0.6463
15182TIP3   OH267036   3.341   0.301   0.829  0.0195 -0.0586  0.2180
15182TIP3    H167037   3.347   0.370   0.895  0.2682 -0.0281  0.1650
15182TIP3    H267038   3.348   0.220   0.880  1.7275 -0.0261  0.1001
15183TIP3   OH267039   2.517   4.814  15.712  0.0084  0.0617  0.0452
15183TIP3    H167040   2.504   4.843  15.802  0.7147 -0.9610  0.5081
15183TIP3    H267041   2.444   4.851  15.663  0.1496  1.4382  0.8427
15184TIP3   OH267042   3.532   6.476  12.212 -0.3605 -0.6514  0.1874
15184TIP3    H167043   3.577   6.524  12.143  1.2205  0.4282  1.8815
15184TIP3    H267044   3.520   6.388  12.177  0.6647 -0.2168 -1.3293
15185TIP3   OH267045   2.482   3.976   4.560 -0.0019 -0.7304  0.1573
15185TIP3    H167046   2.457   3.885   4.575  0.7418 -0.5870  2.8590
15185TIP3    H267047   2.411   4.028   4.598 -0.9028 -0.0830 -2.2257
15186TIP3   OH267048   2.607   1.053  16.069  0.1937 -0.7175 -0.1420
15186TIP3    H167049   2.526   1.040  16.119 -0.1970 -2.7078 -1.1600
15186TIP3    H267050   2.660   1.111  16.123 -1.9069  0.6707  0.5533
15187TIP3   OH267051   1.850   0.494   1.651 -0.3215  0.4080  0.3092
15187TIP3    H167052   1.816   0.424   1.595  0.1608 -0.2901  0.8743
15187TIP3    H267053   1.877   0.563   1.590 -3.3201  1.3055 -0.1638
15188TIP3   OH267054   4.537   1.131  13.630  0.1702  0.6797  0.1658
15188TIP3    H167055   4.499   1.049  13.660  0.3550  1.0480  1.5036
15188TIP3    H267056   4.629   1.127  13.658  0.1958  1.3056  0.1900
15189TIP3   OH267057   4.896   2.222  12.580 -0.7360  0.7946 -0.6949
15189TIP3    H167058   4.943   2.147  12.545 -1.9721 -0.2275 -0.2457
15189TIP3    H267059   4.924   2.296  12.525  2.3326  0.5418  0.3516
15190TIP3   OH267060   0.534   2.367  16.674 -0.2654 -0.3072 -0.9850
15190TIP3    H167061   0.590   2.381  16.750 -0.9465  0.4496 -0.6096
15190TIP3    H267062   0.455   2.327  16.710 -0.6071  0.0889 -1.2863
15191TIP3   OH267063   5.834   4.430  13.711  0.0371  0.1776  0.2961
15191TIP3    H167064   5.829   4.502  13.648  1.1997 -0.3641 -0.4503
15191TIP3    H267065   5.822   4.472  13.796  3.2275  1.7196  0.1280
15192TIP3   OH267066   0.931   2.243  16.004  0.5974  0.3540 -0.1971
15192TIP3    H167067   0.900   2.154  16.023  2.0669 -0.2939 -0.6527
15192TIP3    H267068   0.987   2.232  15.927  1.0458  1.6353 -0.0688
15193TIP3   OH267069   1.553   5.111  13.450  0.2876 -0.4004  0.1242
15193TIP3    H167070   1.532   5.067  13.533 -0.4579 -0.5978 -0.1692
15193TIP3    H267071   1.536   5.045  13.383 -2.8616  0.9226 -0.5077
15194TIP3   OH267072   0.998   5.377  16.116 -0.0322  0.1554 -0.0231
15194TIP3    H167073   0.923   5.324  16.144 -1.0919  2.0252  0.8900
15194TIP3    H267074   1.053   5.384  16.194  0.2977  0.0875 -0.2498
15195TIP3   OH267075   2.145   4.505  17.281 -0.0208 -0.0257  0.1435
15195TIP3    H167076   2.168   4.597  17.269  1.5380 -0.2204  1.3561
15195TIP3    H267077   2.211   4.457  17.232  1.0746 -0.5448  2.0234
15196TIP3   OH267078   0.463   4.876   4.246 -0.1954 -0.6041 -0.4762
15196TIP3    H167079   0.521   4.947   4.273  0.9175 -1.6502 -0.0724
15196TIP3    H267080   0.517   4.821   4.190 -1.0952 -1.0616 -0.9079
15197TIP3   OH267081   2.184   0.082   2.411 -0.2722  0.0726 -0.6554
15197TIP3    H167082   2.124   0.009   2.429 -0.7295  0.5498 -0.2053
15197TIP3    H267083   2.127   0.152   2.379 -0.1368  0.9342  0.8817
15198TIP3   OH267084   4.024   6.357  16.632  0.3844 -0.1683  0.6375
15198TIP3    H167085   3.942   6.362  16.584  0.0939 -1.2869  0.9905
15198TIP3    H267086   3.999   6.367  16.724  0.4375 -1.8898  0.8748
15199TIP3   OH267087   1.509   0.428  14.516 -0.0937  0.2919 -0.2615
15199TIP3    H167088   1.542   0.341  14.492 -2.1029 -1.2108  1.9677
15199TIP3    H267089   1.420   0.430  14.481 -0.6009  0.8071  1.0011
15200TIP3   OH267090   0.272   2.657  13.770  0.3525  0.3924  0.0334
15200TIP3    H167091   0.207   2.725  13.758 -0.4484 -0.5269 -1.0493
15200TIP3    H267092   0.230   2.577  13.738  1.3613 -0.5699  1.0026
15201TIP3   OH267093   4.404   1.037  11.802 -0.0705 -0.3020 -0.3262
15201TIP3    H167094   4.309   1.041  11.801 -0.0531  2.8664  0.3197
15201TIP3    H267095   4.432   1.118  11.759  2.3564 -1.1958 -0.5989
15202TIP3   OH267096   3.917   2.546  11.321  0.0815  0.2576 -0.0152
15202TIP3    H167097   3.880   2.521  11.237  0.2982 -0.2944  0.0481
15202TIP3    H267098   4.003   2.503  11.323 -0.0248  0.0627  0.5877
15203TIP3   OH267099   5.806   3.963   3.224  0.1195  0.2962 -0.2044
15203TIP3    H167100   5.835   4.044   3.183 -1.2805 -0.1506 -2.2042
15203TIP3    H267101   5.812   3.897   3.155  0.2881 -1.1009  1.1002
15204TIP3   OH267102   4.640   4.355   1.190 -0.4222  0.1391 -0.4443
15204TIP3    H167103   4.681   4.337   1.105 -0.1506  1.1674 -0.5435
15204TIP3    H267104   4.713   4.378   1.248 -0.1628 -3.6450  1.0321
15205TIP3   OH267105   5.440   0.581   2.452  0.0666  0.4569  0.1196
15205TIP3    H167106   5.520   0.560   2.500  0.3557  1.9977  0.3618
15205TIP3    H267107   5.369   0.554   2.512  0.4232  1.7315  1.1516
15206TIP3   OH267108   0.644   0.919  15.710 -0.4518 -0.2926 -0.0130
15206TIP3    H167109   0.665   0.952  15.797 -0.9506  0.6385 -0.2390
15206TIP3    H267110   0.578   0.851  15.725 -0.1816 -0.4770  0.3659
15207TIP3   OH267111   1.274   2.310  11.713  0.3322 -0.0404 -0.4249
15207TIP3    H167112   1.341   2.319  11.646 -0.4940  0.0426 -1.2468
15207TIP3    H267113   1.197   2.278  11.667 -0.2527  0.0207  0.4786
15208TIP3   OH267114   3.425   2.103  11.140  0.0326 -0.0285 -0.0175
15208TIP3    H167115   3.361   2.049  11.186  1.0903 -0.3036  1.1916
15208TIP3    H267116   3.460   2.161  11.208  1.4178 -0.2405 -0.5185
15209TIP3   OH267117   3.014   5.620   4.451 -0.2904  0.1441 -0.1886
15209TIP3    H167118   2.994   5.697   4.504  1.5117 -0.6751  1.8343
15209TIP3    H267119   2.952   5.554   4.482  1.7493 -0.8063  2.2248
15210TIP3   OH267120   0.081   1.778  14.206  0.2776  0.3548  0.8007
15210TIP3    H167121   0.044   1.723  14.137 -0.2737  1.6622  0.0300
15210TIP3    H267122   0.127   1.847  14.160  0.8126  0.6535  1.7553
15211TIP3   OH267123   4.746   3.516   1.855 -0.3562  0.4741  0.0607
15211TIP3    H167124   4.723   3.608   1.838  0.0828  1.0104  2.0757
15211TIP3    H267125   4.744   3.509   1.950  2.3073 -0.8976  0.0853
15212TIP3   OH267126   3.300   2.849   1.003 -0.0869  0.2366  0.6563
15212TIP3    H167127   3.259   2.914   0.946  1.2058  0.7927  0.3316
15212TIP3    H267128   3.255   2.767   0.982  1.2426  0.1311 -2.1998
15213TIP3   OH267129   4.832   5.218   0.908  0.6512  0.6139 -0.0636
15213TIP3    H167130   4.805   5.203   0.999 -3.5953 -3.2961 -1.5775
15213TIP3    H267131   4.921   5.252   0.915  0.0493  2.0867  5.4991
15214TIP3   OH267132   2.817   0.129   1.871  0.1678  0.0015 -0.6997
15214TIP3    H167133   2.791   0.129   1.964 -0.4513  0.5530 -0.8622
15214TIP3    H267134   2.855   0.042   1.857 -0.2083 -0.2769 -0.0554
15215TIP3   OH267135   6.208   2.388   3.546  0.0123 -0.5041 -0.1518
15215TIP3    H167136   6.247   2.402   3.460 -0.0088 -0.5097 -0.1621
15215TIP3    H267137   6.267   2.326   3.589 -0.0963 -0.6718 -0.2425
15216TIP3   OH267138   0.814   0.246  11.820 -0.0917 -0.3762 -0.9106
15216TIP3    H167139   0.889   0.250  11.761 -0.1738 -0.2616 -1.0078
15216TIP3    H267140   0.850   0.215  11.903 -0.1673 -1.6998 -1.3436
15217TIP3   OH267141   3.544   3.947  17.200  0.2877  0.1859  0.0541
15217TIP3    H167142   3.470   3.946  17.261  0.3368 -1.0201  0.1317
15217TIP3    H267143   3.510   3.987  17.121 -0.3579 -0.0587  0.2004
15218TIP3   OH267144   5.389   3.497  13.692  0.2063  0.1096  0.3577
15218TIP3    H167145   5.429   3.545  13.765 -1.2475 -0.2953  1.4636
15218TIP3    H267146   5.300   3.531  13.686 -0.8432 -2.3023  1.1009
15219TIP3   OH267147   0.635   4.442   3.750 -0.0458 -0.1349 -0.0228
15219TIP3    H167148   0.613   4.362   3.797  1.2247 -0.9298 -0.7457
15219TIP3    H267149   0.645   4.508   3.818  1.7261 -1.2522  0.8797
15220TIP3   OH267150   2.711   2.812   2.196 -0.1170  0.1380  0.0029
15220TIP3    H167151   2.655   2.819   2.120 -0.1947 -1.8620 -0.1762
15220TIP3    H267152   2.727   2.902   2.223 -1.2924  0.8216 -1.4771
15221TIP3   OH267153   2.331   1.494   3.663 -0.6159  0.5238  0.7424
15221TIP3    H167154   2.263   1.430   3.640  0.5950 -0.9924  1.1992
15221TIP3    H267155   2.310   1.571   3.610 -2.3285 -0.1142  0.4246
15222TIP3   OH267156   4.611   1.384  15.897  0.0061 -0.1924 -0.3052
15222TIP3    H167157   4.629   1.460  15.841 -0.0427  0.2071  0.2177
15222TIP3    H267158   4.525   1.354  15.868 -0.4243  0.5639  0.1520
15223TIP3   OH267159   4.987   2.844  13.650  0.0405  0.6167  0.2887
15223TIP3    H167160   4.929   2.906  13.605 -0.0638 -0.2659 -0.8108
15223TIP3    H267161   4.944   2.831  13.735 -0.3960  1.3669  0.2016
15224TIP3   OH267162   5.765   0.695   4.233 -0.1168  0.3697  0.0014
15224TIP3    H167163   5.723   0.771   4.194 -0.4813  1.6441  2.6261
15224TIP3    H267164   5.818   0.730   4.305  1.8667 -1.6339 -0.3479
15225TIP3   OH267165   0.385   5.563   1.834  0.0705  0.0474 -0.0238
15225TIP3    H167166   0.381   5.512   1.753  1.5693 -1.1514  0.6019
15225TIP3    H267167   0.375   5.498   1.904 -0.3690  0.9410  0.7696
15226TIP3   OH267168   0.886   4.580   2.515 -0.0700 -0.2228 -0.1686
15226TIP3    H167169   0.973   4.608   2.486 -0.5146  1.6117  0.1445
15226TIP3    H267170   0.884   4.601   2.608 -1.5735  1.9209 -0.5950
15227TIP3   OH267171   4.874   1.425   5.530 -0.1801  0.7303  0.2174
15227TIP3    H167172   4.913   1.352   5.580  0.1507  0.9395  0.2644
15227TIP3    H267173   4.914   1.503   5.567  0.6094  0.8548 -0.8534
15228TIP3   OH267174   1.888   3.301  14.917  0.2559  0.3275 -0.0292
15228TIP3    H167175   1.919   3.220  14.956  1.5173  1.0452  0.5110
15228TIP3    H267176   1.967   3.352  14.900 -0.5471  1.8174  0.4765
15229TIP3   OH267177   3.562   4.626  12.675  0.0436 -0.4956  0.2711
15229TIP3    H167178   3.587   4.535  12.685 -1.6185 -1.1282 -0.8599
15229TIP3    H267179   3.564   4.642  12.581 -1.4858  0.0464  0.2860
15230TIP3   OH267180   1.709   4.883  14.853  0.3752  0.1713  0.1744
15230TIP3    H167181   1.760   4.802  14.841 -1.5814 -0.9346 -1.4990
15230TIP3    H267182   1.667   4.872  14.938 -1.0545 -1.3907 -0.6535
15231TIP3   OH267183   4.860   4.521   3.627  0.1965  0.3692 -0.3274
15231TIP3    H167184   4.843   4.479   3.711  1.1885  2.2582  0.8867
15231TIP3    H267185   4.829   4.458   3.562  2.1962 -2.5429  1.3167
15232TIP3   OH267186   0.370   1.289   2.431  0.6453 -0.4138 -0.0960
15232TIP3    H167187   0.456   1.330   2.436  0.6359 -0.2705 -0.8874
15232TIP3    H267188   0.308   1.358   2.454  0.7370 -0.4959  0.3977
15233TIP3   OH267189   2.528   3.579   0.461  0.1168  0.1985 -0.2975
15233TIP3    H167190   2.537   3.490   0.494  0.0960  0.5451  0.6949
15233TIP3    H267191   2.498   3.569   0.371  0.5994 -0.8019 -0.3603
15234TIP3   OH267192   1.903   1.526   5.464 -0.2190 -0.0011 -0.4247
15234TIP3    H167193   1.837   1.587   5.432 -0.9466  0.3595  1.6109
15234TIP3    H267194   1.939   1.568   5.542  0.9816 -1.1063 -0.3423
15235TIP3   OH267195   0.290   3.276  15.390 -0.8423  0.1663 -0.4162
15235TIP3    H167196   0.337   3.208  15.439 -0.0657  0.9380 -0.0474
15235TIP3    H267197   0.324   3.270  15.301  0.2834  0.9680 -0.0671
15236TIP3   OH267198   2.813   0.082  11.768  0.2500 -0.0123  0.5770
15236TIP3    H167199   2.896   0.042  11.739 -0.6683 -1.0173 -0.7954
15236TIP3    H267200   2.802   0.158  11.712 -0.0943 -0.2837  0.2726
15237TIP3   OH267201   3.553   4.175  11.544  0.6473  0.1414  0.6548
15237TIP3    H167202   3.575   4.231  11.618 -0.7232  0.7667  0.6144
15237TIP3    H267203   3.475   4.215  11.505  0.3248 -1.1306 -0.0900
15238TIP3   OH267204   1.075   3.234   2.839  0.5374 -0.0943  0.1343
15238TIP3    H167205   1.077   3.174   2.914 -0.2902 -1.1104 -0.6284
15238TIP3    H267206   1.129   3.191   2.772  0.7237  0.4789 -0.0941
15239TIP3   OH267207   0.046   0.525   3.149  0.0785  0.4236 -0.0146
15239TIP3    H167208  -0.022   0.578   3.191 -0.1045  1.1062 -1.1455
15239TIP3    H267209   0.007   0.497   3.066  1.5135  1.6770 -1.1619
15240TIP3   OH267210   6.257   1.625  16.809 -0.4593  0.2393  0.0226
15240TIP3    H167211   6.307   1.695  16.766 -1.7776  0.6790 -0.8971
15240TIP3    H267212   6.252   1.556  16.743 -2.3768  0.8612 -0.5751
15241TIP3   OH267213   5.543   3.777   0.996  0.0512 -0.3115  0.0282
15241TIP3    H167214   5.522   3.800   1.087  0.6190  0.4638 -0.0259
15241TIP3    H267215   5.486   3.833   0.943 -0.2679 -0.7510 -0.0889
15242TIP3   OH267216   1.225   2.505  11.358 -0.3701  0.1078  0.3633
15242TIP3    H167217   1.234   2.552  11.275 -1.8892  1.3735  0.8558
15242TIP3    H267218   1.199   2.573  11.421 -3.3332 -1.4163  0.9800
15243TIP3   OH267219   0.455   3.171   5.032 -0.1793 -0.0356 -0.5136
15243TIP3    H167220   0.541   3.211   5.028  0.0483 -0.5479 -0.9015
15243TIP3    H267221   0.430   3.160   4.940  0.9285 -3.2131 -0.5569
15244TIP3   OH267222   1.402   2.600   3.094 -0.5093 -0.3561  0.4905
15244TIP3    H167223   1.403   2.670   3.159  0.4497 -1.1510  1.3799
15244TIP3    H267224   1.319   2.610   3.048  0.3115  2.4170 -0.5880
15245TIP3   OH267225   0.715   1.712  11.761 -0.3666 -0.4052 -0.4111
15245TIP3    H167226   0.716   1.798  11.718  0.5730 -0.9272 -1.4643
15245TIP3    H267227   0.622   1.688  11.764 -0.6512  0.7031  0.0214
15246TIP3   OH267228   2.624   6.402  10.815  0.1017  0.5001  0.4743
15246TIP3    H167229   2.620   6.342  10.890 -0.0430  0.3128  0.3198
15246TIP3    H267230   2.576   6.356  10.746 -0.9743  1.2837  0.6928
15247TIP3   OH267231   4.788   1.975   3.472 -0.8480 -0.1263 -0.2904
15247TIP3    H167232   4.878   1.971   3.504 -1.7818 -0.2226  2.5790
15247TIP3    H267233   4.757   1.884   3.476 -2.1386  0.3303  2.4001
15248TIP3   OH267234   2.171   1.950   6.611 -0.5086  0.0744 -0.0710
15248TIP3    H167235   2.099   2.009   6.630 -1.0214 -0.3199 -0.7492
15248TIP3    H267236   2.143   1.865   6.645  1.0359  0.5636  2.6890
15249TIP3   OH267237   0.785   4.747  15.106  0.3039 -0.3667  0.0998
15249TIP3    H167238   0.878   4.730  15.123  0.8289  1.3540 -0.8421
15249TIP3    H267239   0.785   4.822  15.047 -1.6879 -0.6680 -0.3410
15250TIP3   OH267240   4.175   1.602  15.052 -0.0355  0.0977 -0.1364
15250TIP3    H167241   4.087   1.626  15.024  0.2839 -1.2627 -2.6382
15250TIP3    H267242   4.162   1.532  15.115 -0.7579  0.0438 -0.3389
15251TIP3   OH267243   4.424   4.011   0.586  0.3882  0.3325 -0.2847
15251TIP3    H167244   4.345   4.015   0.638  1.2028  0.3474  0.9931
15251TIP3    H267245   4.408   3.942   0.522 -0.1323 -0.6260  0.8492
15252TIP3   OH267246   2.576   3.349   0.596 -1.1090 -0.7921  0.0158
15252TIP3    H167247   2.496   3.343   0.649 -1.0465 -3.1886 -0.0575
15252TIP3    H267248   2.647   3.332   0.657 -0.7400 -0.1360 -0.2143
15253TIP3   OH267249   1.620   5.929   0.044  0.4681 -0.3759  0.3215
15253TIP3    H167250   1.606   5.897  -0.045 -0.0050  0.9468 -0.1046
15253TIP3    H267251   1.534   5.959   0.072  0.1786 -2.5308  1.9928
15254TIP3   OH267252   5.732   2.449  11.874 -0.4499  0.3056  0.1609
15254TIP3    H167253   5.708   2.530  11.831  1.3525  1.9264  1.9828
15254TIP3    H267254   5.710   2.462  11.966  0.4579 -1.0050  0.6120
15255TIP3   OH267255   2.974   4.832  11.615  0.4873  0.0916 -0.0379
15255TIP3    H167256   2.901   4.833  11.677  0.4658  0.1009 -0.0635
15255TIP3    H267257   3.023   4.913  11.635 -0.9595  1.4692 -1.7609
15256TIP3   OH267258   1.133   0.534  16.541  0.0699 -0.4751  0.3065
15256TIP3    H167259   1.097   0.457  16.498  1.2065 -1.6759  1.4563
15256TIP3    H267260   1.228   0.523  16.536  0.2439  0.0933  1.7648
15257TIP3   OH267261   5.029   1.124   5.508 -0.1900  0.0490  0.2589
15257TIP3    H167262   5.073   1.098   5.426 -0.1146  0.8335  0.0441
15257TIP3    H267263   5.011   1.041   5.552  2.6317 -0.3056  0.9472
15258TIP3   OH267264   0.333   4.714  12.589  0.0794  0.2771  0.1881
15258TIP3    H167265   0.254   4.686  12.637  0.5891 -2.2438 -0.3536
15258TIP3    H267266   0.303   4.727  12.499  0.3178 -0.9687 -0.0805
15259TIP3   OH267267   0.370   1.723  11.222  0.3248 -0.0045 -0.1702
15259TIP3    H167268   0.400   1.795  11.277  0.8438  0.1762 -0.6883
15259TIP3    H267269   0.403   1.743  11.135 -1.4527  0.3259 -0.8277
15260TIP3   OH267270   4.016   1.597  10.080  0.0352 -0.5566 -0.1564
15260TIP3    H167271   3.948   1.537  10.050  0.6402  0.2119 -3.4055
15260TIP3    H267272   3.976   1.684  10.069  0.6596 -0.1884  0.4291
15261TIP3   OH267273   3.840   6.169  15.116 -0.8059 -0.1977  0.3779
15261TIP3    H167274   3.881   6.160  15.202  3.0931 -1.7196 -1.3924
15261TIP3    H267275   3.860   6.259  15.090 -0.3638 -0.2967  0.3609
15262TIP3   OH267276   6.048   5.443  14.475 -0.0821  0.2946 -0.3729
15262TIP3    H167277   6.118   5.495  14.438  1.1109 -1.0940 -0.1859
15262TIP3    H267278   5.976   5.450  14.413 -0.1636  2.5177 -0.0987
15263TIP3   OH267279   1.528   1.077   1.153 -0.5853  0.0681  0.3785
15263TIP3    H167280   1.450   1.023   1.169 -0.3921 -0.0788  0.8430
15263TIP3    H267281   1.522   1.099   1.061 -2.8226  2.6353  0.9956
15264TIP3   OH267282   3.638   6.547  11.704  0.5555 -0.5506 -0.5803
15264TIP3    H167283   3.674   6.459  11.718 -0.0368 -0.8031 -0.5987
15264TIP3    H267284   3.692   6.584  11.634  0.9519 -0.8130 -0.4176
15265TIP3   OH267285   3.321   3.017  14.159 -0.2011  0.8743  0.0326
15265TIP3    H167286   3.279   3.100  14.138 -0.8603  0.8582  1.1828
15265TIP3    H267287   3.393   3.009  14.097 -0.0593  2.3599 -0.0135
15266TIP3   OH267288   5.340   5.506  12.547  0.4628  0.3596  0.8355
15266TIP3    H167289   5.407   5.574  12.542  1.6481 -0.8487 -1.8798
15266TIP3    H267290   5.386   5.425  12.526 -1.7635 -0.5357 -1.0860
15267TIP3   OH267291   4.538   1.260   1.738 -0.2098  0.2801  0.3227
15267TIP3    H167292   4.483   1.337   1.748  1.6305  1.5949  0.7877
15267TIP3    H267293   4.488   1.202   1.681 -2.1281  1.3157  0.8798
15268TIP3   OH267294   5.532   6.056   4.844  0.1058  0.1062 -0.4293
15268TIP3    H167295   5.581   6.072   4.763 -0.9901 -0.7466 -1.2842
15268TIP3    H267296   5.444   6.088   4.826 -0.2590 -0.4738  0.2683
15269TIP3   OH267297   6.697   1.672  14.805 -0.6002  0.9431 -0.1416
15269TIP3    H167298   6.622   1.691  14.862 -0.4591 -0.8344  0.6982
15269TIP3    H267299   6.740   1.757  14.794 -0.9336  1.4591  1.9990
15270TIP3   OH267300   6.089   3.906   4.047  0.4162  0.6655 -0.4858
15270TIP3    H167301   6.145   3.936   3.976  1.1240 -0.6439 -0.5027
15270TIP3    H267302   6.005   3.887   4.005  0.4418  1.0995 -0.7389
15271TIP3   OH267303   1.427   6.315  13.605 -0.2252 -0.4821 -0.4358
15271TIP3    H167304   1.367   6.369  13.552 -1.1262 -0.4546  0.5645
15271TIP3    H267305   1.426   6.229  13.563 -2.0183 -0.8590  0.2907
15272TIP3   OH267306   2.946   5.151   1.033 -0.0992 -0.1206 -0.3151
15272TIP3    H167307   3.023   5.100   1.058 -0.5344 -0.0636  1.2488
15272TIP3    H267308   2.927   5.204   1.110 -0.7671  1.0496 -1.2530
15273TIP3   OH267309   3.342   2.084   1.302 -0.0322 -0.0884  0.0847
15273TIP3    H167310   3.363   2.093   1.209 -1.7604  2.1240 -0.1678
15273TIP3    H267311   3.409   2.024   1.335  0.1790 -1.6153 -2.7171
15274TIP3   OH267312   0.986   5.661   6.505 -0.3846 -0.6024  0.4497
15274TIP3    H167313   0.902   5.621   6.481 -0.4556 -0.0162 -0.3040
15274TIP3    H267314   0.974   5.687   6.597 -0.8701 -0.9243  0.4839
15275TIP3   OH267315   3.064   4.395  17.178 -0.4768  0.2337 -0.2264
15275TIP3    H167316   3.069   4.387  17.273  0.1701 -1.3824 -0.3543
15275TIP3    H267317   3.155   4.409  17.150 -0.3798 -1.2025 -0.7101
15276TIP3   OH267318   2.973   6.025   1.623  0.0798 -0.1476 -0.0335
15276TIP3    H167319   3.042   6.061   1.567 -0.8608 -0.0493 -1.1758
15276TIP3    H267320   2.896   6.078   1.604 -0.1127  0.3491  1.9054
15277TIP3   OH267321   2.611   5.988   0.632 -0.0943 -0.2738  0.2717
15277TIP3    H167322   2.639   5.919   0.692 -0.3099 -0.6855 -0.0962
15277TIP3    H267323   2.688   6.045   0.623  0.3321 -0.8891 -0.0250
15278TIP3   OH267324   4.266   5.974   6.733 -0.3050  0.2060 -0.0980
15278TIP3    H167325   4.315   6.041   6.686  0.2357 -0.0358  0.0999
15278TIP3    H267326   4.231   6.019   6.809 -1.1131  0.5791 -0.6820
15279TIP3   OH267327   1.419   5.641  11.378  0.0291 -0.1096 -0.0167
15279TIP3    H167328   1.369   5.668  11.300  1.5287  0.1040 -0.9532
15279TIP3    H267329   1.356   5.592  11.430 -1.0231 -0.3112 -1.3928
15280TIP3   OH267330   5.184   1.385   0.585  0.2907  0.5763  0.2908
15280TIP3    H167331   5.262   1.434   0.558  0.3201  0.1695 -0.3933
15280TIP3    H267332   5.202   1.295   0.558 -0.2403  0.3988  0.5170
15281TIP3   OH267333   2.707   3.404  16.939 -0.2036 -0.2381  0.0959
15281TIP3    H167334   2.666   3.321  16.964  0.0111 -0.4930 -0.3732
15281TIP3    H267335   2.703   3.404  16.843  3.3082 -1.5865 -0.2079
15282TIP3   OH267336   2.621   6.163   4.599 -0.4207 -0.0157  0.1722
15282TIP3    H167337   2.619   6.089   4.539  1.3548 -0.3393  0.4460
15282TIP3    H267338   2.552   6.221   4.569 -0.2690 -0.6688 -1.5240
15283TIP3   OH267339   6.120   4.981   4.413 -0.2338 -0.6195  0.0812
15283TIP3    H167340   6.034   4.941   4.410 -0.5230 -0.1497  1.4466
15283TIP3    H267341   6.122   5.041   4.338 -1.2980 -0.2534  0.3373
15284TIP3   OH267342   2.361   3.746  17.209 -1.1217 -0.1359 -0.0063
15284TIP3    H167343   2.385   3.664  17.253 -1.0581  0.2460  0.6762
15284TIP3    H267344   2.273   3.766  17.240 -1.2798 -0.1270 -0.4507
15285TIP3   OH267345   1.953   5.491  15.915 -0.1099  0.3556 -0.4415
15285TIP3    H167346   1.971   5.571  15.965  0.1402  0.7706 -1.1737
15285TIP3    H267347   1.860   5.496  15.895 -0.3246 -0.0677  0.4043
15286TIP3   OH267348   2.332   1.705  12.071  0.3383 -0.2353  0.2302
15286TIP3    H167349   2.268   1.774  12.053 -1.7531 -2.3068 -0.7713
15286TIP3    H267350   2.372   1.730  12.154 -0.9672  1.7222  0.3212
15287TIP3   OH267351   5.386   2.400  13.737 -0.0029  0.5121  0.4424
15287TIP3    H167352   5.323   2.469  13.761 -1.1075 -0.0294 -0.7857
15287TIP3    H267353   5.459   2.448  13.697 -1.4845  0.9496 -1.9403
15288TIP3   OH267354   2.541   6.583   2.052  0.1811 -0.7386  0.5118
15288TIP3    H167355   2.588   6.580   2.135  1.6370 -0.4281 -0.2714
15288TIP3    H267356   2.524   6.491   2.031 -0.7444 -0.7850  1.4470
15289TIP3   OH267357   2.557   1.527   5.182  0.3048 -0.0019 -0.1376
15289TIP3    H167358   2.540   1.466   5.110 -0.7751 -1.3310  1.1969
15289TIP3    H267359   2.573   1.471   5.258 -0.7870  1.3590  1.1577
15290TIP3   OH267360   0.522   4.487   2.644 -0.2235 -1.0993 -0.1815
15290TIP3    H167361   0.522   4.480   2.549 -2.6626  2.4371 -0.6603
15290TIP3    H267362   0.529   4.581   2.661 -1.0431 -1.4940  3.0807
15291TIP3   OH267363   3.055   1.455   4.791  0.0044 -0.3331 -0.2748
15291TIP3    H167364   3.086   1.542   4.817 -1.0841  1.1193 -3.3952
15291TIP3    H267365   2.974   1.443   4.841  0.8065 -0.1761  1.1280
15292TIP3   OH267366   2.039   1.692  14.646  0.1175  0.2070  0.5262
15292TIP3    H167367   2.121   1.676  14.692  0.8123 -1.1891 -1.0751
15292TIP3    H267368   2.059   1.673  14.554 -2.0537 -0.4913  0.1383
15293TIP3   OH267369   6.048   6.495   0.416  0.3554  0.3868  0.1222
15293TIP3    H167370   6.008   6.486   0.503  0.3960  0.6443  0.1704
15293TIP3    H267371   6.014   6.421   0.366 -0.3368  0.7076  0.1061
15294TIP3   OH267372   2.246   3.845  15.116 -0.5905 -0.3075  0.2364
15294TIP3    H167373   2.331   3.807  15.096 -0.4275  0.0816  0.1722
15294TIP3    H267374   2.234   3.912  15.048  0.3830  1.6888  1.9235
15295TIP3   OH267375   3.448   0.178  13.049  0.0368  0.4077 -0.3034
15295TIP3    H167376   3.505   0.254  13.060  0.9468 -0.2114 -0.6574
15295TIP3    H267377   3.437   0.169  12.955  2.3325 -1.5944 -0.4698
15296TIP3   OH267378   6.030   6.013  13.694 -0.5459  0.3741  0.0629
15296TIP3    H167379   6.021   5.966  13.611  0.3724 -2.2427  1.3322
15296TIP3    H267380   6.122   6.002  13.718 -0.5036  2.1501  0.8934
15297TIP3   OH267381   4.527   2.554   1.956  0.4670 -0.0892 -0.0910
15297TIP3    H167382   4.577   2.636   1.954  0.7597 -0.2708 -0.9546
15297TIP3    H267383   4.569   2.502   2.024  0.2320  0.5044  0.5153
15298TIP3   OH267384   0.928   4.935  11.892  0.0435  0.0934  0.4086
15298TIP3    H167385   0.966   4.964  11.975 -1.6255  2.9209  0.3129
15298TIP3    H267386   1.004   4.923  11.835  1.0723  1.4129  1.4169
15299TIP3   OH267387   4.966   2.846   6.035 -0.2756  0.2614  0.3210
15299TIP3    H167388   4.887   2.866   6.084 -1.3314 -1.8529 -0.4004
15299TIP3    H267389   5.014   2.784   6.092 -0.6781 -0.8626 -0.5239
15300TIP3   OH267390   4.028   1.117  14.908 -0.3592  0.3645  0.5291
15300TIP3    H167391   3.936   1.135  14.930 -0.4443 -0.1548  0.6015
15300TIP3    H267392   4.032   1.128  14.813 -1.1894 -2.4767  0.0684
15301TIP3   OH267393   1.160   1.709   3.850 -0.3529  0.2139  0.4798
15301TIP3    H167394   1.164   1.699   3.945 -2.1720 -0.4851  0.5202
15301TIP3    H267395   1.111   1.790   3.837  1.5835  1.4039  0.0846
15302TIP3   OH267396   6.232   4.926  11.361 -0.1058 -0.3761 -1.1284
15302TIP3    H167397   6.141   4.904  11.379 -0.3413  0.0964 -1.6766
15302TIP3    H267398   6.278   4.908  11.443 -0.2467 -2.8893 -1.5251
15303TIP3   OH267399   4.052   3.044  12.647  0.8492  0.3744 -0.3219
15303TIP3    H167400   4.105   3.007  12.577  1.1157  0.1398  0.0027
15303TIP3    H267401   4.108   3.041  12.724  0.9810  1.7097 -0.3421
15304TIP3   OH267402   6.127   3.139  11.719 -0.5249 -0.1722 -0.3151
15304TIP3    H167403   6.152   3.220  11.762 -0.5263  0.1838 -0.9672
15304TIP3    H267404   6.106   3.079  11.790 -0.3866  0.3555  0.1748
15305TIP3   OH267405   4.371   1.071  12.900 -0.0114 -0.0940  0.0093
15305TIP3    H167406   4.367   1.024  12.817  1.3009  1.7533 -1.1776
15305TIP3    H267407   4.450   1.039  12.943 -0.6816 -1.0379  0.5699
15306TIP3   OH267408   0.950   5.628   5.161  0.0703 -0.2805 -0.2588
15306TIP3    H167409   0.924   5.536   5.169 -0.1469 -0.0826  1.6883
15306TIP3    H267410   0.997   5.646   5.242 -1.0263  1.7060 -0.0288
15307TIP3   OH267411   1.675   0.796   3.476 -0.1400 -0.3651  0.0487
15307TIP3    H167412   1.608   0.783   3.543 -0.3639  0.5944  0.0197
15307TIP3    H267413   1.658   0.883   3.441 -1.5363 -1.6467 -2.9330
15308TIP3   OH267414   4.444   6.175   0.526  0.0285 -0.2613  0.0833
15308TIP3    H167415   4.427   6.094   0.477 -0.4033 -0.2307  0.1821
15308TIP3    H267416   4.364   6.226   0.516  0.4547  0.3365 -0.3251
15309TIP3   OH267417   2.888   4.519   0.807  0.0635  0.1652 -0.0507
15309TIP3    H167418   2.938   4.542   0.886 -0.9341  1.2389  0.2946
15309TIP3    H267419   2.812   4.577   0.809 -1.8589 -2.2548  0.0732
15310TIP3   OH267420   2.581   1.209   3.922  1.0847  0.2296 -0.1486
15310TIP3    H167421   2.619   1.284   3.968  1.6153 -0.7746  1.1112
15310TIP3    H267422   2.655   1.149   3.912  1.1406  0.6244 -2.8802
15311TIP3   OH267423   0.273   2.418  12.994  0.1223  0.7556 -0.0615
15311TIP3    H167424   0.184   2.454  12.998 -0.0453  0.4962 -1.2180
15311TIP3    H267425   0.260   2.325  12.975  0.6614  1.0747 -2.2177
15312TIP3   OH267426   5.131   0.866   1.771  0.5308  0.5209  0.1005
15312TIP3    H167427   5.169   0.868   1.859  0.7929 -1.3849  0.0827
15312TIP3    H267428   5.052   0.813   1.781 -1.2313  2.9303 -0.2298
15313TIP3   OH267429   5.530   1.687   0.889  0.5276  0.3595 -0.6092
15313TIP3    H167430   5.598   1.753   0.877  0.9158  0.3107  1.0680
15313TIP3    H267431   5.550   1.647   0.974 -1.8301  0.6268  0.1411
15314TIP3   OH267432   2.143   3.670  13.713 -0.3594 -0.0499 -0.4790
15314TIP3    H167433   2.193   3.634  13.786  1.2908  0.6785 -1.2108
15314TIP3    H267434   2.058   3.692  13.751  0.6962  0.9949  1.4039
15315TIP3   OH267435   6.384   5.813   5.096  0.1881 -0.0285  0.8646
15315TIP3    H167436   6.371   5.895   5.143  0.3737  0.7327 -0.3879
15315TIP3    H267437   6.300   5.796   5.053  0.0865 -0.6161  1.2776
15316TIP3   OH267438   6.018   6.292   1.007 -0.3411 -0.1586 -0.2602
15316TIP3    H167439   6.102   6.250   1.025 -0.7629  0.2203  3.3888
15316TIP3    H267440   6.041   6.373   0.962  1.4722  0.6141  1.8749
15317TIP3   OH267441   0.916   0.220   1.405  0.3301 -0.2819  0.7149
15317TIP3    H167442   0.870   0.283   1.460  1.6609  0.7228  0.7138
15317TIP3    H267443   0.849   0.156   1.382 -1.4813  1.8904 -0.4901
15318TIP3   OH267444   1.432   4.123  13.226  0.4892 -0.5186 -0.0702
15318TIP3    H167445   1.497   4.059  13.254  0.1728 -1.0254 -0.4559
15318TIP3    H267446   1.428   4.112  13.131 -2.0023 -2.3386  0.1549
15319TIP3   OH267447   0.975   0.114  10.769 -0.4910 -0.4355 -0.3850
15319TIP3    H167448   0.888   0.086  10.740 -1.0074 -1.3091  1.7559
15319TIP3    H267449   0.967   0.208  10.784 -1.2559 -0.5995  0.3048
15320TIP3   OH267450   6.026   5.103   3.439 -0.1878  0.3950  0.0557
15320TIP3    H167451   6.092   5.035   3.428 -0.4547  0.1902 -0.3038
15320TIP3    H267452   5.987   5.114   3.352 -1.6353 -0.5449  0.5492
15321TIP3   OH267453   2.463   3.083   1.055 -0.0902  0.1195  0.0049
15321TIP3    H167454   2.368   3.085   1.049 -0.6931  0.6685  5.0976
15321TIP3    H267455   2.489   3.008   1.002 -3.4639 -0.7787 -0.6164
15322TIP3   OH267456   6.529   0.581   0.954 -0.0730 -0.2933  0.2895
15322TIP3    H167457   6.616   0.614   0.934 -0.3642  0.6065  0.4537
15322TIP3    H267458   6.541   0.487   0.967  0.4767 -0.6352 -2.0802
15323TIP3   OH267459   6.576   0.871   0.071  0.1659  0.2900  0.0270
15323TIP3    H167460   6.548   0.782   0.090 -3.0002  1.5581  2.1791
15323TIP3    H267461   6.542   0.888  -0.017 -1.0770  0.0097  0.4365
15324TIP3   OH267462   4.264   0.559   1.979 -0.0633  0.0202 -0.0742
15324TIP3    H167463   4.312   0.622   2.032 -1.8455  1.4861 -0.0994
15324TIP3    H267464   4.227   0.497   2.042 -0.6628  0.6868  0.2357
15325TIP3   OH267465   1.081   6.457   0.494 -0.0058  0.4893  0.6451
15325TIP3    H167466   1.174   6.438   0.506  0.4581  2.1341 -0.0266
15325TIP3    H267467   1.072   6.549   0.517 -1.1647  0.7653 -0.7384
15326TIP3   OH267468   3.671   0.543   4.959  0.6270  0.4545  0.1162
15326TIP3    H167469   3.689   0.455   4.925 -0.6098 -0.5216  1.7924
15326TIP3    H267470   3.670   0.532   5.055  0.0578  2.2103  0.3515
15327TIP3   OH267471   1.467   2.810  14.500  0.1160  0.4088  0.0167
15327TIP3    H167472   1.437   2.749  14.567 -0.1063  0.0195 -0.4374
15327TIP3    H267473   1.550   2.844  14.534 -0.7230  1.3764  1.2047
15328TIP3   OH267474   3.300   5.220   3.333 -0.2282  0.4055 -0.4904
15328TIP3    H167475   3.225   5.260   3.377 -0.5922 -1.0651  0.2841
15328TIP3    H267476   3.271   5.132   3.311  1.0905  0.0036 -0.6827
15329TIP3   OH267477   2.906   5.031  11.951  0.0430 -0.2802  0.5397
15329TIP3    H167478   3.001   5.029  11.960  0.2019  0.9398 -0.5693
15329TIP3    H267479   2.884   5.124  11.943 -0.8943 -0.6418 -2.1221
15330TIP3   OH267480   1.623   6.528   2.380  0.2631  0.2005 -0.0389
15330TIP3    H167481   1.655   6.482   2.303  2.3174  0.5977  0.5160
15330TIP3    H267482   1.563   6.465   2.422  0.4692 -0.6751 -1.0151
15331TIP3   OH267483   6.693   5.223   5.606 -0.2162 -0.1097 -0.0857
15331TIP3    H167484   6.727   5.133   5.611  2.3136  0.7288 -0.6223
15331TIP3    H267485   6.688   5.251   5.697 -0.6502 -0.6671  0.0662
15332TIP3   OH267486   5.072   6.557  14.186 -0.3249  0.2923  0.0450
15332TIP3    H167487   5.123   6.573  14.106 -0.3254  0.7459  0.1344
15332TIP3    H267488   5.125   6.593  14.256  0.3325 -1.3443  0.4387
15333TIP3   OH267489   5.241   4.880   4.336  0.3610  0.2603 -0.1671
15333TIP3    H167490   5.333   4.864   4.356  0.4951  0.1591 -0.8411
15333TIP3    H267491   5.193   4.824   4.397  0.7410  0.3072  0.1793
15334TIP3   OH267492   3.634   0.975  11.376 -0.0748 -0.7448 -0.4001
15334TIP3    H167493   3.664   0.967  11.285 -0.3630  0.2163 -0.5936
15334TIP3    H267494   3.590   1.061  11.379  2.9606  0.9268  1.4978
15335TIP3   OH267495   3.119   5.714   0.159  0.4177  0.6793 -0.3888
15335TIP3    H167496   3.168   5.733   0.079 -0.7004  1.4240 -0.9268
15335TIP3    H267497   3.101   5.620   0.154 -0.4409  0.8816 -1.5091
15336TIP3   OH267498   1.018   6.260  14.120 -0.2672 -0.0254 -0.1166
15336TIP3    H167499   0.978   6.275  14.035 -0.5344 -1.3110 -0.2328
15336TIP3    H267500   1.112   6.277  14.106 -0.3342 -0.0575 -0.6082
15337TIP3   OH267501   6.403   4.514   2.579  0.4971 -0.1445 -0.7785
15337TIP3    H167502   6.485   4.563   2.588  2.0861 -2.6398 -0.7849
15337TIP3    H267503   6.408   4.473   2.493 -0.4352 -0.8965 -0.4994
15338TIP3   OH267504   1.233   2.678  15.817  0.0224  0.5044 -0.7723
15338TIP3    H167505   1.234   2.722  15.902  0.2479  0.1373 -0.5794
15338TIP3    H267506   1.205   2.588  15.837  3.2229 -0.5661 -0.5732
15339TIP3   OH267507   3.467   4.448  13.975 -0.6242  0.2514 -0.8321
15339TIP3    H167508   3.430   4.469  14.061 -0.4467 -2.5866  0.0476
15339TIP3    H267509   3.519   4.525  13.951 -2.4347  2.0085  0.5427
15340TIP3   OH267510   2.759   4.888  12.602 -0.0891 -0.0277  0.5635
15340TIP3    H167511   2.841   4.924  12.568  0.0535 -0.6442  0.2372
15340TIP3    H267512   2.694   4.956  12.585 -0.1640 -0.5533 -1.5785
15341TIP3   OH267513   0.967   5.203  14.568  0.5259  0.3262 -0.1904
15341TIP3    H167514   1.003   5.264  14.504  0.5802 -0.4642 -0.9382
15341TIP3    H267515   1.037   5.192  14.633  1.4844 -0.7833 -1.3507
15342TIP3   OH267516   5.904   6.455  13.860 -0.3018 -0.0955  0.3704
15342TIP3    H167517   5.948   6.528  13.816 -0.6287 -0.8948 -1.3871
15342TIP3    H267518   5.908   6.383  13.796 -3.1573 -0.5297  0.5311
15343TIP3   OH267519   5.319   1.996   1.206 -0.6513 -0.5697  0.4042
15343TIP3    H167520   5.278   1.951   1.131 -1.1428  0.0371  0.2982
15343TIP3    H267521   5.336   1.927   1.269 -2.4316 -0.7672  0.7102
15344TIP3   OH267522   1.876   2.255   2.658  0.0296 -0.1007  0.6090
15344TIP3    H167523   1.958   2.282   2.700  1.3963 -1.2608 -1.1260
15344TIP3    H267524   1.822   2.333   2.659  2.5328  1.8521 -1.2550
15345TIP3   OH267525   6.002   5.705  16.306 -0.5603 -0.3015 -0.2462
15345TIP3    H167526   5.993   5.723  16.213 -0.0646  1.7421  0.0440
15345TIP3    H267527   5.936   5.760  16.348  0.4690  0.2540  0.6990
15346TIP3   OH267528   2.685   4.865   1.765 -0.0732  0.2373 -0.5392
15346TIP3    H167529   2.732   4.948   1.758  1.5593 -0.7581 -2.2757
15346TIP3    H267530   2.597   4.884   1.733 -0.1744  1.6088  0.4972
15347TIP3   OH267531   5.897   1.566   1.470  0.1467  0.3884  0.7954
15347TIP3    H167532   5.872   1.481   1.506 -1.6070  0.3974 -0.2858
15347TIP3    H267533   5.960   1.545   1.401  0.1339  0.0084  0.8975
15348TIP3   OH267534   0.750   1.500   6.017 -0.6145  0.3805  0.8749
15348TIP3    H167535   0.676   1.556   5.994  0.6115  1.5543 -0.4312
15348TIP3    H267536   0.812   1.512   5.945 -0.4807 -3.1253  0.2188
15349TIP3   OH267537   2.035   0.391   5.748  0.0793  0.3449  0.5142
15349TIP3    H167538   2.118   0.407   5.703  0.7597 -0.4154  1.4529
15349TIP3    H267539   2.060   0.352   5.831 -1.1631  1.4943  1.4684
15350TIP3   OH267540   5.077   1.719  15.246  0.3400  0.5698  0.6112
15350TIP3    H167541   5.088   1.671  15.164  0.7284 -2.2185  2.1472
15350TIP3    H267542   4.994   1.685  15.282  0.0602  1.9024  1.2929
15351TIP3   OH267543   1.255   6.654  10.570  0.0822 -0.4075 -0.2766
15351TIP3    H167544   1.242   6.726  10.508  0.5147  0.2706  0.3977
15351TIP3    H267545   1.185   6.664  10.634  0.5049 -0.2089  0.1621
15352TIP3   OH267546   1.950   1.335   3.239  0.3697  0.1250  0.1647
15352TIP3    H167547   1.934   1.430   3.245  0.7127  0.1973 -0.0466
15352TIP3    H267548   1.873   1.296   3.279 -0.6247  0.4591 -1.3393
15353TIP3   OH267549   6.003   1.815   0.865  0.2585  0.2491  0.5084
15353TIP3    H167550   5.947   1.892   0.871  0.8531  0.8675 -1.1192
15353TIP3    H267551   6.070   1.839   0.800  1.7699 -0.8424  1.5738
15354TIP3   OH267552   4.417   1.251  13.999  0.2077 -0.3534  0.2119
15354TIP3    H167553   4.445   1.307  13.927  0.7187  0.0276  0.6913
15354TIP3    H267554   4.472   1.278  14.073 -2.6446  1.7099  1.7651
15355TIP3   OH267555   4.052   0.845   2.524  0.4342 -0.0297 -0.3751
15355TIP3    H167556   3.976   0.808   2.480 -0.9988  0.6681  1.4065
15355TIP3    H267557   4.105   0.770   2.549 -0.9715 -0.7263  0.6189
15356TIP3   OH267558   3.017   5.815   3.430  0.1501  0.3567  0.6210
15356TIP3    H167559   3.086   5.866   3.388 -0.7760  0.9664 -0.2142
15356TIP3    H267560   3.017   5.845   3.521 -0.3989  1.9306  0.1461
15357TIP3   OH267561   6.455   4.580   5.448 -0.1982  0.2607  0.1162
15357TIP3    H167562   6.501   4.501   5.477 -1.8097 -0.0877  1.8650
15357TIP3    H267563   6.463   4.640   5.522  1.0906  1.8374 -1.2291
15358TIP3   OH267564   1.561   6.655   5.531  0.4875 -0.3861 -0.1476
15358TIP3    H167565   1.576   6.562   5.519  0.3898 -0.3876 -0.2579
15358TIP3    H267566   1.538   6.663   5.624 -0.6192 -0.6264 -0.3897
15359TIP3   OH267567   2.227   6.088  15.449  0.0520  0.1252  0.1259
15359TIP3    H167568   2.305   6.133  15.482  0.4934 -0.1407 -0.5419
15359TIP3    H267569   2.219   6.117  15.358  0.1610 -0.8907 -0.2191
15360TIP3   OH267570   1.809   4.704  12.764 -0.2881  0.4549  0.0807
15360TIP3    H167571   1.752   4.768  12.723  0.2179 -0.0665 -1.5140
15360TIP3    H267572   1.874   4.683  12.697  1.6672  0.8605  1.7548
15361TIP3   OH267573   6.412   1.325   6.414  0.3812  0.1451 -0.3385
15361TIP3    H167574   6.452   1.271   6.483  1.8464  0.9425 -0.5187
15361TIP3    H267575   6.358   1.388   6.461 -2.3323 -2.1251 -0.1640
15362TIP3   OH267576   4.621   5.023  16.587 -0.1447  0.5514 -0.1595
15362TIP3    H167577   4.582   4.976  16.513  2.0559  0.4151 -1.3435
15362TIP3    H267578   4.682   4.960  16.625  1.0530  1.6252 -0.2262
15363TIP3   OH267579   3.036   5.469  13.446  0.2454  0.1820 -0.6390
15363TIP3    H167580   2.949   5.498  13.418  0.1104  0.3177 -0.1009
15363TIP3    H267581   3.021   5.427  13.531  1.1491  3.4354  1.3077
15364TIP3   OH267582   4.727   1.079   0.545  0.2173 -0.7568  0.0986
15364TIP3    H167583   4.675   1.103   0.622  0.6413  1.9380 -0.3551
15364TIP3    H267584   4.685   0.999   0.512  0.4646 -2.4434  3.4400
15365TIP3   OH267585   6.727   1.438  13.304 -0.5771 -0.7669 -0.5639
15365TIP3    H167586   6.647   1.454  13.254 -0.1842  0.7262 -0.7678
15365TIP3    H267587   6.798   1.461  13.243 -0.0692  0.2190  0.3635
15366TIP3   OH267588   3.839   3.548   5.312 -0.4709 -0.2344  1.0914
15366TIP3    H167589   3.808   3.469   5.354  0.9311 -1.4489 -0.0320
15366TIP3    H267590   3.821   3.534   5.219  0.3060  0.5068  0.8155
15367TIP3   OH267591   1.806   4.855  13.219 -0.4580 -0.3221  0.1399
15367TIP3    H167592   1.800   4.782  13.157 -1.4944 -1.3502  1.4132
15367TIP3    H267593   1.810   4.933  13.163 -2.4459 -1.1228 -1.2463
15368TIP3   OH267594   4.038   6.319   4.116 -0.3053  0.4635 -0.0624
15368TIP3    H167595   3.993   6.245   4.074  0.7514  0.4161 -1.1747
15368TIP3    H267596   4.115   6.280   4.158  0.9531  1.0402 -1.7244
15369TIP3   OH267597   2.946   5.444   1.901 -0.0342  0.3642  0.1707
15369TIP3    H167598   2.877   5.395   1.945  0.8353 -0.7616  0.3161
15369TIP3    H267599   2.916   5.451   1.810  0.2843 -1.3613 -0.0943
15370TIP3   OH267600   0.363   0.351  12.494  0.5314  0.4006  0.5782
15370TIP3    H167601   0.330   0.377  12.580 -0.3477  0.3903  0.2519
15370TIP3    H267602   0.381   0.434  12.450 -1.2510  0.4830 -0.0693
15371TIP3   OH267603   4.339   1.113  12.188 -0.0493 -0.6772 -0.5934
15371TIP3    H167604   4.328   1.184  12.252 -0.0700 -1.5569  0.3954
15371TIP3    H267605   4.393   1.152  12.119  0.6204  0.0668  0.3281
15372TIP3   OH267606   5.704   1.071  14.063  0.1620  0.2188  0.2155
15372TIP3    H167607   5.797   1.060  14.084  0.8678  3.2048 -0.8433
15372TIP3    H267608   5.659   1.058  14.147  1.4240 -1.7221  0.6650
15373TIP3   OH267609   5.032   3.294   5.658  0.1102 -0.0414 -0.1602
15373TIP3    H167610   4.980   3.259   5.730  0.0213 -0.3864 -0.3909
15373TIP3    H267611   4.968   3.326   5.595  0.1923  1.1667  0.3458
15374TIP3   OH267612   5.810   1.320   2.223 -0.6687  1.2210  0.0112
15374TIP3    H167613   5.768   1.338   2.139 -1.7052  2.1594  0.7054
15374TIP3    H267614   5.793   1.227   2.238 -0.1631  0.9521 -0.9699
15375TIP3   OH267615   4.149   5.437  16.910  0.5547 -0.6107 -0.0313
15375TIP3    H167616   4.149   5.341  16.914 -0.7869 -0.6264 -0.2145
15375TIP3    H267617   4.095   5.458  16.834  0.4328  0.3147  0.3044
15376TIP3   OH267618   3.510   3.726   6.618 -0.7059 -0.2915 -0.5151
15376TIP3    H167619   3.589   3.781   6.614 -2.0955  1.7926 -0.6600
15376TIP3    H267620   3.447   3.770   6.561 -1.6235 -2.5777 -1.3739
15377TIP3   OH267621   3.854   3.713   0.924 -0.2547  0.2356  0.5886
15377TIP3    H167622   3.778   3.747   0.877  0.6957  0.6057 -0.7559
15377TIP3    H267623   3.837   3.620   0.934 -0.5708  0.1857 -0.3528
15378TIP3   OH267624   1.730   6.100  14.713 -0.2206  0.2980 -0.5790
15378TIP3    H167625   1.767   6.078  14.798 -0.4530  0.2898 -0.4796
15378TIP3    H267626   1.797   6.072  14.650 -0.6565 -1.0565 -0.4787
15379TIP3   OH267627   6.233   2.591  16.689  0.0485 -0.0196  0.0827
15379TIP3    H167628   6.199   2.603  16.778  1.0767  1.2767  0.3170
15379TIP3    H267629   6.207   2.501  16.666 -1.5828  0.1595  1.0791
15380TIP3   OH267630   4.544   4.806   2.798 -0.2150  0.4512  0.0348
15380TIP3    H167631   4.510   4.778   2.883  1.6635 -2.0025  0.0615
15380TIP3    H267632   4.638   4.818   2.813  0.5663 -2.1662 -2.1037
15381TIP3   OH267633   6.576   0.077  11.498  0.1141  0.5730 -0.1631
15381TIP3    H167634   6.561   0.096  11.406 -0.0269  0.5608 -0.1415
15381TIP3    H267635   6.586  -0.018  11.502 -1.0457  0.4417  0.0007
15382TIP3   OH267636   3.311   4.172  11.158 -0.4098 -0.2118  0.4517
15382TIP3    H167637   3.356   4.200  11.078 -0.8135  1.6170  0.8295
15382TIP3    H267638   3.302   4.077  11.148  2.9760 -0.6017  0.0974
15383TIP3   OH267639   4.036   5.783   4.077 -0.2151  0.1303 -0.4412
15383TIP3    H167640   4.010   5.751   4.163  1.2257  0.3158  0.0988
15383TIP3    H267641   4.011   5.713   4.016 -3.6479  1.0645 -0.3101
15384TIP3   OH267642   0.994   3.304  13.329  0.5071  0.0985  0.0576
15384TIP3    H167643   0.933   3.257  13.385  2.0833 -1.0772  0.8630
15384TIP3    H267644   1.008   3.388  13.373 -1.5807  1.0250 -0.8913
15385TIP3   OH267645   3.613   0.252   1.274 -0.6728  0.0497  0.3800
15385TIP3    H167646   3.673   0.188   1.312 -1.7721 -0.5726  1.1231
15385TIP3    H267647   3.668   0.328   1.255  0.1678 -0.0910  2.0817
15386TIP3   OH267648   6.040   2.226   2.013  0.2518 -1.2444 -0.3062
15386TIP3    H167649   5.972   2.268   2.067 -1.1646 -3.7096 -0.0117
15386TIP3    H267650   6.115   2.286   2.018 -0.6038 -0.2417  2.5124
15387TIP3   OH267651   1.815   4.165   2.678  0.2501 -0.3234 -0.0168
15387TIP3    H167652   1.907   4.152   2.655 -0.0121 -0.1916 -1.2033
15387TIP3    H267653   1.813   4.251   2.720  0.7427 -0.5474  0.4723
15388TIP3   OH267654   3.935   0.327  16.081 -0.1400  0.7706 -0.2211
15388TIP3    H167655   3.984   0.245  16.072 -1.7290 -0.2143 -0.3045
15388TIP3    H267656   3.910   0.350  15.992 -3.8802 -1.3969  0.0687
15389TIP3   OH267657   4.398   5.903   1.025 -0.3015 -0.1445  0.5556
15389TIP3    H167658   4.441   5.842   0.965 -2.1915 -1.5032  0.4925
15389TIP3    H267659   4.444   5.986   1.013  0.8603 -0.9810 -1.0533
15390TIP3   OH267660   6.371   1.690  13.424  0.1978 -0.5761  0.2080
15390TIP3    H167661   6.369   1.604  13.383  1.5463 -0.3741 -0.3518
15390TIP3    H267662   6.384   1.751  13.351  2.0314 -0.1615  0.8065
15391TIP3   OH267663   1.875   0.290  16.641 -0.7612 -0.1152  0.2689
15391TIP3    H167664   1.858   0.383  16.624 -3.0350 -0.4121  0.5534
15391TIP3    H267665   1.815   0.243  16.583 -2.4233 -1.2825  2.7103
15392TIP3   OH267666   4.907   1.309   1.077  0.6509 -0.4686 -0.2209
15392TIP3    H167667   4.936   1.240   1.017  0.3844 -0.5715 -0.2293
15392TIP3    H267668   4.827   1.343   1.039  2.1160  1.6441 -1.6180
15393TIP3   OH267669   2.564   3.881   3.044  0.3441 -0.0955 -0.2539
15393TIP3    H167670   2.481   3.834   3.043  0.6251 -0.6707  1.0266
15393TIP3    H267671   2.543   3.967   3.008 -0.9871  0.0315  0.7167
15394TIP3   OH267672   1.667   5.597  15.782  0.3310 -0.3414  0.2752
15394TIP3    H167673   1.742   5.657  15.779  1.2504 -1.5128 -1.1781
15394TIP3    H267674   1.615   5.619  15.705 -0.4055 -0.1026  0.8242
15395TIP3   OH267675   4.030   3.826   1.650  0.3533 -0.1786 -0.0861
15395TIP3    H167676   4.022   3.733   1.668 -0.2424 -0.0267  0.4442
15395TIP3    H267677   4.020   3.868   1.735  1.4861  0.3273 -0.1826
15396TIP3   OH267678   5.310   2.922  15.419 -0.0881  0.4054 -0.0954
15396TIP3    H167679   5.345   3.011  15.411  0.0441  0.3165 -0.5394
15396TIP3    H267680   5.280   2.916  15.510 -3.3176  2.1171 -0.8930
15397TIP3   OH267681   4.619   4.002  12.916  0.3227  0.3071 -0.0718
15397TIP3    H167682   4.592   3.967  13.001  0.4838  0.3329 -0.0101
15397TIP3    H267683   4.650   4.091  12.935  0.4237  0.2881 -0.1474
15398TIP3   OH267684   4.855   6.744  17.031 -0.3987  0.3183 -0.5898
15398TIP3    H167685   4.868   6.837  17.051 -0.6767  0.4314 -0.9309
15398TIP3    H267686   4.906   6.698  17.098 -1.1703  0.6916  0.2771
15399TIP3   OH267687   2.547   0.446  16.141 -0.6761  0.1096 -0.1664
15399TIP3    H167688   2.489   0.372  16.158 -0.8895  0.1442 -0.7423
15399TIP3    H267689   2.635   0.408  16.137 -0.6591  0.0486  0.6301
15400TIP3   OH267690   0.774   3.965  14.130 -0.1357  0.8683 -0.4790
15400TIP3    H167691   0.750   3.881  14.168  1.6412  1.1781  1.4686
15400TIP3    H267692   0.818   3.942  14.048 -0.5170 -0.0402 -0.4446
15401TIP3   OH267693   5.181   0.448  16.067 -0.2464 -0.0121  0.1349
15401TIP3    H167694   5.112   0.464  16.003 -0.2061  0.9730  0.3260
15401TIP3    H267695   5.204   0.356  16.055 -1.4915 -0.3183 -0.0215
15402TIP3   OH267696   3.494   2.319   0.143 -0.7348  0.9433 -0.8866
15402TIP3    H167697   3.479   2.383   0.212 -0.0199 -0.6542  0.8611
15402TIP3    H267698   3.587   2.296   0.151 -1.2616 -1.3388 -0.4339
15403TIP3   OH267699   0.106   6.516  14.209  0.0998  0.0184 -0.3379
15403TIP3    H167700   0.037   6.514  14.275  1.1154  3.4533  1.0703
15403TIP3    H267701   0.142   6.428  14.208 -2.6055 -1.2066  0.6714
15404TIP3   OH267702   4.602   5.712   1.240 -0.0668  0.5222 -0.1739
15404TIP3    H167703   4.652   5.764   1.176 -1.0972 -0.1036 -1.5379
15404TIP3    H267704   4.525   5.766   1.259  0.5552  1.0097  1.1116
15405TIP3   OH267705   3.974   6.691  17.291  0.3489  0.5892 -0.4377
15405TIP3    H167706   3.883   6.668  17.272  0.0829  2.2557 -1.3845
15405TIP3    H267707   3.982   6.782  17.263  2.2262  0.5841 -0.0530
15406TIP3   OH267708   5.070   0.470   5.140 -0.6645 -0.0940  0.0387
15406TIP3    H167709   5.091   0.526   5.065 -0.3113  0.9338  0.8700
15406TIP3    H267710   5.035   0.390   5.102  1.8098 -0.6043 -1.3167
15407TIP3   OH267711   5.754   3.266   1.161 -0.1519  0.5134  0.1069
15407TIP3    H167712   5.816   3.200   1.130 -1.3551 -0.6635  0.1329
15407TIP3    H267713   5.765   3.266   1.256  1.1747  1.7436 -0.0024
15408TIP3   OH267714   2.077   3.319  13.407  0.1262 -0.2236  0.1897
15408TIP3    H167715   2.111   3.247  13.461 -0.5401  1.2299  2.7155
15408TIP3    H267716   2.110   3.398  13.449 -1.6249  1.0256 -0.6718
15409TIP3   OH267717   4.816   6.530   3.033 -0.1822 -0.0003  0.6188
15409TIP3    H167718   4.843   6.601   2.975  2.0360 -0.0935  1.4581
15409TIP3    H267719   4.875   6.458   3.012 -1.1324 -0.9591  1.1259
15410TIP3   OH267720   6.261   2.135  11.443  0.0974  0.2121 -0.4755
15410TIP3    H167721   6.184   2.134  11.501  0.8614  1.7439  0.6382
15410TIP3    H267722   6.330   2.093  11.494 -0.1331 -1.8401 -1.7627
15411TIP3   OH267723   0.782   2.939  16.460 -0.5440  0.0055 -0.2809
15411TIP3    H167724   0.762   3.030  16.484 -2.8733 -0.7898  1.1913
15411TIP3    H267725   0.759   2.933  16.367  2.7923  1.6475 -1.3614
15412TIP3   OH267726   5.723   2.838   3.176 -0.1770  0.2229 -0.5275
15412TIP3    H167727   5.691   2.861   3.263 -0.8088 -0.4443 -0.5697
15412TIP3    H267728   5.709   2.917   3.124  2.1603  1.3771  0.4395
15413TIP3   OH267729   6.617   3.432  12.082  0.0454 -0.7742  0.0853
15413TIP3    H167730   6.644   3.367  12.016 -1.6708  0.0381 -1.5341
15413TIP3    H267731   6.698   3.472  12.111  0.8395 -0.6082 -2.1794
15414TIP3   OH267732   2.591   5.675  13.207  1.0004 -0.1361 -0.4138
15414TIP3    H167733   2.661   5.739  13.221 -0.5073  1.7232 -1.0146
15414TIP3    H267734   2.562   5.691  13.117 -0.7880 -0.2786  0.1160
15415TIP3   OH267735   5.695   2.934   0.934  0.1508 -0.2872  0.0845
15415TIP3    H167736   5.742   2.989   0.871  0.1267  0.7767  0.9560
15415TIP3    H267737   5.670   2.856   0.884  3.2649 -1.1695 -0.2995
15416TIP3   OH267738   4.934   2.011  14.188  0.2542  0.2799  0.7790
15416TIP3    H167739   4.876   2.005  14.112 -0.4999  1.4411  1.2426
15416TIP3    H267740   5.009   2.061  14.157  1.8992 -2.5831 -0.2960
15417TIP3   OH267741   3.096   5.339   3.468  0.1896  0.8537 -0.2312
15417TIP3    H167742   3.068   5.418   3.422 -0.7747  1.3004  1.0572
15417TIP3    H267743   3.098   5.364   3.560 -1.1451 -0.8579  0.3422
15418TIP3   OH267744   0.535   4.535  17.217  0.0581 -0.3587 -0.0562
15418TIP3    H167745   0.506   4.502  17.132 -0.8688 -0.6006  0.3410
15418TIP3    H267746   0.463   4.590  17.248  0.3672 -0.3027  0.5881
15419TIP3   OH267747   1.794   1.332  16.661  0.2202 -0.3191  0.3168
15419TIP3    H167748   1.847   1.411  16.647 -1.9489  0.9500 -1.2631
15419TIP3    H267749   1.802   1.315  16.755  3.7101 -0.5171  0.1439
15420TIP3   OH267750   5.494   5.525  12.158  0.6081 -0.1715  0.4886
15420TIP3    H167751   5.442   5.595  12.198  2.1216  0.6701  1.0508
15420TIP3    H267752   5.495   5.456  12.224  1.3524  0.3715  1.0554
15421TIP3   OH267753   4.937   0.364  13.543  0.2698  0.0605 -0.2007
15421TIP3    H167754   4.918   0.346  13.635 -1.2850 -2.1059 -0.8549
15421TIP3    H267755   4.851   0.365  13.501  1.0291 -0.4723 -1.8476
15422TIP3   OH267756   5.409   5.122  12.635  0.1500 -0.5083  0.1224
15422TIP3    H167757   5.455   5.059  12.580 -0.4912 -1.1916  0.3509
15422TIP3    H267758   5.478   5.178  12.671  0.4986  0.6096 -2.1408
15423TIP3   OH267759   1.079   1.026  13.261  0.0479  0.2717 -0.0334
15423TIP3    H167760   0.988   1.048  13.241 -0.0184  0.3730  0.3638
15423TIP3    H267761   1.092   0.939  13.223 -0.3886  0.0138  0.3952
15424TIP3   OH267762   0.883   5.634  17.141  0.0917  0.0323 -0.0023
15424TIP3    H167763   0.953   5.570  17.132 -0.2152 -0.4010  0.5970
15424TIP3    H267764   0.817   5.589  17.194  0.4713  1.3300  1.6445
15425TIP3   OH267765   4.057   2.372   1.802  0.6718 -0.4667  0.3637
15425TIP3    H167766   4.151   2.363   1.790  1.3574  1.9940  2.7468
15425TIP3    H267767   4.038   2.328   1.885  0.5221  2.1055  1.8120
15426TIP3   OH267768   2.417   5.083   1.370 -0.3462 -0.0045 -0.0181
15426TIP3    H167769   2.403   4.991   1.348  0.0975 -0.3367  1.0112
15426TIP3    H267770   2.512   5.092   1.374 -0.3984  0.1129  1.3537
15427TIP3   OH267771   4.168   4.836  13.998 -0.3997  0.2912 -0.5480
15427TIP3    H167772   4.237   4.786  13.955 -1.2765  1.4409 -3.5793
15427TIP3    H267773   4.214   4.903  14.048  0.7012 -1.8405  1.4918
15428TIP3   OH267774   3.375   3.672  13.032  0.2113 -0.5636 -0.7490
15428TIP3    H167775   3.323   3.601  12.995 -1.3877  0.3286 -0.3160
15428TIP3    H267776   3.337   3.751  12.993  1.3284  0.1254 -0.4870
15429TIP3   OH267777   4.849   3.963  11.532  0.2518  0.2650  0.1838
15429TIP3    H167778   4.892   3.896  11.478 -1.8314 -0.1569 -1.0715
15429TIP3    H267779   4.851   4.042  11.477 -0.2613  0.3196  0.2373
15430TIP3   OH267780   5.930   1.110   1.448  0.8687  0.0443  0.1943
15430TIP3    H167781   5.847   1.063   1.450 -0.4224  2.1866  0.2561
15430TIP3    H267782   5.995   1.045   1.474 -0.5422 -2.1114 -1.3495
15431TIP3   OH267783   5.296   2.067  12.579  0.2973  0.2949 -0.4692
15431TIP3    H167784   5.254   2.145  12.615  2.8192  2.2747 -1.4749
15431TIP3    H267785   5.390   2.083  12.590  0.9480 -3.2872  0.5386
15432TIP3   OH267786   3.562   1.137  11.054  0.1144  0.2184  0.2968
15432TIP3    H167787   3.623   1.185  11.109  0.1482 -1.8762  2.2358
15432TIP3    H267788   3.616   1.074  11.006  0.0479  1.7938 -2.0548
15433TIP3   OH267789   1.810   2.597  12.643 -0.0986  0.0180 -0.2627
15433TIP3    H167790   1.739   2.660  12.643 -0.1878 -0.0608 -1.2281
15433TIP3    H267791   1.831   2.584  12.550  1.1681  0.0352 -0.0015
15434TIP3   OH267792   6.071   6.251  11.168  0.5715  0.3907  0.2394
15434TIP3    H167793   6.086   6.158  11.186 -1.3005  0.1620  0.7573
15434TIP3    H267794   6.095   6.262  11.076  0.4240 -0.6983  0.0571
15435TIP3   OH267795   2.235   6.457   3.667 -0.1519  0.0163 -0.5807
15435TIP3    H167796   2.179   6.463   3.744  0.8014  2.1945  0.0117
15435TIP3    H267797   2.198   6.385   3.616 -2.0570 -0.1272  0.9024
15436TIP3   OH267798   5.679   3.924  12.578  0.1958  0.3861 -0.5506
15436TIP3    H167799   5.773   3.928  12.591 -0.0649  0.0824  2.0425
15436TIP3    H267800   5.659   3.830  12.578 -0.1412  0.4562 -0.5930
15437TIP3   OH267801   1.287   1.487   2.852  0.6701  0.0125 -0.4427
15437TIP3    H167802   1.319   1.469   2.764  1.2854  0.5129 -0.3287
15437TIP3    H267803   1.341   1.559   2.884 -1.2369  1.6248 -0.6281
15438TIP3   OH267804   6.233   6.066  12.679 -0.4391  0.3246  0.0795
15438TIP3    H167805   6.270   6.075  12.767 -1.9454 -0.6553  0.8513
15438TIP3    H267806   6.177   5.989  12.684  0.3483 -0.4702 -2.0868
15439TIP3   OH267807   0.292   6.367  14.769 -0.0781 -0.2965 -0.2095
15439TIP3    H167808   0.324   6.277  14.774  1.4710  0.2896  1.3010
15439TIP3    H267809   0.344   6.406  14.698  0.6585 -0.0901  0.4275
15440TIP3   OH267810   5.818   0.131  16.146 -0.2036  0.1535 -0.0988
15440TIP3    H167811   5.739   0.084  16.173  0.1338 -0.5042 -0.2263
15440TIP3    H267812   5.863   0.070  16.087  1.0069  0.0115  0.9293
15441TIP3   OH267813   1.334   6.653  11.902  0.3729  0.0537  0.5751
15441TIP3    H167814   1.347   6.603  11.821  0.5539  0.0437  0.6108
15441TIP3    H267815   1.350   6.744  11.878 -0.4262  0.1578  0.3979
15442TIP3   OH267816   4.362   5.531  14.544  0.0945 -0.0893  0.1968
15442TIP3    H167817   4.389   5.606  14.492 -0.5693  1.0748  1.4729
15442TIP3    H267818   4.315   5.569  14.619  0.0671 -1.7477  1.0702
15443TIP3   OH267819   2.859   1.536   0.353  0.1800  0.0085 -0.4796
15443TIP3    H167820   2.875   1.541   0.447 -2.7063 -0.0446  0.1066
15443TIP3    H267821   2.946   1.522   0.314  1.5476  0.8510  2.0738
15444TIP3   OH267822   3.696   1.029   0.406 -0.0762  0.4619  0.3813
15444TIP3    H167823   3.772   0.978   0.378  0.0421  0.3208  0.9388
15444TIP3    H267824   3.715   1.118   0.377 -1.3304 -0.1402 -2.6809
15445TIP3   OH267825   2.130   3.958   1.400 -0.0510  0.1659 -0.3232
15445TIP3    H167826   2.107   3.886   1.459 -0.1589  0.9865  0.6559
15445TIP3    H267827   2.220   3.939   1.372 -0.2648 -0.6191 -0.5033
15446TIP3   OH267828   3.361   5.582  14.658  0.6182  0.5336 -0.0005
15446TIP3    H167829   3.377   5.572  14.751 -0.9442 -1.7518  0.1151
15446TIP3    H267830   3.372   5.494  14.622 -0.3288  1.0513 -1.6817
15447TIP3   OH267831   0.374   2.487   1.477 -1.0371  0.7977 -1.0034
15447TIP3    H167832   0.379   2.412   1.418 -0.1635  0.5965 -0.6823
15447TIP3    H267833   0.280   2.496   1.496 -1.0769 -0.9398 -0.1251
15448TIP3   OH267834   6.178   4.604  16.899  0.2807  0.7338  0.8600
15448TIP3    H167835   6.122   4.625  16.825  1.0131  0.3001  0.1657
15448TIP3    H267836   6.223   4.686  16.919 -0.4261  1.0246  1.2765
15449TIP3   OH267837   2.015   3.879  16.796 -0.1143  0.3913 -0.2729
15449TIP3    H167838   2.075   3.831  16.739 -1.0386  0.8695 -1.7217
15449TIP3    H267839   1.929   3.841  16.776 -0.1663 -1.8820  3.3858
15450TIP3   OH267840   3.993   5.491  11.761 -0.0703 -0.3982  0.3414
15450TIP3    H167841   4.006   5.427  11.831 -1.3419 -0.0287  0.9403
15450TIP3    H267842   4.000   5.576  11.804 -1.2060 -0.1684  0.0953
15451TIP3   OH267843   4.676   4.512  16.091 -0.2737  0.1935 -0.7387
15451TIP3    H167844   4.729   4.441  16.129  0.9256  0.0151 -2.5993
15451TIP3    H267845   4.629   4.470  16.019 -1.7172  0.7365 -0.1528
15452TIP3   OH267846   0.337   0.959  11.112  0.4405  0.6696  0.0774
15452TIP3    H167847   0.284   0.888  11.075 -1.0100  2.4517 -1.4282
15452TIP3    H267848   0.320   0.954  11.206  1.5978 -1.8893  0.2473
15453TIP3   OH267849   5.764   3.746  11.192  0.3077  0.1191 -0.0042
15453TIP3    H167850   5.695   3.752  11.126 -1.0028  2.7304  1.4488
15453TIP3    H267851   5.837   3.704  11.147 -1.2030 -0.0317 -2.4848
15454TIP3   OH267852   4.540   5.778  14.705  0.1226 -0.0625  0.5540
15454TIP3    H167853   4.550   5.859  14.756 -1.5867 -0.3837  1.4442
15454TIP3    H267854   4.449   5.753  14.717  0.2295 -1.3160 -0.9703
15455TIP3   OH267855   4.969   1.665   6.117  0.2494  0.5066 -0.4803
15455TIP3    H167856   5.026   1.654   6.193 -0.8185  0.7260  0.3756
15455TIP3    H267857   4.940   1.576   6.096  1.5593  0.2792 -1.4711
15456TIP3   OH267858   4.147   0.855  16.891 -0.1426  0.8620 -0.9871
15456TIP3    H167859   4.121   0.821  16.976 -0.3064  1.1851 -0.9065
15456TIP3    H267860   4.164   0.777  16.838 -1.0336  0.6476 -0.9712
15457TIP3   OH267861   0.494   1.828   5.517  0.1822  0.1895  0.2473
15457TIP3    H167862   0.559   1.775   5.471  0.4701 -0.6905  1.6051
15457TIP3    H267863   0.528   1.917   5.512  0.3409  0.0743 -0.9730
15458TIP3   OH267864   6.054   4.819  16.721 -0.3723 -0.1124 -0.2184
15458TIP3    H167865   5.965   4.814  16.687 -0.5342 -0.2686  0.2249
15458TIP3    H267866   6.052   4.893  16.781 -0.5220 -0.8591  0.7169
15459TIP3   OH267867   2.926   5.924   0.868 -0.0011 -0.5224  0.5523
15459TIP3    H167868   2.848   5.874   0.892  1.4692 -2.7228  1.1054
15459TIP3    H267869   2.892   6.008   0.838 -2.5507 -1.2933  0.9795
15460TIP3   OH267870   3.637   2.137   2.511  0.0410  0.0530  0.4398
15460TIP3    H167871   3.563   2.197   2.519 -0.8050 -0.9188  0.2188
15460TIP3    H267872   3.663   2.142   2.420  1.0020  1.2368  0.7630
15461TIP3   OH267873   4.404   5.067  13.304 -0.4352  0.4729 -0.2838
15461TIP3    H167874   4.499   5.058  13.317  0.0108 -0.6900 -3.4519
15461TIP3    H267875   4.391   5.162  13.295  0.5075  0.6223 -0.2279
15462TIP3   OH267876   0.978   0.964   4.666  0.2151 -0.1154 -0.1913
15462TIP3    H167877   1.005   1.019   4.592 -0.4795  0.6009  0.0722
15462TIP3    H267878   0.922   1.021   4.718 -0.5756 -1.0973  0.0561
15463TIP3   OH267879   2.006   3.720   1.825 -0.0387 -0.3890  0.0067
15463TIP3    H167880   1.928   3.720   1.881  2.1568 -0.6293  3.3904
15463TIP3    H267881   2.043   3.632   1.835  1.0630 -0.0475 -0.8817
15464TIP3   OH267882   5.682   5.841  15.771  0.4606  0.1487 -0.2932
15464TIP3    H167883   5.629   5.888  15.835  0.0383 -1.3968  0.5265
15464TIP3    H267884   5.743   5.907  15.738 -1.4336  1.7834 -0.7022
15465TIP3   OH267885   4.041   3.149   6.037 -0.0723 -0.2616 -0.0955
15465TIP3    H167886   3.981   3.100   6.093 -1.0410  0.2850 -0.6122
15465TIP3    H267887   4.010   3.240   6.043 -0.6141 -0.2719 -1.9670
15466TIP3   OH267888   3.550   1.707   5.127 -0.0745 -0.0340 -0.0787
15466TIP3    H167889   3.514   1.644   5.189 -1.4397  0.1716 -0.6097
15466TIP3    H267890   3.609   1.656   5.072 -0.4057 -0.6471  0.1200
15467TIP3   OH267891   2.382   1.083  16.750 -0.3234 -0.1153 -0.2573
15467TIP3    H167892   2.372   1.103  16.657 -3.4602 -3.2380 -0.8116
15467TIP3    H267893   2.466   1.037  16.756  1.1790  2.3507 -0.9369
15468TIP3   OH267894   2.038   5.932   3.259 -0.2143  0.3730  0.1429
15468TIP3    H167895   2.110   5.983   3.222 -0.7891  0.1110 -1.4037
15468TIP3    H267896   2.068   5.841   3.255  0.6633  0.4997  2.5616
15469TIP3   OH267897   5.157   1.586  16.586  0.7084 -0.5915 -0.3960
15469TIP3    H167898   5.118   1.520  16.642 -0.0791  0.2980  0.1314
15469TIP3    H267899   5.241   1.548  16.559  0.8901 -1.2432  0.9849
15470TIP3   OH267900   4.935   3.033  13.416 -0.0303 -0.5714 -0.4488
15470TIP3    H167901   4.862   2.974  13.434 -0.5573 -0.8817 -3.2355
15470TIP3    H267902   4.894   3.112  13.380  0.8768  0.3157  0.3711
15471TIP3   OH267903   3.824   2.976   0.138 -0.2009 -0.4569 -0.1401
15471TIP3    H167904   3.759   3.042   0.114 -1.2594 -1.7694 -0.9537
15471TIP3    H267905   3.881   2.969   0.061  0.0181 -0.3844  0.0128
15472TIP3   OH267906   1.158   2.366  13.887 -0.7514  0.0623  0.2799
15472TIP3    H167907   1.132   2.417  13.964  3.0104  1.0811  1.0575
15472TIP3    H267908   1.193   2.284  13.923  1.2210  0.6271 -0.2651
15473TIP3   OH267909   2.722   4.274   0.593 -0.0086 -0.7260 -0.0742
15473TIP3    H167910   2.645   4.329   0.609  0.8643  0.7568 -0.7181
15473TIP3    H267911   2.700   4.225   0.513 -0.8128 -1.3563  0.5253
15474TIP3   OH267912   5.807   1.623  15.531  0.2406 -0.2016  0.1908
15474TIP3    H167913   5.825   1.609  15.439 -0.8353  3.0475 -0.6588
15474TIP3    H267914   5.713   1.603  15.540  0.7798 -2.5959  1.1510
15475TIP3   OH267915   1.876   6.755   6.543 -0.7449  0.5160  0.0619
15475TIP3    H167916   1.888   6.671   6.498 -0.4906  1.0352 -0.8632
15475TIP3    H267917   1.861   6.818   6.473  1.4926  1.6914  0.5284
15476TIP3   OH267918   6.126   4.948   0.679 -0.7489  0.5678 -0.5387
15476TIP3    H167919   6.078   4.903   0.747  0.7549 -0.1534  0.1005
15476TIP3    H267920   6.108   4.899   0.599  0.9286 -1.3169  0.1541
15477TIP3   OH267921   3.179   6.015   3.965  0.3652  0.6071 -0.2001
15477TIP3    H167922   3.162   6.105   3.993  0.4659  0.4210  0.4704
15477TIP3    H267923   3.222   5.974   4.040  1.5046  0.3596 -0.9521
15478TIP3   OH267924   2.427   0.601   5.243 -0.0929 -0.3445 -0.2870
15478TIP3    H167925   2.359   0.568   5.301  0.9666  0.4115  1.4679
15478TIP3    H267926   2.414   0.553   5.161 -2.4741 -0.4713  0.0889
15479TIP3   OH267927   6.355   0.645  11.666  0.3339  0.1620 -0.5236
15479TIP3    H167928   6.286   0.671  11.726  0.4398  0.9450 -0.7389
15479TIP3    H267929   6.314   0.581  11.608 -0.2930  0.8457 -0.8446
15480TIP3   OH267930   1.493   3.701   5.882 -0.1811  0.4978 -0.2178
15480TIP3    H167931   1.573   3.650   5.873  0.4160  1.6832 -2.5467
15480TIP3    H267932   1.423   3.642   5.854 -0.2543 -0.6518  2.1465
15481TIP3   OH267933   2.221   5.271   2.788 -0.0082  0.3286 -0.0511
15481TIP3    H167934   2.161   5.197   2.796 -0.2135  0.3526 -1.1854
15481TIP3    H267935   2.179   5.330   2.726  0.7671  0.7718 -0.1736
15482TIP3   OH267936   0.137   2.356   1.119  0.1474  0.1973  0.4729
15482TIP3    H167937   0.200   2.381   1.051 -0.5767 -2.1794 -1.2103
15482TIP3    H267938   0.190   2.350   1.198  1.0552  2.9101  0.1769
15483TIP3   OH267939   2.820   0.538  14.785  0.1665  0.1390 -0.1337
15483TIP3    H167940   2.824   0.600  14.712 -1.8864  1.0112  0.4285
15483TIP3    H267941   2.864   0.583  14.857  0.5070  0.0691 -0.2959
15484TIP3   OH267942   1.921   3.356   5.247 -0.3154 -0.5332  0.0969
15484TIP3    H167943   2.005   3.309   5.253 -0.7517 -1.1818  1.7883
15484TIP3    H267944   1.855   3.287   5.248 -0.9029 -0.1009 -2.5655
15485TIP3   OH267945   1.336   1.471  14.579 -0.4922  0.0709  0.2235
15485TIP3    H167946   1.344   1.426  14.664 -0.9413  2.0468  1.3666
15485TIP3    H267947   1.282   1.547  14.598 -1.7351 -0.1489 -2.1642
15486TIP3   OH267948   1.629   5.108  11.518  0.0647  0.0356  0.8400
15486TIP3    H167949   1.564   5.073  11.457  1.2379  0.7436 -0.9096
15486TIP3    H267950   1.614   5.061  11.600 -0.6593 -2.0066 -0.3900
15487TIP3   OH267951   1.245   4.936   2.491  0.3139  0.0625 -0.0838
15487TIP3    H167952   1.289   4.863   2.448  2.3955  1.1362  0.0585
15487TIP3    H267953   1.315   5.000   2.506 -0.8130  0.8164  2.5483
15488TIP3   OH267954   4.849   2.254   2.339 -0.5384 -0.2538  0.2067
15488TIP3    H167955   4.857   2.314   2.413  1.9516  0.9896 -0.9530
15488TIP3    H267956   4.921   2.192   2.351  0.9501  0.9439 -1.9304
15489TIP3   OH267957   2.280   1.991   4.054  0.4693  0.5258 -0.0251
15489TIP3    H167958   2.314   2.070   4.095 -0.5197  0.0176  1.8676
15489TIP3    H267959   2.325   1.919   4.098  0.9331 -0.0126 -1.3182
15490TIP3   OH267960   4.377   2.826   5.405  0.2502 -0.3645 -0.0565
15490TIP3    H167961   4.287   2.797   5.419  0.0307  0.3855  0.1443
15490TIP3    H267962   4.417   2.821   5.492 -0.1301  1.0241  0.2291
15491TIP3   OH267963   0.059   1.863   5.144  0.2051 -0.3944 -0.6861
15491TIP3    H167964   0.139   1.912   5.122  0.3218 -0.6329 -0.7984
15491TIP3    H267965   0.075   1.829   5.231 -0.5746  1.2130  0.1341
15492TIP3   OH267966   6.080   0.288  13.024 -0.3089  0.7562  0.4828
15492TIP3    H167967   6.165   0.266  12.985 -0.1344 -0.2605  1.3989
15492TIP3    H267968   6.034   0.334  12.954  0.0555 -0.8748 -0.9149
15493TIP3   OH267969   1.999   6.673  10.572 -0.2735 -0.0219 -0.1389
15493TIP3    H167970   1.913   6.713  10.559 -1.0554 -2.1789 -2.6717
15493TIP3    H267971   2.036   6.667  10.483  1.4122 -1.3413  0.5935
15494TIP3   OH267972   4.552   4.739  12.233  0.7594  0.3131 -0.4019
15494TIP3    H167973   4.607   4.766  12.307  0.6406 -0.1965 -0.1245
15494TIP3    H267974   4.501   4.817  12.211 -1.5177 -0.3413  2.0734
15495TIP3   OH267975   2.007   5.697  13.555  0.1092  0.1808 -0.0463
15495TIP3    H167976   2.094   5.658  13.560  0.4656  1.0449  0.8941
15495TIP3    H267977   1.947   5.623  13.570  0.7305 -0.1951  0.6966
15496TIP3   OH267978   1.252   0.988  15.319 -0.0043 -0.9090 -0.4924
15496TIP3    H167979   1.347   1.001  15.316 -0.3278  2.3957  0.1019
15496TIP3    H267980   1.240   0.913  15.378  2.2119 -1.3315 -0.4957
15497TIP3   OH267981   5.593   5.749  13.831 -0.0590 -0.7240  0.0643
15497TIP3    H167982   5.588   5.835  13.789 -0.2681 -0.0206  1.4746
15497TIP3    H267983   5.640   5.695  13.767  0.5329  0.5579 -0.6434
15498TIP3   OH267984   0.691   0.052   1.358  0.2890 -0.0834 -0.0707
15498TIP3    H167985   0.697   0.067   1.264 -1.7602 -2.6890 -0.7246
15498TIP3    H267986   0.761  -0.009   1.378  2.7259  2.7309  0.8428
15499TIP3   OH267987   3.063   2.038   4.521  0.2459  0.0169 -0.0871
15499TIP3    H167988   2.999   2.110   4.519  1.2856  1.0434  1.4930
15499TIP3    H267989   3.143   2.078   4.555  1.2658 -1.6108 -0.4638
15500TIP3   OH267990   3.509   2.072  15.179  0.0709  0.3475  0.5294
15500TIP3    H167991   3.537   2.155  15.142  0.8644  0.1129  0.5910
15500TIP3    H267992   3.468   2.026  15.106  0.9100  0.2125  0.1384
15501TIP3   OH267993   6.011   4.684  14.767 -0.3569 -0.7141  0.3668
15501TIP3    H167994   6.052   4.666  14.852  0.7235 -1.4521 -0.2894
15501TIP3    H267995   5.999   4.779  14.767 -0.2444 -0.6837  1.2894
15502TIP3   OH267996   1.201   1.861  16.531  0.1693 -0.0433 -0.0976
15502TIP3    H167997   1.131   1.925  16.546  0.4820  0.8828 -2.2026
15502TIP3    H267998   1.156   1.777  16.528 -1.2647  0.6767 -3.2451
15503TIP3   OH267999   1.938   4.200   0.469  0.1348 -0.0206  0.4727
15503TIP3    H168000   1.918   4.293   0.480 -1.3125 -0.1765 -0.5243
15503TIP3    H268001   1.900   4.157   0.546  1.7910  0.3009  1.5127
15504TIP3   OH268002   6.121   3.986  13.299  0.1645 -0.9053  0.2718
15504TIP3    H168003   6.041   4.027  13.332  1.0004 -1.7985  3.8050
15504TIP3    H268004   6.091   3.928  13.229 -2.0640 -0.1428  0.5122
15505TIP3   OH268005   1.838   3.629   1.580  0.3572  0.2475 -0.2272
15505TIP3    H168006   1.769   3.694   1.564  0.0687 -0.3178 -1.4469
15505TIP3    H268007   1.882   3.660   1.659  0.1794  1.8807 -0.7155
15506TIP3   OH268008   0.639   5.645   5.429  0.3796 -0.2138  0.3978
15506TIP3    H168009   0.637   5.562   5.382 -1.1395 -0.6760  1.2172
15506TIP3    H268010   0.549   5.676   5.429  0.8599  1.2914  0.4038
15507TIP3   OH268011   2.856   5.375  13.120  0.2412  0.1935  0.4964
15507TIP3    H168012   2.862   5.470  13.105  0.7893  0.3736  1.7271
15507TIP3    H268013   2.947   5.348  13.135  0.2463 -0.7712 -1.1170
15508TIP3   OH268014   1.403   0.292   3.762 -0.9579 -0.3871 -0.3922
15508TIP3    H168015   1.414   0.205   3.723 -0.8505 -0.8610  0.6440
15508TIP3    H268016   1.387   0.274   3.855 -1.1068  0.6993 -0.1961
15509TIP3   OH268017   0.892   6.049   4.955  0.3044 -0.4919  0.6719
15509TIP3    H168018   0.917   5.957   4.960  0.2741 -0.6228 -1.0915
15509TIP3    H268019   0.804   6.052   4.993 -0.1547 -1.4135 -0.2533
15510TIP3   OH268020   3.149   2.129  12.471  0.2794 -0.6483 -0.3426
15510TIP3    H168021   3.120   2.220  12.477  0.5050 -0.6242  0.4549
15510TIP3    H268022   3.074   2.078  12.500  1.1318 -0.5625  2.2716
15511TIP3   OH268023   1.226   3.352   0.322 -0.0683  0.7051  0.6113
15511TIP3    H168024   1.161   3.416   0.351 -1.1470  0.2303 -0.6214
15511TIP3    H268025   1.242   3.374   0.230 -0.6627 -0.9063  0.0703
15512TIP3   OH268026   1.423   5.708   5.447 -0.0371  0.2924 -0.7999
15512TIP3    H168027   1.451   5.776   5.385 -1.2941  2.6429  1.0237
15512TIP3    H268028   1.495   5.645   5.447  2.6623  3.0946 -0.5249
15513TIP3   OH268029   0.842   4.887  14.428 -0.0376  0.2192 -0.5324
15513TIP3    H168030   0.808   4.936  14.354  0.0885  0.2462 -0.5718
15513TIP3    H268031   0.836   4.795  14.401 -1.2986  0.1334 -0.0426
15514TIP3   OH268032   1.963   1.732  10.933  0.1368 -0.5979  0.4456
15514TIP3    H168033   2.030   1.795  10.908  1.1155 -1.9567 -0.5090
15514TIP3    H268034   1.897   1.784  10.979  1.5629  0.8774  0.9336
15515TIP3   OH268035   3.605   2.272  16.826 -0.2035 -0.5821  0.4586
15515TIP3    H168036   3.627   2.343  16.886 -1.8485 -0.0507  0.4837
15515TIP3    H268037   3.688   2.226  16.812  1.5045  2.6487 -1.3372
15516TIP3   OH268038   0.554   1.383  12.310 -0.2834 -0.2853 -0.1889
15516TIP3    H168039   0.489   1.342  12.252 -1.0310 -0.1116  0.5019
15516TIP3    H268040   0.501   1.427  12.376  0.5543 -1.6877  1.4817
15517TIP3   OH268041   6.370   4.269   0.675 -0.0032 -0.2632 -0.2402
15517TIP3    H168042   6.300   4.316   0.720 -3.0280 -2.9638 -1.6800
15517TIP3    H268043   6.414   4.219   0.743 -0.0944  0.7398  0.5742
15518TIP3   OH268044   2.909   5.045   2.513  0.1133  0.2148  0.1107
15518TIP3    H168045   2.946   5.028   2.599  0.5389 -2.3660 -0.5044
15518TIP3    H268046   2.956   5.122   2.481  2.4394 -0.8452  0.7889
15519TIP3   OH268047   0.771   4.135  11.076  0.3886  0.0006 -0.2029
15519TIP3    H168048   0.754   4.226  11.050  0.6816 -0.2259 -1.2355
15519TIP3    H268049   0.727   4.082  11.010 -0.7289 -0.6383  1.0079
15520TIP3   OH268050   6.324   3.040  11.337  0.3701 -0.2433  0.1412
15520TIP3    H168051   6.329   3.083  11.422  1.0471  0.4296 -0.2342
15520TIP3    H268052   6.263   2.967  11.351 -2.9954  2.3248  0.1532
15521TIP3   OH268053   3.706   3.990  16.203 -0.2836 -0.4880  0.0925
15521TIP3    H168054   3.660   3.998  16.287  0.3827  1.7568  0.3056
15521TIP3    H268055   3.768   3.918  16.218 -1.8406 -1.7847  0.6623
15522TIP3   OH268056   6.804   1.513  14.330 -0.2991  0.1349 -0.6010
15522TIP3    H168057   6.793   1.601  14.367  0.6848 -0.1330  0.4068
15522TIP3    H268058   6.803   1.527  14.236 -1.6892  1.0125 -0.4796
15523TIP3   OH268059   5.458   0.778  16.374  0.3065  0.3173 -0.3465
15523TIP3    H168060   5.495   0.707  16.322  0.1543 -1.2500  1.5621
15523TIP3    H268061   5.475   0.752  16.465 -0.3556  2.4132  0.4266
15524TIP3   OH268062   4.180   2.858  12.134 -0.2922 -0.5580 -0.0859
15524TIP3    H168063   4.140   2.855  12.048  0.1669  1.9098 -0.4621
15524TIP3    H268064   4.122   2.807  12.190 -1.1322 -1.3566 -1.6215
15525TIP3   OH268065   5.344   2.234   3.589 -0.3469 -0.0775 -0.1003
15525TIP3    H168066   5.324   2.326   3.602  0.9477  0.1888  0.0940
15525TIP3    H268067   5.259   2.193   3.572 -0.9205  1.1528 -0.2629
15526TIP3   OH268068   6.206   0.117   0.983 -0.0749  0.3286  0.3995
15526TIP3    H168069   6.114   0.142   0.992 -0.5259 -1.3787  0.8204
15526TIP3    H268070   6.241   0.119   1.072  0.6153  1.9794  0.1352
15527TIP3   OH268071   0.024   6.362  16.505  0.6651 -0.2255  0.0058
15527TIP3    H168072  -0.060   6.322  16.527  1.3542 -1.8279 -0.1385
15527TIP3    H268073   0.035   6.432  16.568 -0.2998 -0.6768  0.6953
15528TIP3   OH268074   1.753   3.446  11.866 -0.2070 -0.3408  0.2881
15528TIP3    H168075   1.784   3.533  11.893 -1.0404 -0.1097  0.5333
15528TIP3    H268076   1.830   3.390  11.871  0.3413  0.3920  0.1108
15529TIP3   OH268077   2.137   3.252   5.801  0.7505 -0.3115 -0.4445
15529TIP3    H168078   2.165   3.337   5.768  1.9882 -0.2050  0.7932
15529TIP3    H268079   2.101   3.270   5.888 -2.5477 -0.5719 -1.6051
15530TIP3   OH268080   0.023   6.359   4.130  0.1900  0.0920  0.0463
15530TIP3    H168081   0.077   6.297   4.082 -0.1235 -0.4538  0.3933
15530TIP3    H268082  -0.067   6.334   4.108  0.0635  0.5566  0.0201
15531TIP3   OH268083   1.092   5.978   0.026  0.1913  0.1501 -0.1575
15531TIP3    H168084   1.064   5.958   0.115 -1.9439 -0.4537 -0.8998
15531TIP3    H268085   1.053   6.064   0.007  1.6962  0.8829 -0.1168
15532TIP3   OH268086   3.761   4.975   4.291 -0.7415 -0.0472  0.0590
15532TIP3    H168087   3.798   5.063   4.285  1.0641 -0.8178 -1.0176
15532TIP3    H268088   3.764   4.954   4.384  2.6471 -0.4206  0.0117
15533TIP3   OH268089   5.841   6.383   6.000 -0.0990  0.1805  0.5900
15533TIP3    H168090   5.860   6.301   6.044  0.3890  0.1952  0.4163
15533TIP3    H268091   5.782   6.359   5.929  0.5050 -0.1254  0.1732
15534TIP3   OH268092   4.095   1.700  10.830  0.0138  0.3266  0.0282
15534TIP3    H168093   4.095   1.666  10.741 -2.6566 -3.2867  1.1502
15534TIP3    H268094   4.024   1.765  10.832 -0.7869 -0.5216 -0.2445
15535TIP3   OH268095   4.141   4.681  16.191  0.0129  0.2793  0.2003
15535TIP3    H168096   4.137   4.654  16.282  0.1772  0.3441  0.2278
15535TIP3    H268097   4.097   4.611  16.143  0.4787 -0.0608  0.2620
15536TIP3   OH268098   4.053   0.361  16.817 -0.0557 -0.1011 -0.2794
15536TIP3    H168099   4.130   0.400  16.857 -0.2223  0.4202 -0.4614
15536TIP3    H268100   4.088   0.306  16.746  0.4078 -2.6626  1.7731
15537TIP3   OH268101   2.467   5.369   5.963 -0.0437 -0.2981 -0.2082
15537TIP3    H168102   2.511   5.453   5.969 -0.9341  0.2883 -1.3269
15537TIP3    H268103   2.451   5.342   6.053 -0.8159  1.3272  0.1726
15538TIP3   OH268104   0.670   2.743   4.448 -0.4247 -0.0153 -0.2292
15538TIP3    H168105   0.643   2.673   4.508  0.3987  1.0106  1.4133
15538TIP3    H268106   0.686   2.699   4.365 -1.4243 -1.5244  0.3386
15539TIP3   OH268107   6.639   3.340  15.660  0.1198  0.0022 -0.4044
15539TIP3    H168108   6.648   3.323  15.754  1.0427 -0.3241 -0.5414
15539TIP3    H268109   6.575   3.276  15.630  0.3943 -0.4050 -0.1312
15540TIP3   OH268110   5.609   2.843  10.489  0.0465 -0.1216  0.0689
15540TIP3    H168111   5.626   2.825  10.581 -0.3118 -0.2529  0.1117
15540TIP3    H268112   5.536   2.786  10.466 -2.3394  2.4685  0.6797
15541TIP3   OH268113   2.720   6.676  12.278  0.0609 -0.5836 -0.0737
15541TIP3    H168114   2.731   6.747  12.215 -1.6685  1.8628  2.1660
15541TIP3    H268115   2.808   6.640  12.290  0.7801  0.3371 -2.1864
15542TIP3   OH268116   4.759   6.370  15.386  0.7364  0.2360 -0.7706
15542TIP3    H168117   4.817   6.388  15.312  0.9913  0.1900 -0.5849
15542TIP3    H268118   4.695   6.307  15.352  0.2803  0.9254 -1.2162
15543TIP3   OH268119   1.461   0.182  12.413  0.0558 -0.1229  0.0451
15543TIP3    H168120   1.433   0.101  12.370  0.0689  0.0486 -0.2924
15543TIP3    H268121   1.473   0.244  12.341  0.8736 -0.0647  0.2225
15544TIP3   OH268122   5.274   1.381  14.327  0.0934 -0.3900  0.1388
15544TIP3    H168123   5.357   1.374  14.376  0.5069 -1.6064 -0.6979
15544TIP3    H268124   5.302   1.397  14.237 -0.6245  0.1185  0.0035
15545TIP3   OH268125   3.683   4.528  11.462  0.3614 -0.1449  0.3342
15545TIP3    H168126   3.766   4.513  11.506  0.0257 -0.6458  0.8088
15545TIP3    H268127   3.617   4.495  11.523 -0.2733  1.2433  0.4549
15546TIP3   OH268128   4.491   3.655   0.796  0.0676 -0.8165  0.1153
15546TIP3    H168129   4.431   3.656   0.722  0.3663  0.1833 -0.1365
15546TIP3    H268130   4.514   3.747   0.810  0.3040 -1.0222  1.2211
15547TIP3   OH268131   0.343   3.331   3.514 -0.1043 -0.0261  0.0605
15547TIP3    H168132   0.394   3.322   3.433  1.0094 -0.0629  0.7551
15547TIP3    H268133   0.324   3.241   3.540 -1.2657 -0.0079 -0.6284
15548TIP3   OH268134   3.872   2.168   3.805 -0.3456  0.0898  0.0389
15548TIP3    H168135   3.823   2.219   3.741 -0.0415  0.6341  0.2298
15548TIP3    H268136   3.964   2.183   3.783 -0.1692  1.5732  1.5290
15549TIP3   OH268137   6.397   3.144   1.985 -0.0117  0.2377  0.1561
15549TIP3    H168138   6.467   3.082   1.965  0.0041  0.4349 -0.4040
15549TIP3    H268139   6.441   3.216   2.031  0.2034  0.4955 -0.4482
15550TIP3   OH268140   1.194   5.980   3.586 -0.7448  0.7806  0.1503
15550TIP3    H168141   1.178   5.887   3.571 -0.5312  0.5058  1.5271
15550TIP3    H268142   1.164   6.023   3.505 -0.0007 -0.5510 -0.8749
15551TIP3   OH268143   6.324   3.766  15.132  0.3369 -0.1828  0.5456
15551TIP3    H168144   6.280   3.822  15.196  0.3244  0.7806 -0.2796
15551TIP3    H268145   6.407   3.742  15.174 -0.2452 -0.6689  1.4500
15552TIP3   OH268146   3.373   3.319   1.646 -0.3747 -0.0688 -0.4720
15552TIP3    H168147   3.284   3.342   1.618 -0.3309  0.7242 -0.0083
15552TIP3    H268148   3.401   3.395   1.698  0.1330 -0.8012  0.3501
15553TIP3   OH268149   3.274   0.753  14.137 -0.1748 -0.1072  0.5297
15553TIP3    H168150   3.366   0.740  14.113 -0.6226  0.6882 -1.9346
15553TIP3    H268151   3.272   0.840  14.176 -0.0297  0.4134 -0.5774
15554TIP3   OH268152   6.275   3.246   5.482 -0.5832  0.8247  0.0654
15554TIP3    H168153   6.364   3.281   5.490 -0.1179 -0.3763  0.4062
15554TIP3    H268154   6.281   3.157   5.517 -1.8633  0.6239 -0.1687
15555TIP3   OH268155   3.378   4.154   3.030 -0.0191  0.7851 -0.4719
15555TIP3    H168156   3.466   4.141   3.068 -1.3377 -0.2640  2.5348
15555TIP3    H268157   3.361   4.247   3.041  0.8281  1.0709 -1.4209
15556TIP3   OH268158   4.210   0.916   4.780 -0.0305 -0.2174 -0.0112
15556TIP3    H168159   4.216   0.965   4.698 -1.3563  1.6092  0.8915
15556TIP3    H268160   4.281   0.952   4.834 -0.0641 -0.3833  0.1443
15557TIP3   OH268161   1.749   2.821   6.653 -0.0212  0.1993  0.4943
15557TIP3    H168162   1.842   2.807   6.637 -0.3017  0.9421 -2.3558
15557TIP3    H268163   1.746   2.877   6.731  1.8850 -0.0702  0.8082
15558TIP3   OH268164   4.361   5.051  15.036  0.0589  0.3738  1.2280
15558TIP3    H168165   4.447   5.012  15.021 -0.0399  0.3462  0.7009
15558TIP3    H268166   4.338   5.091  14.952 -0.7355 -0.2088  1.1539
15559TIP3   OH268167   2.622   5.984  12.442 -0.3953  0.2140  0.0733
15559TIP3    H168168   2.582   5.993  12.529  1.7336 -2.1682  1.4269
15559TIP3    H268169   2.559   5.932  12.392 -2.0491  2.3461 -0.2110
15560TIP3   OH268170   5.877   4.799  11.800  0.2349  0.5499 -0.6529
15560TIP3    H168171   5.973   4.791  11.796  0.3530 -0.0974  1.8731
15560TIP3    H268172   5.862   4.884  11.842 -0.2644  0.0020  0.2824
15561TIP3   OH268173   2.060   2.924  10.927 -0.3226  0.0730 -0.2063
15561TIP3    H168174   2.105   2.981  10.865  0.6258 -0.3004  0.1173
15561TIP3    H268175   2.057   2.839  10.883 -0.4460  0.0249 -0.1038
15562TIP3   OH268176   0.384   3.528  11.569 -0.6874 -0.8076  0.2619
15562TIP3    H168177   0.305   3.577  11.549  0.7656  0.9669 -1.5694
15562TIP3    H268178   0.365   3.438  11.540 -1.6724 -0.1765 -1.1542
15563TIP3   OH268179   2.656   1.720   2.617 -0.1489 -0.1485  0.7002
15563TIP3    H168180   2.746   1.725   2.650  0.0942  0.0108  0.0209
15563TIP3    H268181   2.606   1.682   2.690  0.8671 -2.4095  0.2782
15564TIP3   OH268182   3.320   4.312  11.850  0.5749 -0.4089 -0.2176
15564TIP3    H168183   3.300   4.375  11.781  1.2170 -0.1891 -0.2128
15564TIP3    H268184   3.307   4.361  11.931 -0.7466 -0.8348 -0.1495
15565TIP3   OH268185   3.910   2.016  11.365 -0.1636  0.0332  0.3797
15565TIP3    H168186   3.897   2.011  11.270 -0.4571  0.6529  0.3793
15565TIP3    H268187   3.939   1.929  11.390 -1.0575 -0.4296 -0.1428
15566TIP3   OH268188   4.850   4.204  11.386  0.4263 -0.2554 -0.4288
15566TIP3    H168189   4.917   4.200  11.318 -1.2732 -2.5475 -2.1085
15566TIP3    H268190   4.848   4.296  11.412  2.4058  0.3479 -2.1226
15567TIP3   OH268191   6.086   5.433   6.064  0.2622 -0.1578 -0.7685
15567TIP3    H168192   5.997   5.425   6.031 -0.1016  0.2546  0.0647
15567TIP3    H268193   6.138   5.373   6.011 -0.7971 -1.6255 -0.2198
15568TIP3   OH268194   0.470   6.412   4.440  0.2756 -0.0969  0.5141
15568TIP3    H168195   0.533   6.339   4.435  0.1489 -0.1573 -0.2238
15568TIP3    H268196   0.446   6.430   4.349 -0.5209  0.1530  0.7671
15569TIP3   OH268197   1.906   5.879  17.105  0.5513  0.0459  0.1272
15569TIP3    H168198   1.992   5.913  17.083 -0.1989  2.0073  0.0601
15569TIP3    H268199   1.876   5.934  17.178 -1.1574  0.2713 -0.6981
15570TIP3   OH268200   5.215   2.349  16.496 -0.9115  0.2570  0.2195
15570TIP3    H168201   5.159   2.272  16.511 -2.6096  1.3648 -0.0768
15570TIP3    H268202   5.231   2.384  16.583  0.5365 -0.8334  0.4295
15571TIP3   OH268203   4.274   3.428  15.078  0.6321  0.3840  0.6224
15571TIP3    H168204   4.228   3.377  15.145 -1.6403  1.6947  0.1576
15571TIP3    H268205   4.367   3.420  15.102  0.1688 -1.7646  2.0539
15572TIP3   OH268206   5.022   2.735   2.721 -0.1874 -0.2131 -0.3467
15572TIP3    H168207   5.097   2.679   2.702 -1.5239 -1.4967 -2.1269
15572TIP3    H268208   5.019   2.738   2.817  0.6044 -2.2780 -0.2044
15573TIP3   OH268209   6.282   3.783  16.815 -0.2054 -0.8019 -0.1592
15573TIP3    H168210   6.311   3.693  16.799  2.2769 -0.3874  1.3698
15573TIP3    H268211   6.354   3.822  16.865 -2.2077  1.3630  1.2116
15574TIP3   OH268212   2.155   4.048  14.942 -0.3023 -0.0886  0.2747
15574TIP3    H168213   2.110   4.120  14.987 -1.1779 -0.3860 -0.1095
15574TIP3    H268214   2.102   4.032  14.864  1.3264  0.6098 -1.0522
15575TIP3   OH268215   5.070   3.945  13.264  0.2704  0.6968 -0.0197
15575TIP3    H168216   5.127   4.022  13.253  0.2812  0.6993  0.0541
15575TIP3    H268217   5.000   3.959  13.201  0.1763  0.8577  0.1193
15576TIP3   OH268218   3.781   0.147  16.969 -0.5101  0.6099  0.1585
15576TIP3    H168219   3.738   0.139  17.054  0.2959  0.9086  0.6023
15576TIP3    H268220   3.709   0.140  16.905 -1.1611  0.7119  0.8646
15577TIP3   OH268221   1.048   4.204   3.093 -0.3998  0.2659  0.1914
15577TIP3    H168222   1.052   4.226   3.186 -1.4392 -0.5238  0.4337
15577TIP3    H268223   0.969   4.152   3.083 -0.2836  0.2934 -1.1374
15578TIP3   OH268224   3.646   4.027   2.826  0.1844 -0.1045  0.0062
15578TIP3    H168225   3.650   3.999   2.917 -0.7163 -1.2676 -0.2919
15578TIP3    H268226   3.685   3.955   2.777 -0.7950 -0.1941 -0.6586
15579TIP3   OH268227   1.019   3.649  15.713  0.3501 -0.3845 -0.4914
15579TIP3    H168228   0.947   3.705  15.686 -0.8749 -1.4873  0.3331
15579TIP3    H268229   1.085   3.660  15.646 -0.4394  0.9460 -1.0759
15580TIP3   OH268230   6.777   3.115   0.518  0.2693 -0.0890  0.2898
15580TIP3    H168231   6.699   3.066   0.545  0.2951  0.0402  0.6046
15580TIP3    H268232   6.825   3.130   0.600 -0.6257  2.0520  0.4915
15581TIP3   OH268233   5.835   3.608   1.277 -0.0675 -0.4105 -0.0615
15581TIP3    H168234   5.751   3.587   1.237  0.7515 -1.5069 -1.2841
15581TIP3    H268235   5.838   3.558   1.358 -0.3496 -0.8353 -0.3138
15582TIP3   OH268236   6.595   2.851   4.658 -0.2812 -0.1900 -0.0960
15582TIP3    H168237   6.631   2.874   4.573  0.1604  1.5027  0.5211
15582TIP3    H268238   6.534   2.779   4.640 -0.2740  0.2173 -1.8480
15583TIP3   OH268239   0.309   5.341   5.824  0.1118 -0.7139 -0.5340
15583TIP3    H168240   0.314   5.400   5.749 -0.9070  0.2534  0.1211
15583TIP3    H268241   0.303   5.254   5.786 -0.6416 -0.2210 -1.5880
15584TIP3   OH268242   1.833   2.647   3.935  0.2550  0.0562  0.0349
15584TIP3    H168243   1.923   2.645   3.902  0.5994  2.7553  0.5519
15584TIP3    H268244   1.812   2.740   3.941 -2.6494 -0.4828 -0.1838
15585TIP3   OH268245   1.507   2.942  15.179 -0.3951 -0.0564 -0.2489
15585TIP3    H168246   1.454   2.916  15.104 -0.1733 -0.4422 -0.2751
15585TIP3    H268247   1.506   2.865  15.236 -0.2265  0.0913 -0.0470
15586TIP3   OH268248   4.157   0.036   4.822 -0.3229  0.2048  0.0475
15586TIP3    H168249   4.089  -0.022   4.789 -0.1636 -0.0217  0.1183
15586TIP3    H268250   4.215   0.051   4.748  0.2692 -0.6398  0.3257
15587TIP3   OH268251   4.733   0.883   3.746  0.1559 -0.3827 -0.4349
15587TIP3    H168252   4.640   0.894   3.725  0.3374  0.6407 -0.7683
15587TIP3    H268253   4.735   0.815   3.812 -0.9333  0.3362  0.3704
15588TIP3   OH268254   1.910   6.625   0.980  0.3502  0.2687  0.3527
15588TIP3    H168255   1.840   6.560   0.968 -0.3840  1.0530  0.2634
15588TIP3    H268256   1.944   6.607   1.068 -1.4296  1.2027  1.3024
15589TIP3   OH268257   6.808   4.126  16.069 -0.6737  0.1036 -0.1147
15589TIP3    H168258   6.874   4.151  16.133 -0.6672  0.6030 -0.3150
15589TIP3    H268259   6.852   4.061  16.013 -0.2957  0.5578 -0.3510
15590TIP3   OH268260   2.766   3.923  11.135  0.3601 -0.8759 -0.1746
15590TIP3    H168261   2.715   3.959  11.062  0.8177 -1.5010 -0.8271
15590TIP3    H268262   2.743   3.977  11.210  0.0630 -0.0475 -0.8424
15591TIP3   OH268263   6.355   3.926   0.113  0.8869 -0.5280  0.9216
15591TIP3    H168264   6.308   3.894   0.035  0.3471  1.6465  0.2861
15591TIP3    H268265   6.447   3.906   0.095  1.2265  2.5926 -1.8348
15592TIP3   OH268266   6.026   1.264  14.511  0.3573  0.1012 -0.1500
15592TIP3    H168267   5.933   1.278  14.494 -0.0055 -1.9137 -0.1029
15592TIP3    H268268   6.051   1.192  14.454  1.3690 -0.7414  1.2715
15593TIP3   OH268269   1.543   0.174   5.326  0.4665  0.5379 -0.0913
15593TIP3    H168270   1.522   0.267   5.316 -0.5945  0.0292 -3.8153
15593TIP3    H268271   1.460   0.134   5.349  0.5312  0.2871 -0.2986
15594TIP3   OH268272   5.617   4.617   6.308 -0.3689  0.1120  0.4422
15594TIP3    H168273   5.569   4.698   6.294 -0.2142  0.2195  0.5406
15594TIP3    H268274   5.635   4.616   6.402  1.0647  0.7624  0.1931
15595TIP3   OH268275   1.590   1.639  11.133  0.4016 -0.4616  0.4780
15595TIP3    H168276   1.520   1.631  11.068  0.5073 -1.2939  0.4481
15595TIP3    H268277   1.599   1.551  11.169  0.9642 -0.2082  0.9727
15596TIP3   OH268278   1.913   1.483   3.599 -0.0863  0.0493  0.5879
15596TIP3    H168279   1.932   1.575   3.619  0.7604 -0.1867  0.9266
15596TIP3    H268280   1.937   1.436   3.679 -1.9569 -0.3247  0.9841
15597TIP3   OH268281   0.847   0.773  15.253  0.2603  0.0745  0.5413
15597TIP3    H168282   0.893   0.856  15.243  2.1821 -0.8030  1.6073
15597TIP3    H268283   0.804   0.780  15.338  1.5167 -0.4672  1.2545
15598TIP3   OH268284   0.083   0.027   1.060 -0.0127 -0.1382  0.1403
15598TIP3    H168285   0.119  -0.033   1.124 -0.1941  1.1059  1.4664
15598TIP3    H268286  -0.009   0.003   1.053  0.4871 -1.8209 -1.5162
15599TIP3   OH268287   2.053   0.659   1.925 -0.7718  0.2711  0.5920
15599TIP3    H168288   2.068   0.593   1.993  0.7368 -1.8549 -1.6193
15599TIP3    H268289   2.140   0.689   1.901 -1.1199 -0.2198 -1.4284
15600TIP3   OH268290   4.766   5.320  16.873  0.0506  0.4242 -0.6859
15600TIP3    H168291   4.761   5.374  16.794 -0.6690  1.3859 -0.0114
15600TIP3    H268292   4.704   5.360  16.934  0.5797 -0.2964  0.3727
15601TIP3   OH268293   3.811   4.774  12.407 -0.2484 -0.4173  0.1928
15601TIP3    H168294   3.791   4.823  12.327  0.5550 -0.7890 -0.2562
15601TIP3    H268295   3.741   4.709  12.414 -0.4241 -0.2628 -0.1046
15602TIP3   OH268296   3.379   0.416   3.719  0.1579 -0.5970 -0.0792
15602TIP3    H168297   3.319   0.491   3.718  1.0156  0.1081 -0.2674
15602TIP3    H268298   3.357   0.366   3.640 -0.6981 -0.7845  0.2658
15603TIP3   OH268299   4.991   2.596   3.194  0.3628  0.2510 -0.0216
15603TIP3    H168300   5.083   2.572   3.209  0.5268  0.6656 -0.3608
15603TIP3    H268301   4.993   2.689   3.172 -0.0083  0.0082 -1.1950
15604TIP3   OH268302   3.013   4.600   5.474  0.0823  0.0727 -0.0656
15604TIP3    H168303   2.976   4.649   5.401 -1.0745 -0.7016 -0.0135
15604TIP3    H268304   3.036   4.667   5.538 -0.9814  0.6000 -0.2140
15605TIP3   OH268305   2.374   3.111   4.640  0.2386  0.3686  0.2769
15605TIP3    H168306   2.430   3.166   4.695  0.4753  0.1606  0.2503
15605TIP3    H268307   2.286   3.146   4.651  0.1979 -0.0130  1.2178
15606TIP3   OH268308   1.752   4.354   5.871 -0.1012 -0.1863  0.2184
15606TIP3    H168309   1.750   4.444   5.903 -1.8353  0.0574 -0.4706
15606TIP3    H268310   1.839   4.323   5.894  0.4985  1.6217  0.5700
15607TIP3   OH268311   0.035   2.107   1.907  0.2658 -0.3249  0.1420
15607TIP3    H168312  -0.008   2.027   1.936 -1.1264 -0.2013 -1.4153
15607TIP3    H268313  -0.005   2.176   1.960 -0.7730 -0.3326 -0.6011
15608TIP3   OH268314   5.122   6.410  15.997  0.3730  0.6109  0.6700
15608TIP3    H168315   5.210   6.384  16.026  0.3083  0.5894  0.8504
15608TIP3    H268316   5.130   6.503  15.977  0.9297  0.1908 -1.2207
15609TIP3   OH268317   4.285   2.210   4.685 -0.2611 -0.2310 -0.0426
15609TIP3    H168318   4.282   2.303   4.663  0.0386 -0.0532  0.6287
15609TIP3    H268319   4.266   2.164   4.603 -1.9847  0.4523 -0.0545
15610TIP3   OH268320   3.127   5.056  12.306 -0.1327  0.2546 -0.5883
15610TIP3    H168321   3.163   5.011  12.230  1.5212 -0.4638  0.5404
15610TIP3    H268322   3.156   5.147  12.296 -2.3047  0.8291 -2.1763
15611TIP3   OH268323   3.987   1.263  16.020 -0.0368  0.2945 -0.3284
15611TIP3    H168324   3.894   1.243  16.017 -0.1309  0.5608  0.5482
15611TIP3    H268325   4.003   1.318  15.943 -1.2260  2.7515  1.0587
15612TIP3   OH268326   2.401   4.960   1.763  0.0478 -0.0630 -0.8987
15612TIP3    H168327   2.347   5.038   1.748  0.3607  0.4416  0.4773
15612TIP3    H268328   2.378   4.901   1.692  0.7143  1.7614 -2.7220
15613TIP3   OH268329   5.437   5.260   6.472  0.5113 -0.1348  0.2959
15613TIP3    H168330   5.528   5.279   6.496  0.4922 -2.2072  2.3320
15613TIP3    H268331   5.441   5.181   6.419  0.0810  1.6683 -2.6695
15614TIP3   OH268332   1.821   2.198   3.193  0.1012 -0.6395  0.1055
15614TIP3    H168333   1.750   2.260   3.177 -1.0113 -1.8447  0.1948
15614TIP3    H268334   1.892   2.227   3.136 -2.3269 -2.5072 -4.4002
15615TIP3   OH268335   4.801   1.191  12.996 -0.3715 -0.0902 -0.4650
15615TIP3    H168336   4.778   1.099  12.993  0.8004 -0.5129  1.5271
15615TIP3    H268337   4.891   1.193  13.028 -0.9003  1.7557  1.1379
15616TIP3   OH268338   3.207   5.055   1.192 -0.2879 -0.4039 -1.0288
15616TIP3    H168339   3.300   5.051   1.214 -0.0804  0.8696 -1.5964
15616TIP3    H268340   3.205   5.045   1.096 -0.5939  1.0875 -1.2001
15617TIP3   OH268341   1.774   1.580   0.205  0.3175  0.3600  0.3230
15617TIP3    H168342   1.864   1.579   0.172  1.1615 -2.3832  2.3325
15617TIP3    H268343   1.722   1.543   0.134  0.8958  1.1426 -0.5312
15618TIP3   OH268344   4.963   0.030  14.589 -0.4465  0.2527 -0.3745
15618TIP3    H168345   4.933   0.104  14.536  1.3238  1.1842 -0.1549
15618TIP3    H268346   4.988   0.070  14.672 -0.8471 -0.8406  0.2834
15619TIP3   OH268347   0.161   0.626  15.040  0.7625  0.0092 -0.1265
15619TIP3    H168348   0.090   0.572  15.077  0.6779 -0.6668 -1.2381
15619TIP3    H268349   0.150   0.711  15.082 -2.0386  0.5865 -1.7616
15620TIP3   OH268350   6.602   3.841   3.075  0.0802  0.0205 -0.6339
15620TIP3    H168351   6.684   3.803   3.041 -0.7967 -3.0275  0.3177
15620TIP3    H268352   6.533   3.793   3.029 -1.1080 -0.3446  1.4153
15621TIP3   OH268353   0.430   3.135   0.923  0.0073 -0.3336 -0.1347
15621TIP3    H168354   0.488   3.210   0.918 -0.4179 -0.0494 -1.3433
15621TIP3    H268355   0.487   3.059   0.913  0.1377 -0.0269 -2.1853
15622TIP3   OH268356   4.991   3.025  11.767 -0.5824 -0.0307 -0.2675
15622TIP3    H168357   5.073   3.025  11.719  0.6002  1.6944  1.5759
15622TIP3    H268358   4.981   2.935  11.798  0.9822 -0.1183  0.0401
15623TIP3   OH268359   5.072   1.994  16.170 -0.4330 -0.3672  0.3397
15623TIP3    H168360   5.000   1.989  16.233  0.1976 -2.1897  1.0095
15623TIP3    H268361   5.099   1.903  16.158  2.0054  0.2640  0.4220
15624TIP3   OH268362   2.234   6.764   5.420  0.4384 -0.3627 -0.3299
15624TIP3    H168363   2.192   6.681   5.395  0.6807 -0.9204  1.0309
15624TIP3    H268364   2.326   6.742   5.431  0.3057 -0.2293  1.2898
15625TIP3   OH268365   5.167   3.603   5.358 -0.2064 -0.1123  0.1028
15625TIP3    H168366   5.193   3.616   5.267  0.5283  2.2210  0.5867
15625TIP3    H268367   5.164   3.507   5.368  0.2684 -0.4321 -2.1812
15626TIP3   OH268368   4.934   6.455  10.348  0.2454 -0.3569 -0.0767
15626TIP3    H168369   4.995   6.390  10.382 -1.6854 -1.1731  2.1017
15626TIP3    H268370   4.880   6.407  10.285  0.8273 -0.0320 -0.8354
15627TIP3   OH268371   4.196   1.231  13.035 -0.4030  0.3018 -0.6716
15627TIP3    H168372   4.159   1.166  13.095  1.4262 -0.2333 -0.0402
15627TIP3    H268373   4.240   1.178  12.968  0.2152  0.8754 -0.7276
15628TIP3   OH268374   4.194   5.797  16.995 -0.4135 -0.2468  0.7009
15628TIP3    H168375   4.236   5.739  16.933  0.0673  0.3562  0.4514
15628TIP3    H268376   4.111   5.821  16.954 -0.5120 -0.5729  0.7074
15629TIP3   OH268377   4.026   5.342   2.003  0.6722 -0.9968 -0.1087
15629TIP3    H168378   4.023   5.290   1.923 -2.7540  0.6112 -1.2026
15629TIP3    H268379   3.937   5.334   2.040  0.2274  3.1591  0.1681
15630TIP3   OH268380   0.468   0.722   2.973  0.0026 -0.0304 -0.2144
15630TIP3    H168381   0.422   0.677   3.044  0.3526  2.6477  1.8608
15630TIP3    H268382   0.558   0.731   3.005  0.4566  0.2569 -1.5060
15631TIP3   OH268383   0.736   6.322   5.049  0.0187 -0.4295  0.5606
15631TIP3    H168384   0.704   6.233   5.031  0.6062 -0.2934 -1.3665
15631TIP3    H268385   0.795   6.312   5.124 -0.5200 -1.5220  0.8556
15632TIP3   OH268386   1.743   3.222  16.670  0.1294  0.6840  0.3206
15632TIP3    H168387   1.672   3.281  16.642 -1.5614 -0.5636  1.7180
15632TIP3    H268388   1.785   3.267  16.742 -0.4278  0.7049  0.6439
15633TIP3   OH268389   1.512   1.111   6.487  0.3146 -0.0736  0.8206
15633TIP3    H168390   1.487   1.069   6.404  1.7242  0.3853  0.1352
15633TIP3    H268391   1.478   1.201   6.479 -2.2250 -0.8149  2.0624
15634TIP3   OH268392   5.632   5.964   1.845 -0.0843 -0.1704  0.5203
15634TIP3    H168393   5.559   6.021   1.822  1.4966  1.6541 -0.2590
15634TIP3    H268394   5.702   5.989   1.784  1.0791 -2.1010  0.9836
15635TIP3   OH268395   2.978   2.717   1.911 -0.2958  0.0810  0.1484
15635TIP3    H168396   3.064   2.726   1.953 -1.1174 -0.9858  2.1991
15635TIP3    H268397   2.939   2.805   1.918  0.5142  0.5206 -0.6095
15636TIP3   OH268398   5.366   2.085   0.581 -0.1150 -0.0661 -0.2494
15636TIP3    H168399   5.317   2.032   0.644  0.3390 -1.7809 -1.2572
15636TIP3    H268400   5.320   2.169   0.579 -1.3377 -0.6718  0.8615
15637TIP3   OH268401   2.671   4.596  13.181  0.5522  0.0515 -0.0800
15637TIP3    H168402   2.616   4.532  13.137  1.5041 -1.0334  0.2448
15637TIP3    H268403   2.672   4.569  13.273  1.5033  0.1084 -0.0553
15638TIP3   OH268404   4.842   3.407  11.933 -0.8731 -0.0365  0.2866
15638TIP3    H168405   4.748   3.409  11.953 -1.0395  0.7433 -0.5035
15638TIP3    H268406   4.846   3.372  11.844 -0.3421 -0.8734  0.6274
15639TIP3   OH268407   2.072   2.554  15.681  0.0581  0.1823  0.4001
15639TIP3    H168408   1.997   2.604  15.650 -1.4352 -0.5251  2.6104
15639TIP3    H268409   2.133   2.621  15.713 -0.8648  0.7004  1.1307
15640TIP3   OH268410   2.806   1.606   1.362 -0.4295  0.1545  0.2498
15640TIP3    H168411   2.783   1.676   1.300  0.0547  0.6304  0.5943
15640TIP3    H268412   2.721   1.572   1.391 -0.6811  0.6905  0.1706
15641TIP3   OH268413   1.969   2.901   3.820  0.4200 -0.4391  0.0253
15641TIP3    H168414   1.986   2.838   3.749  3.4883  1.6459 -1.3197
15641TIP3    H268415   1.898   2.955   3.786  0.2084 -0.9676 -0.3955
15642TIP3   OH268416   5.770   1.763  13.776 -0.7905  0.0912 -0.9124
15642TIP3    H168417   5.862   1.789  13.766 -0.4011 -0.5619  0.6558
15642TIP3    H268418   5.721   1.845  13.769 -0.1218  0.4204 -1.9979
15643TIP3   OH268419   5.739   5.808   0.962 -0.2855 -0.0221  0.0030
15643TIP3    H168420   5.815   5.750   0.973 -1.2712 -1.2593  0.6399
15643TIP3    H268421   5.764   5.889   1.005  0.1704 -0.9039  1.5012
15644TIP3   OH268422   5.871   3.072   4.420 -0.3624 -0.1002 -0.2619
15644TIP3    H168423   5.907   3.125   4.349  1.3612 -2.0480 -0.9354
15644TIP3    H268424   5.948   3.040   4.467 -1.1999 -3.1393 -0.7548
15645TIP3   OH268425   1.683   5.819   6.072 -0.7215 -0.5390  0.0685
15645TIP3    H168426   1.672   5.816   6.167 -0.0817 -2.0219  0.1141
15645TIP3    H268427   1.752   5.884   6.058 -2.4242  1.4657  0.4139
15646TIP3   OH268428   1.835   2.967   0.473  0.3422  0.3357  0.2506
15646TIP3    H168429   1.865   2.880   0.446  0.6238  0.9091 -1.4172
15646TIP3    H268430   1.747   2.974   0.436  1.7215  2.1511 -3.1095
15647TIP3   OH268431   2.887   2.927  12.704 -0.1825 -0.4513  0.4351
15647TIP3    H168432   2.856   2.840  12.678 -1.9085  0.1280  0.4068
15647TIP3    H268433   2.892   2.923  12.799 -1.4173 -0.2625  0.5302
15648TIP3   OH268434   2.978   3.938   2.694  0.3481  0.1336  0.0513
15648TIP3    H168435   3.035   3.934   2.617  0.8683  0.0504  0.4401
15648TIP3    H268436   3.037   3.926   2.768  0.1002  1.7926  0.5590
15649TIP3   OH268437   0.079   4.836  12.822 -0.9831 -0.4022 -0.5603
15649TIP3    H168438   0.093   4.766  12.886 -2.7625 -0.1413  0.1964
15649TIP3    H268439   0.166   4.872  12.806 -0.1653 -2.1505 -0.2329
15650TIP3   OH268440   0.864   5.576   0.520 -0.4749 -0.0384  0.1695
15650TIP3    H168441   0.955   5.575   0.491 -0.8375 -0.0474 -1.0143
15650TIP3    H268442   0.850   5.488   0.554  0.7235  0.7438  2.9708
15651TIP3   OH268443   3.214   6.210   0.258 -0.5215 -0.1164  0.3195
15651TIP3    H168444   3.168   6.159   0.191  0.4295 -1.8377  0.9058
15651TIP3    H268445   3.267   6.272   0.208  0.1106 -1.3160 -0.5543
15652TIP3   OH268446   1.032   3.674   0.595 -0.2885  0.0580 -0.4078
15652TIP3    H168447   1.012   3.761   0.560  0.2616 -0.4180 -1.9886
15652TIP3    H268448   1.048   3.689   0.688 -1.4655  1.4341 -0.3968
15653TIP3   OH268449   5.761   3.520   6.026  0.2780 -0.2447  0.2784
15653TIP3    H168450   5.754   3.571   6.107  1.3972  0.7695 -0.2125
15653TIP3    H268451   5.791   3.434   6.054 -0.3265 -0.2216  1.0232
15654TIP3   OH268452   0.839   0.036   3.929  0.2799 -0.2253  0.3034
15654TIP3    H168453   0.784  -0.027   3.975 -0.4235  0.5425  0.5169
15654TIP3    H268454   0.817   0.025   3.837  0.5146 -0.6248  0.2917
15655TIP3   OH268455   6.447   5.307  14.852 -0.4817  0.2214 -0.3585
15655TIP3    H168456   6.485   5.371  14.913  0.4820  0.2875 -1.0050
15655TIP3    H268457   6.362   5.343  14.828  1.0420  2.5993 -2.6672
15656TIP3   OH268458   5.234   3.432  16.741  0.1517 -0.0887 -0.2055
15656TIP3    H168459   5.190   3.378  16.806  1.4772 -2.5435 -1.2076
15656TIP3    H268460   5.283   3.496  16.793  0.2474 -1.2114  1.1602
15657TIP3   OH268461   2.293   0.294   1.053  0.7151  0.4488  0.2047
15657TIP3    H168462   2.233   0.336   1.116 -1.1983  0.1119 -1.2835
15657TIP3    H268463   2.340   0.229   1.105 -0.4176  0.5384  1.4245
15658TIP3   OH268464   5.517   3.530   5.871  0.2334  0.1613 -0.4945
15658TIP3    H168465   5.577   3.545   5.943 -1.7543 -2.4351  1.9525
15658TIP3    H268466   5.443   3.588   5.889  0.4496  0.7698 -1.4832
15659TIP3   OH268467   0.016   2.636   4.465 -0.1575 -0.4788 -0.7370
15659TIP3    H168468   0.085   2.608   4.526 -0.2122  0.4524 -0.2271
15659TIP3    H268469   0.056   2.706   4.413 -0.4834 -0.4542 -0.9573
15660TIP3   OH268470   1.668   0.913  13.654 -0.3333  0.2934  0.1367
15660TIP3    H168471   1.583   0.892  13.617 -1.0496  0.6949  1.4905
15660TIP3    H268472   1.658   0.897  13.748  1.3648 -0.5562  0.2059
15661TIP3   OH268473   4.880   4.244   0.504 -0.0095 -0.1155  0.7843
15661TIP3    H168474   4.948   4.195   0.458 -1.3932 -0.4550 -0.9997
15661TIP3    H268475   4.840   4.181   0.563  0.6617 -0.1265  1.2379
15662TIP3   OH268476   0.545   6.601  13.446 -0.4148  0.4070  0.2665
15662TIP3    H168477   0.511   6.676  13.397  2.9856  1.5159 -0.7126
15662TIP3    H268478   0.562   6.534  13.380  0.3991  0.3509  0.5196
15663TIP3   OH268479   6.805   6.221  17.040  0.6353  0.1475 -0.1438
15663TIP3    H168480   6.814   6.148  17.102 -1.6214 -0.1982 -0.1372
15663TIP3    H268481   6.719   6.208  17.000  1.2951  1.3727 -2.0687
15664TIP3   OH268482   6.276   6.476  13.810 -0.1877  0.5301 -0.7331
15664TIP3    H168483   6.238   6.560  13.836 -1.9493 -0.3112 -0.4339
15664TIP3    H268484   6.299   6.487  13.718  0.4154  1.6029 -0.4695
15665TIP3   OH268485   2.432   6.386  12.077 -0.1876  0.1105  0.0248
15665TIP3    H168486   2.339   6.366  12.067 -0.1188 -0.0889 -0.2410
15665TIP3    H268487   2.469   6.372  11.990  0.2231 -0.5244  0.2910
15666TIP3   OH268488   3.657   1.309   4.402 -0.5880  0.3878  0.0371
15666TIP3    H168489   3.751   1.326   4.414 -0.0359 -1.9628 -0.4989
15666TIP3    H268490   3.653   1.222   4.363 -3.0491  0.0588  0.8366
15667TIP3   OH268491   2.326   5.484  14.943 -0.1614 -0.3666 -0.4181
15667TIP3    H168492   2.418   5.483  14.919  0.4862  1.7802  1.5760
15667TIP3    H268493   2.291   5.565  14.907 -0.7652 -0.2203  0.4481
15668TIP3   OH268494   3.197   1.250   0.261  0.4454 -0.4670 -0.2013
15668TIP3    H168495   3.184   1.226   0.353 -0.2980  2.0612  0.4272
15668TIP3    H268496   3.111   1.241   0.222  0.5267 -0.4670 -0.3798
15669TIP3   OH268497   3.377   1.528   0.831 -0.4936  0.2530 -0.6044
15669TIP3    H168498   3.308   1.471   0.797 -0.5309 -0.6866  0.9335
15669TIP3    H268499   3.336   1.613   0.840 -1.3625 -0.2040 -0.0988
15670TIP3   OH268500   1.709   0.019   3.155 -0.0889  0.1650 -0.0360
15670TIP3    H168501   1.775  -0.049   3.142 -0.0747  0.2379 -0.3810
15670TIP3    H268502   1.727   0.055   3.241  0.1927  0.0416 -0.0424
15671TIP3   OH268503   0.826   4.817  16.571 -0.0873  0.2668 -0.1439
15671TIP3    H168504   0.841   4.762  16.648 -1.7524  0.4830  0.3663
15671TIP3    H268505   0.882   4.779  16.503  0.5780 -0.5909  0.8592
15672TIP3   OH268506   3.610   5.736  15.578 -0.2583  0.2521  0.2155
15672TIP3    H168507   3.623   5.818  15.530  1.2031  0.1376  0.3825
15672TIP3    H268508   3.516   5.734  15.596 -0.9232  0.1758 -2.8262
15673TIP3   OH268509   5.344   6.760   4.218 -0.3298 -0.4673  1.0201
15673TIP3    H168510   5.336   6.781   4.311  0.2421 -0.3939  1.0581
15673TIP3    H268511   5.421   6.703   4.213 -0.7418 -1.0000  0.6759
15674TIP3   OH268512   5.163   6.186   6.078 -0.1458 -0.3763 -0.2588
15674TIP3    H168513   5.128   6.111   6.126 -0.3668 -0.6621 -0.8586
15674TIP3    H268514   5.222   6.229   6.141  0.9224 -1.7272 -0.2918
15675TIP3   OH268515   0.194   4.280  15.183  0.0269  0.0049 -1.2058
15675TIP3    H168516   0.253   4.247  15.115  1.8204  1.2784 -0.3435
15675TIP3    H268517   0.173   4.369  15.155 -1.8526 -0.5593 -1.6954
15676TIP3   OH268518   5.285   2.243   5.380 -0.1779  0.1385 -0.0571
15676TIP3    H168519   5.297   2.324   5.331  0.1041 -0.2543 -0.6431
15676TIP3    H268520   5.266   2.177   5.314  0.9845 -0.5601  0.2748
15677TIP3   OH268521   0.570   1.464  17.240 -0.7732  0.1083 -0.5018
15677TIP3    H168522   0.654   1.495  17.273 -0.0212 -1.9657 -0.2779
15677TIP3    H268523   0.584   1.455  17.146 -0.5796 -0.6190 -0.4132
15678TIP3   OH268524   4.615   4.387  12.359  0.5992  0.1657 -0.5934
15678TIP3    H168525   4.668   4.325  12.408  1.0736  0.2713 -0.9688
15678TIP3    H268526   4.590   4.454  12.423 -1.3688 -1.2692  0.2579
15679TIP3   OH268527   1.151   0.682  13.372 -0.2332 -0.1341 -0.4331
15679TIP3    H168528   1.174   0.633  13.293 -0.2649 -0.1870 -0.4088
15679TIP3    H268529   1.203   0.642  13.441 -1.2768 -1.0219 -0.1465
15680TIP3   OH268530   5.915   0.819  16.179 -0.4089  0.0703 -0.2275
15680TIP3    H168531   5.866   0.868  16.245 -0.4820 -1.2573  0.7376
15680TIP3    H268532   5.889   0.858  16.095  0.7955  2.7720  0.5573
15681TIP3   OH268533   3.683   1.160   3.359  0.1316  0.5896  0.3648
15681TIP3    H168534   3.722   1.235   3.314  2.9796 -0.9001  0.0921
15681TIP3    H268535   3.681   1.091   3.293 -0.8395 -0.0772  1.0577
15682TIP3   OH268536   3.193   4.242   5.251 -0.2275 -0.3772 -0.2860
15682TIP3    H168537   3.248   4.191   5.310  1.6716  1.4838 -0.3291
15682TIP3    H268538   3.121   4.272   5.306  0.3906 -0.4185  0.5690
15683TIP3   OH268539   1.464   5.295   3.610 -0.2786 -0.3853  0.4931
15683TIP3    H168540   1.375   5.329   3.604 -0.6442 -0.8748  2.3319
15683TIP3    H268541   1.520   5.372   3.596 -0.9248 -0.2208 -1.4769
15684TIP3   OH268542   0.037   0.328   2.001 -0.3987 -0.1959  0.2576
15684TIP3    H168543  -0.055   0.313   1.982 -0.5778 -0.0555  0.9658
15684TIP3    H268544   0.064   0.251   2.053  0.4452 -1.2721 -1.6398
15685TIP3   OH268545   4.045   1.134  11.083 -0.3063 -0.3246 -0.2974
15685TIP3    H168546   3.955   1.162  11.098 -0.4353 -0.9106  0.0582
15685TIP3    H268547   4.043   1.090  10.998 -0.0550  0.9227 -0.9719
15686TIP3   OH268548   4.884   1.920   3.867  0.1503 -0.8561 -0.2902
15686TIP3    H168549   4.903   1.835   3.828 -0.3172 -0.2630 -1.9110
15686TIP3    H268550   4.960   1.974   3.846  0.3795 -0.8111  0.6012
15687TIP3   OH268551   2.376   3.068   5.990 -0.2625 -0.0127  0.1801
15687TIP3    H168552   2.360   3.153   6.031  0.1412 -0.9443  2.4161
15687TIP3    H268553   2.439   3.025   6.048  2.1154 -0.6295 -2.6111
15688TIP3   OH268554   5.245   6.556   5.055 -0.4975 -0.0467 -0.1222
15688TIP3    H168555   5.282   6.642   5.033  0.8457 -0.5201  0.2052
15688TIP3    H268556   5.151   6.573   5.065 -0.2447  1.4188  0.0839
15689TIP3   OH268557   0.142   3.244   3.843  0.0520 -0.1127 -0.2208
15689TIP3    H168558   0.137   3.186   3.767  1.7781 -1.1229  0.3709
15689TIP3    H268559   0.060   3.229   3.890 -1.0821  0.5884 -1.8651
15690TIP3   OH268560   1.622   1.089   5.824 -0.0738 -0.2274 -0.5250
15690TIP3    H168561   1.621   1.130   5.737  0.7179  0.0911 -0.3889
15690TIP3    H268562   1.615   1.162   5.885 -1.1289 -0.4867 -0.3137
15691TIP3   OH268563   3.325   1.587  17.118 -0.3393  0.2179  0.5988
15691TIP3    H168564   3.364   1.545  17.041  1.2537 -0.0854  1.5315
15691TIP3    H268565   3.286   1.515  17.167 -0.9313  0.3487  0.3294
15692TIP3   OH268566   1.078   4.912  14.595 -0.2716 -0.1104  0.6821
15692TIP3    H168567   0.993   4.913  14.553  0.0733  2.4280 -0.1681
15692TIP3    H268568   1.120   4.832  14.565 -1.2472  0.0630 -1.2737
15693TIP3   OH268569   2.352   1.575  10.221  0.7300 -0.8460 -0.1211
15693TIP3    H168570   2.277   1.582  10.162  0.8997 -0.5859 -0.3071
15693TIP3    H268571   2.337   1.642  10.288  0.7148 -0.9017 -0.0689
15694TIP3   OH268572   1.103   2.686  11.568 -0.3032  0.4390 -0.3491
15694TIP3    H168573   1.022   2.701  11.519 -0.4193 -1.2381 -0.7298
15694TIP3    H268574   1.075   2.676  11.658 -0.3142  1.4930 -0.2198
15695TIP3   OH268575   1.647   1.870   3.548  0.1990  0.4571  0.0369
15695TIP3    H168576   1.659   1.798   3.610  0.3427 -0.9635 -1.5502
15695TIP3    H268577   1.553   1.870   3.529  0.2806  0.3120 -0.3814
15696TIP3   OH268578   6.014   3.686  12.800 -0.0334 -0.2227 -0.3600
15696TIP3    H168579   5.982   3.694  12.710  1.7105 -1.5607 -1.1488
15696TIP3    H268580   5.969   3.608  12.834  0.1608 -0.3869 -0.4754
15697TIP3   OH268581   4.302   6.034   0.766 -0.5043  0.6310 -0.6248
15697TIP3    H168582   4.390   6.059   0.737 -0.3270 -0.0268 -0.6614
15697TIP3    H268583   4.317   5.972   0.837 -0.9237 -0.5333 -1.5240
15698TIP3   OH268584   5.224   2.520  16.745 -0.4059  0.2835  0.5452
15698TIP3    H168585   5.199   2.603  16.704  2.5792  1.7270  1.3808
15698TIP3    H268586   5.197   2.529  16.836 -1.0793 -0.1466  0.3909
15699TIP3   OH268587   1.798   0.687   3.754 -0.2160 -0.1231  0.0038
15699TIP3    H168588   1.710   0.716   3.730 -0.5081 -1.7856 -1.1035
15699TIP3    H268589   1.849   0.692   3.673  0.4054 -0.2393  0.3730
15700TIP3   OH268590   2.339   3.031   0.747 -0.2000  0.3311  0.4134
15700TIP3    H168591   2.362   3.088   0.673 -1.1361 -0.5327 -0.5758
15700TIP3    H268592   2.423   3.002   0.782  0.2616  0.9956 -0.1042
15701TIP3   OH268593   1.050   3.011  17.083  0.2317  0.1241 -0.2254
15701TIP3    H168594   1.106   3.062  17.025 -0.4192 -0.8990 -1.8228
15701TIP3    H268595   0.967   3.059  17.085 -0.6570 -1.1912 -2.3841
15702TIP3   OH268596   0.856   5.749  13.425 -0.3871  0.4767  0.0241
15702TIP3    H168597   0.924   5.703  13.475  0.3775 -0.3764 -1.7073
15702TIP3    H268598   0.774   5.720  13.465  0.1289 -1.3931 -0.1467
15703TIP3   OH268599   5.445   0.144   4.712 -0.0762  0.5539 -0.3272
15703TIP3    H168600   5.500   0.200   4.657  0.6715  1.0550  0.8944
15703TIP3    H268601   5.382   0.204   4.752 -0.5545  0.2073 -0.5480
15704TIP3   OH268602   3.963   1.302   2.858 -0.2179  0.2555  0.3083
15704TIP3    H168603   3.903   1.358   2.810  0.4705  0.3332 -0.4857
15704TIP3    H268604   3.907   1.237   2.900 -0.7577 -0.8423 -1.9515
15705TIP3   OH268605   1.207   4.067  16.265 -0.5407  0.2337  0.2025
15705TIP3    H168606   1.133   4.073  16.326  0.5159 -0.4849  1.6084
15705TIP3    H268607   1.276   4.120  16.305  0.2759 -0.4836 -0.2154
15706TIP3   OH268608   0.418   2.859  13.626  0.0620 -0.3672  0.3505
15706TIP3    H168609   0.370   2.783  13.658 -0.9603  0.2006  0.2008
15706TIP3    H268610   0.413   2.923  13.696 -2.3649  0.9591 -0.9005
15707TIP3   OH268611   3.468   4.775  16.722 -1.2136 -0.2934  0.6233
15707TIP3    H168612   3.409   4.821  16.662  1.1004  1.0594 -0.7706
15707TIP3    H268613   3.530   4.729  16.665 -0.2540 -0.7746  1.9891
15708TIP3   OH268614   0.012   1.705   1.897  0.3787 -0.0698 -0.0188
15708TIP3    H168615  -0.057   1.771   1.902  1.4340  1.1323 -0.5833
15708TIP3    H268616  -0.004   1.647   1.971 -1.2559  0.1375 -0.1830
15709TIP3   OH268617   2.952   2.836   2.862  0.2066  0.2481  0.3350
15709TIP3    H168618   2.961   2.757   2.809  0.4561 -0.5607  1.5196
15709TIP3    H268619   2.858   2.846   2.874  0.1556  0.3639 -0.1511
15710TIP3   OH268620   3.824   2.142  12.291  0.3171 -0.1530  0.0646
15710TIP3    H168621   3.859   2.088  12.220 -1.6236 -1.2441 -0.1510
15710TIP3    H268622   3.766   2.204  12.247 -1.0569 -0.9693  0.6343
15711TIP3   OH268623   5.743   6.188  16.058  0.2295  0.3940  0.0931
15711TIP3    H168624   5.671   6.145  16.012  1.4639 -1.3877 -0.3005
15711TIP3    H268625   5.704   6.220  16.140 -1.4735  1.5508 -1.1168
15712TIP3   OH268626   1.754   0.366  15.523  0.0466 -0.1209  0.5170
15712TIP3    H168627   1.733   0.318  15.604  1.8518 -1.1317  0.4472
15712TIP3    H268628   1.818   0.310  15.479 -0.5256  0.6565 -1.3874
15713TIP3   OH268629   6.513   4.833   5.100 -0.1127  0.2949  0.2149
15713TIP3    H168630   6.607   4.849   5.086  0.1763  1.5092  2.8522
15713TIP3    H268631   6.473   4.855   5.016  1.8470  0.9055 -0.6435
15714TIP3   OH268632   0.292   5.809  12.001 -0.4197  0.3841  0.6482
15714TIP3    H168633   0.281   5.790  12.095  0.2170  0.2618  0.7004
15714TIP3    H268634   0.205   5.837  11.973 -1.1441 -1.5222  0.8237
15715TIP3   OH268635   0.833   1.298  15.130 -0.0867  1.0942 -0.0921
15715TIP3    H168636   0.915   1.328  15.093 -0.3095  0.6125 -1.0060
15715TIP3    H268637   0.793   1.245  15.061  0.6775 -2.0330  1.6472
15716TIP3   OH268638   1.905   5.443   1.721  0.1291 -0.2449  0.1055
15716TIP3    H168639   1.860   5.523   1.749  0.1946 -0.0658 -0.2965
15716TIP3    H268640   1.834   5.382   1.701  0.0769 -0.6171  1.3102
15717TIP3   OH268641   4.407   0.238  16.885 -0.1414 -0.1456  0.3719
15717TIP3    H168642   4.345   0.199  16.947  0.2472  0.3835  1.1188
15717TIP3    H268643   4.372   0.325  16.867  0.0647 -0.0722  0.3218
15718TIP3   OH268644   6.409   5.225   5.662 -0.5936  1.0043 -0.4991
15718TIP3    H168645   6.496   5.232   5.622 -0.3634 -0.6554 -0.3678
15718TIP3    H268646   6.413   5.144   5.713 -2.3033  0.7520 -0.7087
15719TIP3   OH268647   2.840   2.942   1.941 -0.7503  0.3876  0.5512
15719TIP3    H168648   2.813   2.986   1.860  0.3749 -1.0586 -0.6642
15719TIP3    H268649   2.918   2.988   1.969  0.4513 -0.7698 -0.7435
15720TIP3   OH268650   0.107   6.083   6.094 -0.1449 -0.3524  0.0931
15720TIP3    H168651   0.177   6.035   6.138 -0.5709 -0.6610  0.4510
15720TIP3    H268652   0.047   6.107   6.165  1.0915  2.5646  0.2507
15721TIP3   OH268653   3.367   3.301  12.081  0.2006 -0.0348  0.1700
15721TIP3    H168654   3.312   3.348  12.143 -1.4060  0.4125 -1.4802
15721TIP3    H268655   3.309   3.284  12.006  2.7509  2.2618 -2.6024
15722TIP3   OH268656   4.318   4.602  11.617  0.1030 -0.4527 -0.0219
15722TIP3    H168657   4.293   4.550  11.693  1.7906  0.2210  1.0392
15722TIP3    H268658   4.399   4.646  11.643 -0.5193  1.6378 -1.3715
15723TIP3   OH268659   4.605   6.223   4.506  0.3880  0.5416 -0.0922
15723TIP3    H168660   4.606   6.316   4.484  0.0331  0.7324  0.6595
15723TIP3    H268661   4.514   6.206   4.533  0.5310  0.0546  0.0949
15724TIP3   OH268662   3.976   3.659   3.526 -0.3526 -0.2621 -0.0959
15724TIP3    H168663   4.025   3.599   3.581 -0.3315  1.8510  2.3611
15724TIP3    H268664   3.892   3.670   3.570 -1.0758  0.0912 -1.4931
15725TIP3   OH268665   5.936   0.937  17.261  0.6462  0.1729 -0.0454
15725TIP3    H168666   5.911   0.893  17.180  1.8071 -0.3152 -0.1720
15725TIP3    H268667   5.895   0.886  17.330 -0.4542  0.6663 -0.3169
15726TIP3   OH268668   0.414   3.984  14.597  0.4474  0.0496  0.4169
15726TIP3    H168669   0.397   4.072  14.630  0.8672  0.7983 -1.2752
15726TIP3    H268670   0.371   3.982  14.511  2.7131 -0.4482 -0.7696
15727TIP3   OH268671   2.516   1.475  12.212 -0.6115 -0.7679  0.4713
15727TIP3    H168672   2.573   1.401  12.190  1.8453  1.0455  0.2487
15727TIP3    H268673   2.570   1.552  12.193 -2.5979  1.0683  1.8805
15728TIP3   OH268674   0.321   5.281  12.883 -0.2121 -0.4825  0.8098
15728TIP3    H168675   0.287   5.275  12.793  0.1835 -1.4301  0.7133
15728TIP3    H268676   0.412   5.309  12.873 -0.2119 -0.4420  0.9213
15729TIP3   OH268677   6.554   1.158  11.232 -0.1372  0.3503 -0.9769
15729TIP3    H168678   6.583   1.081  11.280 -1.0057  0.0530 -0.9038
15729TIP3    H268679   6.583   1.143  11.142 -0.2234 -0.0227 -0.9440
15730TIP3   OH268680   2.337   2.809  12.708 -0.5685  0.2235 -0.1285
15730TIP3    H168681   2.408   2.852  12.756 -0.3547  1.3598 -1.3808
15730TIP3    H268682   2.379   2.772  12.630 -1.5241  2.5890 -1.9154
15731TIP3   OH268683   4.799   5.294   2.079  0.2433  0.0736  0.7942
15731TIP3    H168684   4.772   5.255   2.161 -0.1480  0.8666  1.0529
15731TIP3    H268685   4.894   5.304   2.087  0.4654 -1.5083  0.4084
15732TIP3   OH268686   3.407   1.876  11.898  0.2631 -0.4234 -0.0377
15732TIP3    H168687   3.378   1.857  11.987 -2.0901  0.9348 -0.4471
15732TIP3    H268688   3.431   1.968  11.899 -0.3194 -0.2457 -0.9220
15733TIP3   OH268689   2.386   3.698   2.170  0.0008  0.1217 -0.1706
15733TIP3    H168690   2.474   3.721   2.199 -0.2058  1.3427 -0.4703
15733TIP3    H268691   2.338   3.781   2.170 -0.2725  0.0747 -3.1388
15734TIP3   OH268692   2.709   0.847  13.181  0.2557  0.5667  0.1005
15734TIP3    H168693   2.651   0.782  13.221  0.8848 -0.1437 -0.1265
15734TIP3    H268694   2.788   0.844  13.235  1.1824 -0.5161 -1.2769
15735TIP3   OH268695   4.746   5.792  15.542 -0.2778 -0.1613  0.7047
15735TIP3    H168696   4.799   5.826  15.470  1.4762 -2.3242  0.8603
15735TIP3    H268697   4.717   5.706  15.511  0.9513 -1.3737  2.7133
15736TIP3   OH268698   1.875   1.292  15.352  0.0509  0.0038 -0.2258
15736TIP3    H168699   1.863   1.201  15.379  3.0006  0.1156  2.0038
15736TIP3    H268700   1.848   1.343  15.428 -0.9712  0.9936 -1.2224
15737TIP3   OH268701   3.792   4.031  12.610 -0.1002 -0.1577  0.3424
15737TIP3    H168702   3.852   3.984  12.551  0.4401 -1.9462  2.1979
15737TIP3    H268703   3.712   4.042  12.559  1.0291  0.3325 -1.4509
15738TIP3   OH268704   0.557   0.493   5.745 -0.3946 -0.0792 -0.2026
15738TIP3    H168705   0.582   0.417   5.693  2.4263  0.3348  0.3342
15738TIP3    H268706   0.488   0.462   5.803 -1.5987 -1.2936 -2.2055
15739TIP3   OH268707   3.662   5.332  16.607 -0.3683 -0.4323 -0.0431
15739TIP3    H168708   3.729   5.387  16.649  0.0608 -2.0495  1.4661
15739TIP3    H268709   3.668   5.356  16.514  2.2264 -0.4072  0.0463
15740TIP3   OH268710   4.068   3.491   5.467  0.1375  0.2524  0.1799
15740TIP3    H168711   4.020   3.519   5.389  1.2515 -0.3446 -0.7454
15740TIP3    H268712   4.064   3.396   5.464  0.4242  0.2234  0.7027
15741TIP3   OH268713   1.430   0.537  11.372  0.4151 -0.2689  0.4071
15741TIP3    H168714   1.516   0.505  11.345 -0.1626 -1.1249 -0.4796
15741TIP3    H268715   1.400   0.590  11.297  0.1350 -0.0333  0.6831
15742TIP3   OH268716   4.699   0.342   1.491 -0.5635  0.1760 -0.1920
15742TIP3    H168717   4.689   0.438   1.494 -0.7368  0.1953 -1.0261
15742TIP3    H268718   4.614   0.308   1.519  0.3374  0.1999  2.9342
15743TIP3   OH268719   6.132   4.863   2.367  0.1976  0.1770 -0.6702
15743TIP3    H168720   6.089   4.884   2.284  1.4603  0.9211 -1.1525
15743TIP3    H268721   6.169   4.776   2.354 -1.6128 -0.7415 -0.0422
15744TIP3   OH268722   2.621   6.099   2.915 -0.6046 -0.4101  0.1994
15744TIP3    H168723   2.601   6.027   2.855  1.5135 -1.0708  0.1816
15744TIP3    H268724   2.551   6.162   2.901 -1.2967 -1.4707 -1.4736
15745TIP3   OH268725   5.757   0.741   1.691  0.1293 -0.2864  0.1644
15745TIP3    H168726   5.690   0.681   1.657 -0.4625  0.6343 -0.3353
15745TIP3    H268727   5.730   0.757   1.782 -1.4757  1.5864 -0.5769
15746TIP3   OH268728   6.629   1.003   4.098 -0.2454 -0.7071  0.1301
15746TIP3    H168729   6.591   1.045   4.175 -0.1699 -0.8627  0.2527
15746TIP3    H268730   6.627   1.070   4.031 -0.9532 -0.7876  0.0677
15747TIP3   OH268731   6.271   2.218   2.870 -0.2218  0.1612  0.3707
15747TIP3    H168732   6.284   2.304   2.829 -1.9055  1.3897  2.2681
15747TIP3    H268733   6.180   2.218   2.898 -0.8138 -2.9938 -1.0941
15748TIP3   OH268734   6.491   5.797   0.371  0.4869  0.1113 -0.2270
15748TIP3    H168735   6.486   5.739   0.447 -0.5691 -0.5812 -0.8019
15748TIP3    H268736   6.567   5.852   0.389  2.2925 -2.2152 -0.1909
15749TIP3   OH268737   3.595   1.962  12.186 -0.4780  0.0637  0.0857
15749TIP3    H168738   3.589   1.873  12.150  1.6836 -0.7845  1.6216
15749TIP3    H268739   3.588   1.951  12.280  0.2437  1.4792  0.3358
15750TIP3   OH268740   0.676   5.510  17.287 -0.0342  0.0078 -0.5537
15750TIP3    H168741   0.707   5.431  17.330 -0.1975  0.1263 -0.2223
15750TIP3    H268742   0.586   5.490  17.262  0.0065 -0.0008 -0.6943
15751TIP3   OH268743   1.381   1.923  15.464  0.2689  0.2032  0.0827
15751TIP3    H168744   1.455   1.867  15.487 -0.0262 -0.2944 -0.1622
15751TIP3    H268745   1.347   1.886  15.383 -0.4911  0.1848  0.3978
15752TIP3   OH268746   2.520   1.388  17.166 -0.1742  0.3454  0.1162
15752TIP3    H168747   2.465   1.322  17.123  1.1731 -0.6849 -0.1097
15752TIP3    H268748   2.533   1.456  17.100 -0.3934  0.1299 -0.1518
15753TIP3   OH268749   5.692   2.513   0.416  0.5103  0.1889 -0.1724
15753TIP3    H168750   5.740   2.596   0.421  0.3742  0.3093 -0.7852
15753TIP3    H268751   5.621   2.523   0.479  0.8967  0.2701  0.2557
15754TIP3   OH268752   0.621   1.119  15.991 -0.3088 -0.3189 -0.3000
15754TIP3    H168753   0.578   1.202  16.008 -1.5237 -1.1220  0.7559
15754TIP3    H268754   0.603   1.066  16.068  0.0946 -1.7031 -1.1120
15755TIP3   OH268755   2.865   0.240   3.370 -0.2160 -0.2009  0.6062
15755TIP3    H168756   2.872   0.316   3.429 -2.9651 -1.0799  2.2199
15755TIP3    H268757   2.902   0.271   3.288  1.5253  1.8892  2.0531
15756TIP3   OH268758   2.680   6.355   2.620 -0.4935  0.3135 -0.1862
15756TIP3    H168759   2.594   6.348   2.579 -0.8235  0.8741  0.3956
15756TIP3    H268760   2.738   6.305   2.562 -1.1340  0.2498 -0.7880
15757TIP3   OH268761   1.363   3.962   3.404 -0.1134  0.6063 -0.1616
15757TIP3    H168762   1.439   3.929   3.355 -0.8219  2.0422 -2.3471
15757TIP3    H268763   1.357   3.904   3.480  2.1986 -0.5411 -0.7625
15758TIP3   OH268764   0.642   6.756  12.329 -0.2552 -0.1404  0.0108
15758TIP3    H168765   0.732   6.769  12.300  0.4032 -0.5742  1.7159
15758TIP3    H268766   0.602   6.843  12.325 -0.0634 -0.1019 -1.6235
15759TIP3   OH268767   6.055   1.248   0.338  0.4780 -0.2388 -0.3868
15759TIP3    H168768   5.966   1.249   0.372  0.3629 -0.0648 -0.6830
15759TIP3    H268769   6.101   1.182   0.390  0.1200 -0.4823 -0.3773
15760TIP3   OH268770   0.456   1.328  14.545 -0.4072  0.1084 -0.1072
15760TIP3    H168771   0.389   1.392  14.519  0.6519  1.3653  0.1608
15760TIP3    H268772   0.457   1.331  14.641 -0.8494 -0.8660 -0.0589
15761TIP3   OH268773   3.357   2.688   5.415 -0.1521  0.1776 -0.2485
15761TIP3    H168774   3.374   2.668   5.323 -0.8171 -1.2364 -0.0901
15761TIP3    H268775   3.261   2.691   5.421 -0.1377 -0.6891  0.5806
15762TIP3   OH268776   5.981   6.724   0.292  0.1759  0.0654  0.2752
15762TIP3    H168777   6.014   6.638   0.321  0.4352 -0.0348 -0.2926
15762TIP3    H268778   5.889   6.723   0.315  0.0358 -0.6144 -0.2670
15763TIP3   OH268779   4.716   2.265   3.786  0.5093  0.2776  0.2179
15763TIP3    H168780   4.809   2.265   3.766  0.4381  0.7926 -0.1490
15763TIP3    H268781   4.699   2.353   3.821  0.7334 -0.7348  3.1315
15764TIP3   OH268782   5.720   4.266  11.609 -0.2164  0.0556  0.2677
15764TIP3    H168783   5.640   4.289  11.656  0.1377  0.5229  0.6512
15764TIP3    H268784   5.718   4.320  11.530 -0.2965  0.0421  0.2609
15765TIP3   OH268785   6.053   5.006  16.395 -0.3560 -0.0259 -0.2561
15765TIP3    H168786   6.044   5.020  16.301 -0.1590 -1.2260 -0.4796
15765TIP3    H268787   5.979   5.052  16.434  0.2286  1.5006 -0.8799
15766TIP3   OH268788   2.212   1.952   6.071 -0.2453  0.0240  0.0968
15766TIP3    H168789   2.167   1.964   5.987  0.7368  0.6058 -0.3638
15766TIP3    H268790   2.267   1.875   6.057 -0.1497  0.0656  0.2435
15767TIP3   OH268791   2.618   1.925  12.258  0.1838  0.2922  0.6821
15767TIP3    H168792   2.640   1.958  12.346  0.6149  1.5126  0.1424
15767TIP3    H268793   2.538   1.971  12.235  0.2634  0.2394  0.2982
15768TIP3   OH268794   4.749   3.323   4.268 -0.3590  0.1147  0.2548
15768TIP3    H168795   4.710   3.354   4.186  2.1246  0.7077 -0.7668
15768TIP3    H268796   4.748   3.227   4.260  1.7605  0.1703 -1.4928
15769TIP3   OH268797   4.456   6.762   4.537 -0.1059 -0.5423 -0.7404
15769TIP3    H168798   4.461   6.699   4.466 -2.1396 -1.4243 -0.1780
15769TIP3    H268799   4.395   6.829   4.505  0.2938 -0.0356 -0.4645
15770TIP3   OH268800   0.455   6.332  16.742 -0.0523 -0.0112  0.6200
15770TIP3    H168801   0.461   6.374  16.827  1.0138 -0.2224  0.6678
15770TIP3    H268802   0.377   6.277  16.747 -0.6919  0.9102  1.0202
15771TIP3   OH268803   5.888   4.849   4.436  0.0385  0.6242 -0.1772
15771TIP3    H168804   5.844   4.876   4.355  1.8895  1.7933 -0.8516
15771TIP3    H268805   5.820   4.858   4.503 -2.0239 -1.9024 -1.7351
15772TIP3   OH268806   2.948   3.339  12.545 -0.3996  0.1151  0.0152
15772TIP3    H168807   2.988   3.257  12.573  0.4109  0.0078 -1.3978
15772TIP3    H268808   2.889   3.362  12.617  0.7757 -0.7006  1.2934
15773TIP3   OH268809   0.070   3.036   5.890  0.3722  0.0517 -0.6205
15773TIP3    H168810   0.037   3.009   5.805  0.7044 -1.1457 -0.4034
15773TIP3    H268811   0.162   3.009   5.890  0.4856  0.4070 -0.0374
15774TIP3   OH268812   1.345   2.247   5.732 -0.2543 -0.0096  0.1831
15774TIP3    H168813   1.281   2.231   5.663  0.4838  1.4872 -0.8967
15774TIP3    H268814   1.329   2.338   5.758  0.0420 -0.2893  1.4123
15775TIP3   OH268815   4.300   4.660   2.424 -0.1146 -0.4802  0.2501
15775TIP3    H168816   4.236   4.602   2.465  1.2289 -2.1241  0.1230
15775TIP3    H268817   4.376   4.658   2.483 -0.7012  2.8130  1.3308
15776TIP3   OH268818   4.773   4.504   1.994  0.0045  0.1946 -0.1356
15776TIP3    H168819   4.837   4.446   1.954 -0.3740 -0.5831  0.3712
15776TIP3    H268820   4.688   4.466   1.971 -0.2451  0.5089  0.2521
15777TIP3   OH268821   2.587   1.819   5.145  0.0365 -0.1560  0.5170
15777TIP3    H168822   2.585   1.728   5.115  3.7101 -0.6906  1.5102
15777TIP3    H268823   2.574   1.814   5.239 -1.5665  0.5975  0.3723
15778TIP3   OH268824   4.266   0.812  15.747 -0.7016  0.5035 -0.5398
15778TIP3    H168825   4.207   0.777  15.681 -2.6306  2.3015  0.1157
15778TIP3    H268826   4.307   0.735  15.787 -2.2009 -0.7811 -1.3984
15779TIP3   OH268827   2.071   0.087  12.218  0.1114  0.0796  0.2331
15779TIP3    H168828   2.108   0.089  12.129  0.9307  1.2205  0.5763
15779TIP3    H268829   2.148   0.085  12.275 -0.4139 -1.4937  0.9292
15780TIP3   OH268830   5.324   4.895   5.693 -0.6441  0.0621 -0.3077
15780TIP3    H168831   5.413   4.866   5.712 -0.5935  1.5385  2.1122
15780TIP3    H268832   5.334   4.986   5.663 -1.2573 -0.2759 -1.6228
15781TIP3   OH268833   2.538   3.368   2.114  0.7248 -0.1225  0.1111
15781TIP3    H168834   2.572   3.416   2.189  1.0428 -0.6976  0.3433
15781TIP3    H268835   2.501   3.288   2.152 -1.8992  0.9414  0.0166
15782TIP3   OH268836   4.461   2.294   1.204 -0.1143 -0.1641 -0.1284
15782TIP3    H168837   4.493   2.324   1.119 -0.3948 -0.1552 -0.2330
15782TIP3    H268838   4.540   2.278   1.256  0.0462  0.4477 -0.1794
15783TIP3   OH268839   3.924   2.028  10.544 -0.6408 -0.1014  0.1725
15783TIP3    H168840   3.996   1.969  10.522  0.2474  0.8155  0.5574
15783TIP3    H268841   3.846   1.973  10.539  0.0310 -1.0120 -0.6771
15784TIP3   OH268842   5.297   2.464   5.208 -0.4023  0.5269 -0.7485
15784TIP3    H168843   5.379   2.511   5.194 -0.8341  1.7043  0.3972
15784TIP3    H268844   5.241   2.492   5.136  0.0776 -0.0206 -1.3478
15785TIP3   OH268845   6.689   3.281  13.487 -0.2866 -0.0652  0.1430
15785TIP3    H168846   6.783   3.299  13.478 -0.1750 -0.1841  1.0276
15785TIP3    H268847   6.682   3.186  13.473 -0.6410  0.2861 -2.6402
15786TIP3   OH268848   4.403   6.394   5.258  0.5939  0.4593  0.2652
15786TIP3    H168849   4.423   6.301   5.244 -1.0719  0.1064  0.0462
15786TIP3    H268850   4.427   6.410   5.349 -1.5366 -0.9084  1.1323
15787TIP3   OH268851   0.107   3.680   1.710  0.0978 -0.2933 -0.2451
15787TIP3    H168852   0.095   3.716   1.622 -0.2899 -1.0336 -0.4975
15787TIP3    H268853   0.075   3.590   1.704  0.8218 -0.6069  0.4426
15788TIP3   OH268854   1.952   0.700   1.471 -0.6248  0.5504  0.5051
15788TIP3    H168855   1.993   0.736   1.549 -1.4612 -0.6859  1.5417
15788TIP3    H268856   1.975   0.762   1.401  0.4711  1.4533  1.6340
15789TIP3   OH268857   2.799   5.627  14.296 -0.0872  0.4349 -0.3307
15789TIP3    H168858   2.839   5.709  14.267 -1.1957  1.0202 -0.2508
15789TIP3    H268859   2.758   5.648  14.379  1.6290 -0.8125  0.9109
15790TIP3   OH268860   0.430   0.382   5.059  0.2157 -0.4789 -0.4072
15790TIP3    H168861   0.338   0.357   5.058  0.9509 -3.7827 -2.8812
15790TIP3    H268862   0.440   0.444   4.986  0.2569 -1.7582 -1.5184
15791TIP3   OH268863   3.244   3.199   2.596 -0.3000  0.1791 -0.3240
15791TIP3    H168864   3.188   3.164   2.665 -2.1723  1.0188 -1.3472
15791TIP3    H268865   3.189   3.198   2.517  1.5145 -0.0231 -1.6551
15792TIP3   OH268866   2.253   0.483   0.217 -0.5276  0.0833 -0.2678
15792TIP3    H168867   2.171   0.524   0.189 -0.2402  0.5586 -0.4297
15792TIP3    H268868   2.302   0.469   0.136 -0.6554 -0.6724 -0.2252
15793TIP3   OH268869   4.776   5.080   4.125  0.3821  0.5156  0.0006
15793TIP3    H168870   4.776   5.000   4.072  1.7497  0.6524 -0.2268
15793TIP3    H268871   4.841   5.064   4.193  0.4671  1.3276  0.1205
15794TIP3   OH268872   3.998   3.253   3.565 -0.5933  0.5908  0.0335
15794TIP3    H168873   3.918   3.302   3.547 -0.5186  1.7116  2.3324
15794TIP3    H268874   3.971   3.185   3.627 -0.2807 -0.9733 -1.4803
15795TIP3   OH268875   2.143   5.626  14.075 -0.0430 -0.2226 -0.5815
15795TIP3    H168876   2.071   5.663  14.126 -1.6610 -0.2784 -2.6948
15795TIP3    H268877   2.173   5.698  14.020  0.6547 -0.5457 -0.6372
15796TIP3   OH268878   6.762   4.377   5.369  0.5478 -0.7461  0.3162
15796TIP3    H168879   6.854   4.402   5.355  0.3514  0.7916  1.5225
15796TIP3    H268880   6.735   4.428   5.445 -1.7514  0.0062 -0.9180
15797TIP3   OH268881   5.636   1.532   5.040 -0.4683 -0.5232  0.2930
15797TIP3    H168882   5.606   1.451   5.000 -1.2201  0.1877 -0.6176
15797TIP3    H268883   5.629   1.598   4.971 -1.2145  0.6032  1.3911
15798TIP3   OH268884   1.602   3.185  13.626  0.4163 -0.7873 -0.0692
15798TIP3    H168885   1.595   3.118  13.694  0.5881 -1.0035 -0.2669
15798TIP3    H268886   1.691   3.219  13.635 -0.2796  0.8625  1.3917
15799TIP3   OH268887   2.679   3.721   2.218  0.4643 -0.3984  0.4745
15799TIP3    H168888   2.662   3.800   2.270 -1.2311  1.1277 -2.1594
15799TIP3    H268889   2.737   3.750   2.149  1.0802 -1.8841  0.3466
15800TIP3   OH268890   2.351   1.141  14.225  0.0100  0.0727  0.5389
15800TIP3    H168891   2.445   1.119  14.230 -0.3736 -1.8287  0.3059
15800TIP3    H268892   2.307   1.059  14.247 -1.6206  1.1667  1.4818
15801TIP3   OH268893   2.522   6.731  13.831  0.2523  0.1086  0.0044
15801TIP3    H168894   2.481   6.775  13.906  1.8139  1.0449  0.3447
15801TIP3    H268895   2.545   6.644  13.864 -4.9566 -2.1887 -1.3000
15802TIP3   OH268896   6.623   4.161  13.817  0.4553 -0.3030 -0.2292
15802TIP3    H168897   6.607   4.203  13.732 -0.7005  0.0777  0.1689
15802TIP3    H268898   6.568   4.210  13.879 -1.6247 -2.9007  0.1261
15803TIP3   OH268899   0.260   4.210  14.427 -0.2893  0.0764  0.0011
15803TIP3    H168900   0.232   4.260  14.350  0.5524 -0.0975 -0.4204
15803TIP3    H268901   0.213   4.127  14.420 -0.0796 -0.0076 -0.4195
15804TIP3   OH268902   4.445   0.790  11.080  0.1436  0.4051 -0.3332
15804TIP3    H168903   4.444   0.697  11.059 -1.7984  0.6565 -1.6481
15804TIP3    H268904   4.487   0.832  11.005  2.0202  0.5596  0.7335
15805TIP3   OH268905   2.310   6.403  13.027  0.5934  0.1689 -0.5908
15805TIP3    H168906   2.393   6.443  13.050  0.6377  0.9614 -2.0164
15805TIP3    H268907   2.250   6.431  13.096  1.1470  0.8731 -0.3856
15806TIP3   OH268908   2.049   6.185  11.595 -0.2958 -0.7142 -0.4231
15806TIP3    H168909   2.138   6.213  11.573 -0.4363  0.3834  0.3197
15806TIP3    H268910   1.993   6.239  11.541 -0.5690  0.4160  0.9326
15807TIP3   OH268911   0.872   6.196   2.625 -0.1886  0.3577 -0.1012
15807TIP3    H168912   0.894   6.218   2.716  0.3211  0.1026 -0.1608
15807TIP3    H268913   0.817   6.269   2.596  0.2263  0.7910  0.1887
15808TIP3   OH268914   0.933   6.717  13.426 -0.1931  0.0170 -0.4797
15808TIP3    H168915   0.864   6.732  13.361 -0.6443  2.7469  0.4851
15808TIP3    H268916   0.941   6.800  13.472  1.0508 -1.3992  2.0850
15809TIP3   OH268917   3.905   6.658   1.543 -0.2546  0.1717 -0.6713
15809TIP3    H168918   3.962   6.735   1.544  0.4376 -0.3135  0.6152
15809TIP3    H268919   3.836   6.679   1.606 -0.7008  0.1797 -1.1553
15810TIP3   OH268920   5.030   6.453   4.797  0.0921 -0.1892 -0.0053
15810TIP3    H168921   5.030   6.539   4.839  0.9701 -1.1131  2.0288
15810TIP3    H268922   5.103   6.457   4.735 -0.5338  0.8581 -0.6906
15811TIP3   OH268923   2.159   0.670   4.881  0.3962 -0.0525  0.3083
15811TIP3    H168924   2.231   0.679   4.819 -1.5195  0.7977 -1.9428
15811TIP3    H268925   2.109   0.751   4.873 -1.0899 -0.7975  1.4126
15812TIP3   OH268926   0.480   3.885  15.889 -0.3027  0.3134  0.2008
15812TIP3    H168927   0.569   3.850  15.881  0.5053  2.3397 -0.6296
15812TIP3    H268928   0.454   3.902  15.798 -0.3184  2.4639  0.5582
15813TIP3   OH268929   3.529   4.852   1.596 -0.7469 -0.4481 -0.7264
15813TIP3    H168930   3.459   4.888   1.542 -1.7008 -0.8130  0.2292
15813TIP3    H268931   3.526   4.757   1.580  0.3293 -0.3634 -1.5806
15814TIP3   OH268932   3.205   2.442  14.812 -0.4986 -0.7519  0.3850
15814TIP3    H168933   3.196   2.349  14.834 -1.7415 -0.9603 -0.8474
15814TIP3    H268934   3.115   2.471  14.798 -0.1066  0.6065  0.5693
15815TIP3   OH268935   4.021   3.512   6.489  0.0450 -0.4542 -0.0612
15815TIP3    H168936   4.035   3.584   6.550 -1.5021  0.9464 -1.2486
15815TIP3    H268937   4.107   3.472   6.479  0.2512 -1.3614  3.6734
15816TIP3   OH268938   3.349   1.663   1.400 -0.0812  0.1862 -0.4517
15816TIP3    H168939   3.411   1.615   1.454 -1.6807 -0.7292  0.6809
15816TIP3    H268940   3.306   1.596   1.347 -0.8511  0.6282 -0.4097
15817TIP3   OH268941   3.917   4.566  15.364  0.0603 -0.1582 -0.2684
15817TIP3    H168942   3.874   4.637  15.413 -1.3975 -0.1997 -1.4422
15817TIP3    H268943   3.862   4.490  15.378  0.0763 -0.3720 -1.3082
15818TIP3   OH268944   0.375   4.741  12.189  0.3738  0.0450  0.1375
15818TIP3    H168945   0.419   4.670  12.237  2.0878  0.4149 -0.8173
15818TIP3    H268946   0.406   4.731  12.099 -0.0408  1.5018 -0.1784
15819TIP3   OH268947   2.579   5.071  12.267 -0.2052  0.2043 -0.0013
15819TIP3    H168948   2.520   5.139  12.298 -0.5553  0.1297 -0.4878
15819TIP3    H268949   2.542   4.989  12.301  1.0931  0.3595  1.9420
15820TIP3   OH268950   1.688   4.846   1.937 -0.0610 -0.2056 -0.2174
15820TIP3    H168951   1.694   4.751   1.951  0.5521 -0.1545 -0.0907
15820TIP3    H268952   1.595   4.865   1.938 -0.1437 -0.6273  1.0197
15821TIP3   OH268953   4.816   4.413   5.432  0.5835  0.2950 -0.3617
15821TIP3    H168954   4.843   4.404   5.341 -0.8934  0.5435 -0.8554
15821TIP3    H268955   4.805   4.507   5.445 -1.8557  0.1392 -0.7945
15822TIP3   OH268956   0.373   1.705  13.652  0.2069 -0.2086  0.2704
15822TIP3    H168957   0.448   1.765  13.648 -1.4285  1.8501 -1.3871
15822TIP3    H268958   0.313   1.746  13.715 -1.1062  0.1790 -1.1807
15823TIP3   OH268959   3.800   3.092  12.781 -0.3366 -0.9942  0.0887
15823TIP3    H168960   3.845   3.176  12.789 -2.4168  0.5217 -2.5333
15823TIP3    H268961   3.867   3.031  12.754  0.8485  0.3080 -0.0255
15824TIP3   OH268962   6.615   1.340   3.185 -0.3405  0.0993  0.2290
15824TIP3    H168963   6.542   1.279   3.189  0.1000 -0.6056 -1.5909
15824TIP3    H268964   6.578   1.420   3.148  0.1142 -0.9503 -2.8235
15825TIP3   OH268965   2.106   1.415   5.299 -0.1729 -0.5745  0.2192
15825TIP3    H168966   2.046   1.408   5.225  1.6493  0.9890 -1.5491
15825TIP3    H268967   2.061   1.473   5.361  0.4986  3.1351 -2.4014
15826TIP3   OH268968   4.878   1.095   1.280 -0.1599 -0.2849 -0.1054
15826TIP3    H168969   4.884   1.173   1.336  0.2018 -1.4679  1.5822
15826TIP3    H268970   4.857   1.129   1.194 -3.2992  1.5090  1.2022
15827TIP3   OH268971   6.442   5.513   4.889 -0.0279 -0.6459 -0.6924
15827TIP3    H168972   6.426   5.603   4.918  0.5763 -0.7008 -0.1713
15827TIP3    H268973   6.389   5.504   4.810 -1.2264 -0.3030  0.0418
15828TIP3   OH268974   3.064   5.538  14.212 -0.1780 -0.3140 -0.0728
15828TIP3    H168975   2.978   5.530  14.253 -0.0503  0.0798  0.2823
15828TIP3    H268976   3.126   5.516  14.281 -0.0069 -1.3152 -0.5224
15829TIP3   OH268977   5.541   0.087  11.092  0.3102  0.1551  0.0541
15829TIP3    H168978   5.551   0.004  11.045  1.5137  0.6861 -0.6705
15829TIP3    H268979   5.625   0.131  11.081 -0.5471  1.7949 -0.1812
15830TIP3   OH268980   4.989   6.427   0.716  1.0267  0.0632  0.2879
15830TIP3    H168981   4.955   6.513   0.691  1.4039  0.0748 -0.1949
15830TIP3    H268982   4.930   6.364   0.674 -0.4705  0.0544  2.2787
15831TIP3   OH268983   3.139   0.211  13.454 -0.7549  0.3485 -0.3987
15831TIP3    H168984   3.226   0.193  13.491 -0.9966  0.5849  0.3007
15831TIP3    H268985   3.106   0.126  13.427 -0.2663  0.2681 -0.7608
15832TIP3   OH268986   0.690   2.944  12.463  0.0256  0.2482 -0.6030
15832TIP3    H168987   0.769   2.955  12.515  0.0939  0.0610 -0.6693
15832TIP3    H268988   0.684   2.850  12.445 -2.2795 -0.3881  2.6448
15833TIP3   OH268989   1.960   3.268  14.503 -0.1603  0.5331 -0.2647
15833TIP3    H168990   1.906   3.189  14.509 -0.7518  0.9491 -0.1241
15833TIP3    H268991   2.049   3.237  14.522 -0.7274  0.3330  2.4938
15834TIP3   OH268992   2.912   5.822  14.861 -0.3261 -0.2234  0.4088
15834TIP3    H168993   2.968   5.794  14.933  1.8399  3.2229  0.2772
15834TIP3    H268994   2.927   5.757  14.792  0.3318 -1.5991  1.7823
15835TIP3   OH268995   2.566   5.020  15.149  0.1649  0.3015  0.0204
15835TIP3    H168996   2.544   5.026  15.056 -0.0661  1.2035  0.1218
15835TIP3    H268997   2.484   5.042  15.195 -0.2237 -1.8892  0.4765
15836TIP3   OH268998   4.874   3.838   5.328 -0.0653 -0.1900 -0.2307
15836TIP3    H168999   4.867   3.837   5.233  1.0871 -1.7629 -0.3376
15836TIP3    H269000   4.784   3.831   5.360 -0.4445  0.1745 -1.1919
15837TIP3   OH269001   5.111   1.918  13.618 -1.0170 -0.2720 -0.3439
15837TIP3    H169002   5.103   1.870  13.535 -2.7855 -0.6238 -0.0224
15837TIP3    H269003   5.092   2.009  13.594 -0.6749 -0.2334 -0.4670
15838TIP3   OH269004   3.898   4.029  11.636  0.5008 -0.2151  0.0266
15838TIP3    H169005   3.954   4.101  11.606  2.3618 -0.9083  1.5855
15838TIP3    H269006   3.837   4.070  11.697  0.4061  0.2871 -0.3921
15839TIP3   OH269007   3.660   6.293  13.010  0.4245 -0.5337  0.1759
15839TIP3    H169008   3.595   6.343  12.961  0.5237 -1.8645 -1.3865
15839TIP3    H269009   3.615   6.268  13.091  0.0057  1.0508  0.4738
15840TIP3   OH269010   5.830   1.066  14.672 -0.3057  0.0787  0.7949
15840TIP3    H169011   5.917   1.075  14.710  0.3678 -0.1791 -0.6146
15840TIP3    H269012   5.802   1.156  14.653  0.0861  0.1170  0.3645
15841TIP3   OH269013   5.539   6.086   1.097 -0.3396  0.2856  0.0108
15841TIP3    H169014   5.497   6.151   1.152 -1.2798 -0.2900 -0.0037
15841TIP3    H269015   5.622   6.126   1.070  0.0377  0.6638  1.6386
15842TIP3   OH269016   4.159   5.652   1.151  0.5591 -0.1893 -0.0643
15842TIP3    H169017   4.099   5.582   1.178 -0.1783  0.0873 -0.9212
15842TIP3    H269018   4.102   5.727   1.134  1.4156  0.9112  1.6598
15843TIP3   OH269019   6.024   5.902   1.104  0.3407 -0.3441  0.7459
15843TIP3    H169020   5.977   5.875   1.184 -0.5247  0.1568  0.4253
15843TIP3    H269021   6.087   5.967   1.134 -0.3847  0.2741  0.9461
15844TIP3   OH269022   5.383   1.013  12.385  0.2055 -0.0224 -0.2446
15844TIP3    H169023   5.356   1.037  12.296 -0.2905  0.5159  0.0423
15844TIP3    H269024   5.312   1.045  12.441  0.8276  0.2361  0.4116
15845TIP3   OH269025   1.199   3.012   1.226 -0.1504 -0.2170  0.1347
15845TIP3    H169026   1.148   2.934   1.250 -0.7084 -0.0768 -0.5792
15845TIP3    H269027   1.186   3.072   1.300  0.0289 -0.6793  0.5467
15846TIP3   OH269028   1.093   0.367   3.334  0.1027  0.0869 -0.8463
15846TIP3    H169029   1.085   0.273   3.349 -0.7044  0.1205 -1.0176
15846TIP3    H269030   1.187   0.382   3.326  0.1720 -1.0255 -2.7292
15847TIP3   OH269031   2.904   6.519  13.282 -0.3405  0.7260  0.7306
15847TIP3    H169032   2.849   6.533  13.359 -2.4361 -1.7940 -0.1915
15847TIP3    H269033   2.890   6.428  13.257  1.4080  1.0230 -1.7958
15848TIP3   OH269034   5.951   1.610   3.819 -0.3007 -0.4439  0.5150
15848TIP3    H169035   5.936   1.701   3.794 -0.2555 -1.4448 -4.1678
15848TIP3    H269036   5.864   1.575   3.835 -0.9188 -0.5016 -2.3326
15849TIP3   OH269037   1.986   3.832   3.374  0.0324  0.4598  0.1866
15849TIP3    H169038   1.956   3.852   3.286  1.1696 -0.4171 -0.4301
15849TIP3    H269039   1.945   3.899   3.430 -0.2985  1.3308 -1.0701
15850TIP3   OH269040   0.120   5.199   1.597 -0.1186  0.1891 -0.2661
15850TIP3    H169041   0.095   5.107   1.592  0.5611  0.0419 -1.2791
15850TIP3    H269042   0.039   5.246   1.615  0.0023 -0.8908  4.2862
15851TIP3   OH269043   5.165   0.694  15.572 -0.2831  0.2134  0.1059
15851TIP3    H169044   5.241   0.750  15.591 -0.6280  0.6349  0.2512
15851TIP3    H269045   5.127   0.676  15.658 -0.7683  0.5985 -0.0273
15852TIP3   OH269046   5.138   0.296  17.228  0.1062  1.0142 -0.0942
15852TIP3    H169047   5.185   0.225  17.273 -0.1576  0.8815 -0.0291
15852TIP3    H269048   5.072   0.324  17.291  1.4431  2.6345  0.6673
15853TIP3   OH269049   2.592   1.615  11.796  0.1507  0.0588 -0.0036
15853TIP3    H169050   2.502   1.585  11.806  0.3986 -0.1477  2.0554
15853TIP3    H269051   2.645   1.541  11.824  0.9927  0.2173 -1.1000
15854TIP3   OH269052   2.696   4.925  11.827 -0.0754 -0.3007  0.3357
15854TIP3    H169053   2.775   4.974  11.850 -0.4089  0.5300 -0.2100
15854TIP3    H269054   2.635   4.944  11.898 -0.1165 -0.1359  0.2565
15855TIP3   OH269055   3.677   3.594   2.090  0.0433 -0.3754 -0.3693
15855TIP3    H169056   3.759   3.633   2.120 -0.5898 -0.2688  1.4116
15855TIP3    H269057   3.610   3.654   2.124 -0.8393 -1.6879  0.2626
15856TIP3   OH269058   4.601   2.161  15.466  0.1240  0.2116  0.0432
15856TIP3    H169059   4.682   2.204  15.438  0.1821  0.2177  0.2172
15856TIP3    H269060   4.617   2.138  15.557 -0.0162  0.0779  0.0330
15857TIP3   OH269061   4.093   4.502   5.436 -0.0522 -0.5241  0.2447
15857TIP3    H169062   4.113   4.443   5.509  1.9554  0.6036  0.6722
15857TIP3    H269063   4.073   4.586   5.478 -0.2245 -0.2014 -0.4651
15858TIP3   OH269064   0.035   6.796   5.832 -0.2160 -0.5163  0.6211
15858TIP3    H169065   0.072   6.875   5.792 -0.9222 -0.7486 -0.5360
15858TIP3    H269066  -0.060   6.811   5.829 -0.3267 -1.1210  0.9942
15859TIP3   OH269067   1.134   1.579   5.171 -0.2721  0.0556 -0.0310
15859TIP3    H169068   1.043   1.565   5.146 -0.2657  1.0053 -0.6135
15859TIP3    H269069   1.132   1.582   5.267 -1.1300  1.7847 -0.0716
15860TIP3   OH269070   5.554   0.672  13.262 -0.5039  0.2937 -0.0163
15860TIP3    H169071   5.543   0.581  13.237 -1.5681  0.3600  0.1554
15860TIP3    H269072   5.549   0.721  13.180  0.1056  0.2005 -0.1124
15861TIP3   OH269073   1.725   1.190  13.191  0.6052  0.3710 -0.4190
15861TIP3    H169074   1.694   1.105  13.221  2.6869 -0.2291  0.2184
15861TIP3    H269075   1.780   1.222  13.263 -0.8205  2.6848 -0.2586
15862TIP3   OH269076   1.534   2.648  16.466  0.5377  0.0219 -0.3647
15862TIP3    H169077   1.448   2.621  16.435  0.2052  1.2630 -0.5686
15862TIP3    H269078   1.577   2.687  16.390 -0.3251  3.2024  0.6095
15863TIP3   OH269079   2.622   3.946   5.078 -0.3392 -0.3519 -0.4500
15863TIP3    H169080   2.610   3.952   5.173 -0.0604 -1.8335 -0.2969
15863TIP3    H269081   2.555   4.002   5.042 -0.7267 -0.0961  0.6200
15864TIP3   OH269082   0.107   3.668   2.858  0.9068  0.1812  0.0768
15864TIP3    H169083   0.016   3.643   2.871  0.4830  1.4769 -0.2268
15864TIP3    H269084   0.140   3.684   2.946  0.7828 -0.1190  0.1779
15865TIP3   OH269085   5.795   3.269  12.186 -0.1585  0.2452  0.0480
15865TIP3    H169086   5.786   3.180  12.221 -1.3286 -0.4264 -1.7886
15865TIP3    H269087   5.888   3.275  12.163  0.0298 -0.3380  0.6244
15866TIP3   OH269088   3.781   2.887   3.616  0.5055 -0.6931 -0.3201
15866TIP3    H169089   3.790   2.911   3.524  1.5969 -2.6053 -0.7615
15866TIP3    H269090   3.686   2.883   3.631  0.3000 -1.5904 -1.7105
15867TIP3   OH269091   6.541   4.563  13.665  0.3135  0.2358  0.3560
15867TIP3    H169092   6.623   4.515  13.654  0.1829 -0.0706  0.7082
15867TIP3    H269093   6.496   4.553  13.581  0.0981 -0.6268  0.5638
15868TIP3   OH269094   1.649   2.131   5.050 -0.2549 -0.1933 -0.1255
15868TIP3    H169095   1.594   2.056   5.025 -0.0644 -1.1560  2.0786
15868TIP3    H269096   1.729   2.121   4.998 -0.6220 -0.9580 -0.5650
15869TIP3   OH269097   3.863   3.841  11.940  0.0097 -0.0775  0.4050
15869TIP3    H169098   3.876   3.757  11.985  1.0059 -0.4960 -0.6363
15869TIP3    H269099   3.858   3.819  11.848  0.4555  1.0259  0.0960
15870TIP3   OH269100   5.208   0.515   3.603 -0.6126  0.3457 -0.0954
15870TIP3    H169101   5.168   0.452   3.543 -0.9490 -0.0229  0.5018
15870TIP3    H269102   5.144   0.523   3.675 -0.2856  0.8885  0.1379
15871TIP3   OH269103   4.962   4.342   4.434 -0.0043 -0.0502  0.5253
15871TIP3    H169104   4.897   4.410   4.414  2.5818  2.4150 -0.2680
15871TIP3    H269105   4.932   4.265   4.387 -2.0105  1.1564 -0.2956
15872TIP3   OH269106   3.454   1.966  14.061  0.0628  1.0990 -0.1585
15872TIP3    H169107   3.507   1.981  14.139  2.4876 -1.1506 -1.2325
15872TIP3    H269108   3.488   2.028  13.997 -0.5963  1.6058 -0.0280
15873TIP3   OH269109   4.401   3.565   2.312 -0.1274  0.3669 -0.3394
15873TIP3    H169110   4.383   3.498   2.245 -1.3579  1.5724 -1.2780
15873TIP3    H269111   4.347   3.540   2.386  0.6906 -0.5780 -0.0369
15874TIP3   OH269112   3.973   5.885  12.356 -0.0981 -0.0961 -0.2387
15874TIP3    H169113   3.899   5.846  12.310  1.9352 -1.0786 -2.8776
15874TIP3    H269114   3.974   5.840  12.441 -3.0946  0.7442  0.3644
15875TIP3   OH269115   5.151   0.836  12.102 -0.0894 -0.5199 -0.1429
15875TIP3    H169116   5.104   0.876  12.175 -2.2566 -2.9415 -0.0708
15875TIP3    H269117   5.109   0.871  12.024  1.1340  0.8136 -0.2367
15876TIP3   OH269118   2.307   0.863  15.242  0.0010  0.0140 -0.0282
15876TIP3    H169119   2.274   0.808  15.313  0.4749  0.2018  0.3422
15876TIP3    H269120   2.350   0.802  15.182  1.6954  0.0864  1.0376
15877TIP3   OH269121   3.950   6.374  14.650  0.2758 -0.3363  0.4119
15877TIP3    H169122   3.954   6.302  14.714 -0.5171  0.6617  1.6505
15877TIP3    H269123   3.989   6.449  14.696  3.2246 -0.4357 -1.6397
15878TIP3   OH269124   3.415   6.340  15.638  0.1388 -0.1067 -0.0076
15878TIP3    H169125   3.460   6.292  15.708  1.0264  1.1604  0.3290
15878TIP3    H269126   3.451   6.429  15.643 -2.4354  0.9969  0.3031
15879TIP3   OH269127   5.487   2.943  16.688  0.3448  0.5623 -0.1207
15879TIP3    H169128   5.452   2.858  16.714  1.9407 -0.4632 -1.1341
15879TIP3    H269129   5.526   2.979  16.767  1.6620 -0.7155 -0.1413
15880TIP3   OH269130   1.571   0.081   0.425 -0.2338  0.0486 -0.4967
15880TIP3    H169131   1.584   0.092   0.331 -0.1865  0.2403 -0.4679
15880TIP3    H269132   1.639   0.135   0.466 -0.9097  0.8172 -0.3503
15881TIP3   OH269133   1.587   0.695   6.322  0.6271 -0.6217  0.2386
15881TIP3    H169134   1.681   0.678   6.336  1.5886  1.5856 -2.5085
15881TIP3    H269135   1.560   0.743   6.401  2.8169  1.7597 -0.2913
15882TIP3   OH269136   2.783   0.947   6.343  0.1209  0.0588  0.0654
15882TIP3    H169137   2.751   1.000   6.270 -1.4056  0.8619  1.2464
15882TIP3    H269138   2.761   0.999   6.421  1.2985 -0.9646  1.1235
15883TIP3   OH269139   3.340   6.028  15.794  0.5620 -0.4942  0.2939
15883TIP3    H169140   3.419   6.078  15.777 -0.2964  1.2001  1.1096
15883TIP3    H269141   3.310   6.002  15.707  0.3971  1.4463 -0.2758
15884TIP3   OH269142   6.577   1.413  12.085 -0.4978 -0.2652 -0.1685
15884TIP3    H169143   6.559   1.319  12.097  2.6028 -1.2650 -2.0358
15884TIP3    H269144   6.502   1.445  12.035  0.4282 -3.0191 -3.7960
15885TIP3   OH269145   1.687   0.494   0.616  0.0715 -0.0011 -0.1265
15885TIP3    H169146   1.703   0.416   0.563 -0.9242  0.4790 -1.2016
15885TIP3    H269147   1.772   0.515   0.655  0.1883 -2.0160  0.7775
15886TIP3   OH269148   0.573   6.108   2.143  0.3585  0.5622  0.3877
15886TIP3    H169149   0.549   6.197   2.170  0.6049  0.6584  0.2937
15886TIP3    H269150   0.657   6.092   2.186 -0.6557 -0.4091  2.0902
15887TIP3   OH269151   0.579   4.746  14.237 -0.2472  0.8525  0.5064
15887TIP3    H169152   0.669   4.712  14.238 -0.1642  0.9462  2.6073
15887TIP3    H269153   0.551   4.740  14.329 -2.5994  0.3207 -0.1807
15888TIP3   OH269154   6.794   4.678  16.476 -0.5685  0.4375  0.3965
15888TIP3    H169155   6.869   4.664  16.533 -0.6378  0.7547  0.5670
15888TIP3    H269156   6.742   4.745  16.520 -2.0205 -1.2062  1.3381
15889TIP3   OH269157   5.904   3.404  16.254  0.4287  0.4352  0.0374
15889TIP3    H169158   5.962   3.329  16.240  1.2825  1.3793 -1.7126
15889TIP3    H269159   5.861   3.418  16.170 -1.9872  0.1298  1.1188
15890TIP3   OH269160   1.051   6.630   4.470  0.4360 -0.0519  0.1915
15890TIP3    H169161   1.061   6.590   4.557 -0.2411 -0.8200 -0.0717
15890TIP3    H269162   1.049   6.556   4.409  0.9516  0.4867 -0.4930
15891TIP3   OH269163   3.067   2.340   5.496  0.7739 -0.1523  0.4364
15891TIP3    H169164   3.078   2.382   5.581  1.9695  1.6854 -0.5549
15891TIP3    H269165   3.004   2.269   5.512  2.2216 -0.9716  3.1803
15892TIP3   OH269166   2.442   4.288   4.705  0.4152  0.6534  0.1504
15892TIP3    H169167   2.385   4.347   4.753 -0.5790 -0.4912  0.4280
15892TIP3    H269168   2.430   4.203   4.747 -0.4845 -0.4097 -2.0743
15893TIP3   OH269169   0.153   0.212   4.466  0.2936  0.0636 -0.0038
15893TIP3    H169170   0.068   0.177   4.494  0.1597 -0.3286 -0.8632
15893TIP3    H269171   0.210   0.199   4.541 -0.7393  1.6154  1.1147
15894TIP3   OH269172   6.205   1.636   5.733  0.3788 -0.1119  0.2209
15894TIP3    H169173   6.180   1.664   5.821  0.5645  1.6039 -0.2487
15894TIP3    H269174   6.300   1.642   5.732  0.3910 -0.3280 -0.0485
15895TIP3   OH269175   2.752   6.316   5.389  0.0510 -0.1779 -0.0701
15895TIP3    H169176   2.685   6.332   5.455  1.3653  0.4325  1.1658
15895TIP3    H269177   2.758   6.221   5.384 -0.2764 -0.2333  0.4623
15896TIP3   OH269178   5.824   3.052   5.526 -0.2793  0.0642 -0.0628
15896TIP3    H169179   5.827   3.044   5.430 -0.7299 -1.0191 -0.0088
15896TIP3    H269180   5.807   2.962   5.556  0.2360  0.3335  1.0535
15897TIP3   OH269181   0.812   5.465  12.601  0.4018 -0.0868  0.7519
15897TIP3    H169182   0.756   5.504  12.534  1.3455 -0.1919 -0.1183
15897TIP3    H269183   0.788   5.510  12.682 -3.5843 -2.6389  1.2380
15898TIP3   OH269184   2.609   3.346   6.240  0.0780 -0.2129 -0.1450
15898TIP3    H169185   2.628   3.435   6.270  1.2356 -0.0132 -1.3524
15898TIP3    H269186   2.518   3.349   6.210  0.1476  0.6069 -0.2991
15899TIP3   OH269187   4.746   5.233   4.592  0.3871  0.4864 -0.8493
15899TIP3    H169188   4.737   5.218   4.686 -1.3111  0.4145 -1.0014
15899TIP3    H269189   4.841   5.238   4.578  0.6843  0.0271  0.7803
15900TIP3   OH269190   1.482   4.548   0.896  0.2437  0.3224  0.6439
15900TIP3    H169191   1.414   4.577   0.956  0.6051  1.8057  0.3727
15900TIP3    H269192   1.557   4.528   0.953 -0.2318 -0.7924  0.8944
15901TIP3   OH269193   5.885   0.654  13.422 -0.2758  0.0721 -0.0724
15901TIP3    H169194   5.861   0.564  13.448 -1.4311  0.6077  0.8088
15901TIP3    H269195   5.807   0.687  13.378  0.7567  0.0820 -2.0086
15902TIP3   OH269196   4.543   5.936   2.645 -0.4846  0.1035  0.5681
15902TIP3    H169197   4.502   5.867   2.592 -0.0245  1.1220 -1.1793
15902TIP3    H269198   4.603   5.889   2.703 -1.6857 -1.1229  0.8917
15903TIP3   OH269199   2.370   0.431   1.768 -0.0570 -0.2074 -0.1877
15903TIP3    H169200   2.373   0.523   1.743 -0.3738 -0.2187 -0.2688
15903TIP3    H269201   2.372   0.432   1.864  0.3689 -0.1360 -0.1937
15904TIP3   OH269202   3.778   2.941   1.482 -0.1549  0.3498 -0.1075
15904TIP3    H169203   3.791   2.933   1.388  1.1621 -0.0401  0.0933
15904TIP3    H269204   3.827   2.868   1.520  1.1776  1.7411  0.9967
15905TIP3   OH269205   3.821   1.882  16.628 -0.0121  0.2844  0.0665
15905TIP3    H169206   3.892   1.819  16.615 -1.0729 -0.6201 -1.6195
15905TIP3    H269207   3.784   1.859  16.713  0.6577 -0.2859  0.2166
15906TIP3   OH269208   5.520   6.029  15.958  0.3796 -0.0294 -0.5102
15906TIP3    H169209   5.493   5.954  16.011  0.3271 -1.1470 -2.0516
15906TIP3    H269210   5.438   6.074  15.936  0.2097 -0.7199 -1.3017
15907TIP3   OH269211   3.866   1.622   0.995 -0.0587  0.7377 -0.2802
15907TIP3    H169212   3.832   1.597   1.081  0.1849  1.7373  0.1157
15907TIP3    H269213   3.871   1.539   0.947  0.5686  0.0305  0.9394
15908TIP3   OH269214   3.978   1.630  17.123 -0.4874 -0.0622 -0.1290
15908TIP3    H169215   3.890   1.665  17.130 -0.4187  0.3597 -1.2097
15908TIP3    H269216   3.972   1.542  17.162 -1.7625 -0.6511 -1.5345
15909TIP3   OH269217   4.624   0.382  17.067  0.0427  0.3285 -0.0869
15909TIP3    H169218   4.554   0.361  17.005  0.5189  0.4976 -0.6825
15909TIP3    H269219   4.696   0.415  17.013  0.2760  0.9681  0.5985
15910TIP3   OH269220   1.392   5.725   3.663 -0.2649  1.0040 -0.0539
15910TIP3    H169221   1.377   5.785   3.736 -2.1506 -1.9477  2.1758
15910TIP3    H269222   1.487   5.714   3.660 -0.1701  0.7220  2.4195
15911TIP3   OH269223   6.325   0.309   2.432  0.7142  0.0948  0.0425
15911TIP3    H169224   6.300   0.402   2.437  1.4978  0.3617 -0.6102
15911TIP3    H269225   6.414   0.307   2.467  0.5481 -0.4841  0.4346
15912TIP3   OH269226   5.719   4.019   1.364 -0.1012 -0.1704  0.0419
15912TIP3    H169227   5.634   4.036   1.323  0.8505  0.6284 -1.7481
15912TIP3    H269228   5.759   4.106   1.371  1.2704 -0.6982 -0.8508
15913TIP3   OH269229   1.296   0.982   3.451  0.3448  1.0357  0.1308
15913TIP3    H169230   1.334   0.967   3.364 -1.6770  3.2826 -1.2770
15913TIP3    H269231   1.353   1.048   3.490  2.3702 -1.3202  1.4290
15914TIP3   OH269232   1.681   0.152  16.251 -0.0152  0.1791  0.4944
15914TIP3    H169233   1.601   0.172  16.203  0.5015 -0.9246 -0.8942
15914TIP3    H269234   1.750   0.200  16.205  0.6496 -1.6999 -0.5899
15915TIP3   OH269235   4.548   1.488  16.445  0.0883  0.3403  0.1574
15915TIP3    H169236   4.593   1.406  16.464 -0.3889  0.5100  2.2095
15915TIP3    H269237   4.571   1.507  16.354  2.3429 -0.7136  0.4383
15916TIP3   OH269238   6.487   2.379   4.194 -0.3718  0.3699 -0.1587
15916TIP3    H169239   6.490   2.440   4.268  0.0794  0.2507 -0.0722
15916TIP3    H269240   6.576   2.344   4.189  0.0557  1.5898 -1.7856
15917TIP3   OH269241   4.493   0.573  13.343  0.5480 -0.1802  0.4833
15917TIP3    H169242   4.447   0.657  13.333  0.7019 -0.2418 -0.9093
15917TIP3    H269243   4.470   0.544  13.431 -0.5481  0.7106  0.5186
15918TIP3   OH269244   1.803   0.977   1.910 -0.6225  0.4988  0.3557
15918TIP3    H169245   1.778   1.036   1.840 -1.3343 -1.3167 -0.9924
15918TIP3    H269246   1.737   0.992   1.979  0.3788  2.6565  0.9493
15919TIP3   OH269247   5.691   0.549  15.404  0.3180 -0.4454  0.2941
15919TIP3    H169248   5.697   0.622  15.467 -0.9724 -0.2072  0.1657
15919TIP3    H269249   5.699   0.591  15.318 -1.6955 -0.2385  0.1578
15920TIP3   OH269250   0.778   0.771   3.556  0.3938  0.1980 -0.3361
15920TIP3    H169251   0.858   0.771   3.504  0.3953 -0.8699 -0.3496
15920TIP3    H269252   0.809   0.774   3.647  0.4766 -0.9658 -0.3198
15921TIP3   OH269253   0.484   1.656   2.323  0.1379  0.0315 -0.2238
15921TIP3    H169254   0.563   1.648   2.269 -0.4136 -0.6079 -0.9422
15921TIP3    H269255   0.411   1.642   2.263 -0.4913 -0.6293  0.6596
15922TIP3   OH269256   2.322   6.074  15.176 -0.0048 -0.2648 -0.4187
15922TIP3    H169257   2.314   5.979  15.176  0.4429 -0.3341 -2.1947
15922TIP3    H269258   2.412   6.091  15.150  0.7574  0.6624  2.5317
15923TIP3   OH269259   0.389   5.891   2.701  0.3928 -0.2601  0.0908
15923TIP3    H169260   0.331   5.946   2.648  0.2507  0.6018  1.1197
15923TIP3    H269261   0.475   5.901   2.660  0.4451  1.0427  0.4869
15924TIP3   OH269262   5.227   6.769  10.931 -0.2706 -0.4310  0.2675
15924TIP3    H169263   5.249   6.800  10.844  2.6691  2.2552  1.7406
15924TIP3    H269264   5.279   6.689  10.942 -0.5355 -0.6930 -0.3611
15925TIP3   OH269265   0.473   5.082  14.860  0.2511  0.6548 -0.6034
15925TIP3    H169266   0.438   5.001  14.897 -1.0899  2.4069  2.3282
15925TIP3    H269267   0.413   5.104  14.789  1.3692 -1.4721 -2.3138
15926TIP3   OH269268   0.917   4.169   5.971 -0.1467 -0.6368  0.4375
15926TIP3    H169269   0.835   4.208   6.004 -0.7961 -0.5926 -1.1457
15926TIP3    H269270   0.889   4.106   5.905  1.0892 -1.0343  0.2694
15927TIP3   OH269271   3.443   0.287  11.130  0.2893  0.0379  0.0622
15927TIP3    H169272   3.522   0.310  11.179  1.4771 -2.0033 -0.7956
15927TIP3    H269273   3.470   0.286  11.039  0.2496 -3.9261 -0.0509
15928TIP3   OH269274   3.898   1.681  15.876  0.1222  0.1182 -0.2577
15928TIP3    H169275   3.805   1.671  15.860  0.2863  1.3895 -2.4204
15928TIP3    H269276   3.939   1.610  15.825  0.3716 -0.2100  0.3830
15929TIP3   OH269277   4.399   5.425   4.705  0.1184  0.6428  0.5945
15929TIP3    H169278   4.420   5.340   4.666 -1.3937  0.7530 -0.5178
15929TIP3    H269279   4.339   5.404   4.777 -0.9779  0.8193 -0.2507
15930TIP3   OH269280   1.118   2.215  11.308  0.4132  0.1844  0.0419
15930TIP3    H169281   1.180   2.142  11.309  0.0104 -0.1537  0.6210
15930TIP3    H269282   1.164   2.284  11.259 -0.0033 -1.1279 -2.3553
15931TIP3   OH269283   1.834   5.863   0.207 -0.2937  0.3945  0.3719
15931TIP3    H169284   1.908   5.922   0.221  0.6839 -0.9582  1.1118
15931TIP3    H269285   1.765   5.919   0.171  0.9001  1.7913  0.1780
15932TIP3   OH269286   6.338   6.554  13.201 -0.4737  0.1894 -0.2858
15932TIP3    H169287   6.426   6.557  13.237  0.1314  2.4165 -1.7636
15932TIP3    H269288   6.283   6.595  13.268 -0.2505 -0.3321  0.2246
15933TIP3   OH269289   4.248   0.760  14.272  0.2761 -0.4670  0.1740
15933TIP3    H169290   4.291   0.839  14.238  2.0212 -0.4424  2.2305
15933TIP3    H269291   4.315   0.692  14.266  0.2406 -0.7540  2.2328
15934TIP3   OH269292   3.597   5.153  16.794 -0.6170 -0.4958 -0.7518
15934TIP3    H169293   3.631   5.193  16.714  0.5915  2.5755  1.1343
15934TIP3    H269294   3.516   5.201  16.812  0.1711  0.2655  0.8940
15935TIP3   OH269295   5.197   1.940  11.216  0.1025  0.2363 -0.0794
15935TIP3    H169296   5.141   1.881  11.166  1.0064  0.1343 -0.9957
15935TIP3    H269297   5.283   1.898  11.216  0.1506  0.3080  1.4635
15936TIP3   OH269298   1.026   5.318   6.605 -0.2459 -0.5025 -0.8186
15936TIP3    H169299   1.055   5.374   6.677  0.2097  0.2311 -1.5608
15936TIP3    H269300   1.003   5.378   6.535 -2.7688 -1.0864 -0.5882
15937TIP3   OH269301   3.506   3.791   3.644 -0.1707  0.3604 -1.0213
15937TIP3    H169302   3.561   3.837   3.581 -0.0060  0.2552 -0.9561
15937TIP3    H269303   3.419   3.791   3.605 -0.2161  0.9140 -0.9193
15938TIP3   OH269304   5.693   3.811  13.489 -0.2677  0.2868 -0.2241
15938TIP3    H169305   5.631   3.739  13.484 -1.0375  0.7040  2.0862
15938TIP3    H269306   5.651   3.875  13.546  2.0414  0.8317  0.9852
15939TIP3   OH269307   0.500   1.913  16.108 -0.1421 -0.4854 -0.1140
15939TIP3    H169308   0.436   1.851  16.073  0.3180 -1.1228  0.1677
15939TIP3    H269309   0.547   1.944  16.031 -1.6998  1.0634 -0.5086
15940TIP3   OH269310   0.405   3.459  15.580  0.3845 -0.1992  0.2230
15940TIP3    H169311   0.343   3.463  15.508 -0.9454 -0.2669  1.3399
15940TIP3    H269312   0.354   3.431  15.655  2.0060 -1.5426  0.9145
15941TIP3   OH269313   1.975   1.604   3.351  0.0563  0.1846  0.3941
15941TIP3    H169314   1.950   1.581   3.440 -1.6663  0.2170 -0.0528
15941TIP3    H269315   1.916   1.676   3.327 -0.1883 -0.4771 -1.1046
15942TIP3   OH269316   1.261   4.638  16.226 -0.3627 -0.4023 -0.8033
15942TIP3    H169317   1.268   4.563  16.285 -0.5356 -1.8758 -2.5391
15942TIP3    H269318   1.181   4.621  16.176  0.0172  0.5293 -1.7620
15943TIP3   OH269319   1.610   1.488  15.951  0.1916  0.5831  0.1512
15943TIP3    H169320   1.659   1.464  15.872  0.2615 -0.0298  0.3791
15943TIP3    H269321   1.562   1.409  15.975  0.6322  0.5834  1.0682
15944TIP3   OH269322   4.970   3.448   0.260 -0.8441 -0.0110 -0.1138
15944TIP3    H169323   4.918   3.515   0.305 -1.3819 -0.3250 -0.2614
15944TIP3    H269324   4.907   3.382   0.233 -0.8175  0.8865 -2.6914
15945TIP3   OH269325   0.447   4.559  14.053 -0.1607 -0.0750 -0.2917
15945TIP3    H169326   0.435   4.469  14.082  0.7949 -0.3684 -0.7878
15945TIP3    H269327   0.446   4.611  14.133 -1.4627 -0.4288 -0.0560
15946TIP3   OH269328   3.695   3.081  11.719  0.4010  0.1075  0.0553
15946TIP3    H169329   3.638   3.093  11.643 -0.3073 -0.2264  0.5231
15946TIP3    H269330   3.691   3.164  11.766 -1.4081 -0.5906  1.2170
15947TIP3   OH269331   2.615   0.828  15.916  0.4059  0.4788 -0.1367
15947TIP3    H169332   2.609   0.916  15.952  1.4235  0.8603 -0.8715
15947TIP3    H269333   2.666   0.838  15.836 -0.0953 -0.6672 -0.6143
15948TIP3   OH269334   5.518   6.163  16.262 -0.4275 -0.4636 -0.5888
15948TIP3    H169335   5.464   6.091  16.231 -0.0244 -1.3170  0.6143
15948TIP3    H269336   5.502   6.166  16.357  3.4864 -2.4731  0.3382
15949TIP3   OH269337   2.802   0.767  11.335 -0.3458  0.6393 -0.1123
15949TIP3    H169338   2.889   0.756  11.374 -0.8775  2.0608  1.6432
15949TIP3    H269339   2.805   0.853  11.294 -0.6174  0.2414 -0.9862
15950TIP3   OH269340   2.549   3.300   3.336 -0.2730 -0.4578 -0.0775
15950TIP3    H169341   2.535   3.217   3.290  2.9288 -1.1297 -0.0913
15950TIP3    H269342   2.517   3.284   3.425 -2.3380 -0.6732 -0.8123
15951TIP3   OH269343   5.274   3.631   4.282  0.0738  0.2207  0.2464
15951TIP3    H169344   5.279   3.543   4.319 -0.5531 -0.1754 -0.5651
15951TIP3    H269345   5.195   3.670   4.321 -0.3016 -0.0123 -0.2618
15952TIP3   OH269346   4.276   0.643  17.165  0.2431 -0.2304 -1.1438
15952TIP3    H169347   4.326   0.725  17.164 -1.2875  0.8312 -4.4646
15952TIP3    H269348   4.215   0.652  17.238  0.4324  1.4108 -1.1572
15953TIP3   OH269349   6.786   0.891   0.225  0.3047 -0.0623 -0.4200
15953TIP3    H169350   6.718   0.896   0.158 -1.7925 -2.0220  1.3585
15953TIP3    H269351   6.859   0.847   0.182 -1.4698 -2.4653 -1.2081
15954TIP3   OH269352   4.365   1.019  11.493  0.5546 -0.2143 -0.1243
15954TIP3    H169353   4.357   1.061  11.407 -0.1014 -0.5596 -0.2452
15954TIP3    H269354   4.301   0.947  11.490  0.2397  0.0161  0.7946
15955TIP3   OH269355   3.193   5.986   1.040  0.4329 -0.5430 -0.7949
15955TIP3    H169356   3.256   6.004   1.110  0.4982 -1.9654 -0.4580
15955TIP3    H269357   3.230   5.913   0.992 -0.7911 -1.2028 -0.7895
15956TIP3   OH269358   6.528   5.300  16.536 -0.5591 -0.3768  0.1226
15956TIP3    H169359   6.439   5.266  16.539 -0.4469 -0.7696 -0.8154
15956TIP3    H269360   6.559   5.292  16.626 -1.7011  0.4227  0.6122
15957TIP3   OH269361   4.091   0.232   3.048 -0.7219 -0.4016 -0.2002
15957TIP3    H169362   4.112   0.300   2.984 -0.0170 -0.1228  0.3076
15957TIP3    H269363   4.118   0.269   3.132 -0.5277 -1.2162  0.1096
15958TIP3   OH269364   4.149   1.402  11.413 -0.1936 -0.1747  0.3838
15958TIP3    H169365   4.170   1.495  11.421 -0.7778 -0.1112  1.2965
15958TIP3    H269366   4.055   1.396  11.429 -0.3671 -0.7981 -0.7800
15959TIP3   OH269367   5.784   1.305   4.165 -0.0251 -0.0683 -0.3686
15959TIP3    H169368   5.793   1.380   4.224  0.5676  0.4471 -1.0840
15959TIP3    H269369   5.700   1.266   4.188  0.3516 -0.0948  1.0434
15960TIP3   OH269370   0.758   5.930  12.619  0.6727 -0.0586  0.1089
15960TIP3    H169371   0.847   5.963  12.608  0.7803  0.6434  2.4102
15960TIP3    H269372   0.758   5.892  12.707 -0.6381 -2.3968 -0.8264
15961TIP3   OH269373   3.264   0.979  15.450  0.2923  0.4742  0.1506
15961TIP3    H169374   3.352   0.949  15.431 -0.0634 -1.3801  1.2586
15961TIP3    H269375   3.218   0.974  15.366  0.9267  0.3507 -0.1921
15962TIP3   OH269376   5.503   0.245  11.375 -0.5063  0.1956  0.2553
15962TIP3    H169377   5.538   0.262  11.463  1.9513 -0.9719 -0.4195
15962TIP3    H269378   5.561   0.294  11.316 -1.1818 -0.2627 -0.8141
15963TIP3   OH269379   5.394   4.313  11.267  0.5027  0.2165 -0.2586
15963TIP3    H169380   5.360   4.241  11.214 -2.9464  2.2031 -1.0379
15963TIP3    H269381   5.418   4.380  11.203  0.7669  0.9002  0.5443
15964TIP3   OH269382   5.103   5.166   1.166  0.3785 -0.3039 -0.6105
15964TIP3    H169383   5.147   5.176   1.081  0.3779 -0.1093 -0.5884
15964TIP3    H269384   5.018   5.128   1.145 -1.0441  2.8304 -1.0810
15965TIP3   OH269385   0.485   1.333  11.225 -0.2375  0.4027 -0.2271
15965TIP3    H169386   0.426   1.304  11.155  0.0784 -0.7602 -0.0320
15965TIP3    H269387   0.514   1.420  11.198  0.5167 -0.3456 -1.9701
15966TIP3   OH269388   3.321   3.697  11.383 -0.1896  0.2980 -0.5846
15966TIP3    H169389   3.394   3.706  11.444 -0.0132  0.9472 -0.8813
15966TIP3    H269390   3.257   3.761  11.414 -0.2219  0.4184 -0.9011
15967TIP3   OH269391   3.585   6.371   3.011  0.3634  0.0110 -0.1327
15967TIP3    H169392   3.522   6.432   2.972 -1.1308 -0.8104  0.8732
15967TIP3    H269393   3.559   6.285   2.977  0.4585 -0.4366  0.8844
15968TIP3   OH269394   0.370   5.825   1.757 -0.4635 -0.2683 -0.0411
15968TIP3    H169395   0.431   5.841   1.830  0.6997  0.1127 -1.0651
15968TIP3    H269396   0.366   5.730   1.750 -1.4587 -0.3499  1.2064
15969TIP3   OH269397   3.431   2.810   0.199  0.1402 -0.4221 -0.4504
15969TIP3    H169398   3.405   2.719   0.218  0.4337 -0.7589 -1.5582
15969TIP3    H269399   3.475   2.839   0.279 -1.5105 -0.6363  0.5863
15970TIP3   OH269400   3.579   3.191   1.288  0.0085 -0.1937  0.0409
15970TIP3    H169401   3.545   3.279   1.271 -2.8213 -0.8547  1.5401
15970TIP3    H269402   3.538   3.136   1.222 -0.0064 -0.6883  0.4515
15971TIP3   OH269403   5.484   1.054  17.272 -0.3269 -0.2545 -0.1249
15971TIP3    H169404   5.487   0.990  17.200  3.7513  0.0113 -0.4419
15971TIP3    H269405   5.515   1.006  17.348 -0.9586  0.4109  0.5632
15972TIP3   OH269406   3.719   3.312   3.540  0.4573 -0.8281  0.7175
15972TIP3    H169407   3.702   3.231   3.588 -0.2712 -1.1069  0.0058
15972TIP3    H269408   3.712   3.381   3.606  0.8698 -1.3217  1.2819
15973TIP3   OH269409   2.861   3.237   4.568 -0.3784  0.2410 -0.3525
15973TIP3    H169410   2.830   3.323   4.542 -1.0323  0.5808  1.3679
15973TIP3    H269411   2.954   3.249   4.588 -0.2675  0.3430 -0.9322
15974TIP3   OH269412   1.284   5.126   4.426  0.1957 -0.1858 -0.1840
15974TIP3    H169413   1.226   5.194   4.392 -0.7916 -0.0937  1.5433
15974TIP3    H269414   1.234   5.085   4.497  2.5998  0.6034  2.1456
15975TIP3   OH269415   1.349   2.702  13.436 -0.0359  0.1577 -0.1489
15975TIP3    H169416   1.416   2.728  13.500  0.1569 -1.7676  0.4971
15975TIP3    H269417   1.296   2.637  13.482  1.4436 -3.0213 -2.5161
15976TIP3   OH269418   0.418   0.662   1.336  0.3201  0.3222  0.3417
15976TIP3    H169419   0.349   0.604   1.368  0.3044  0.6191  0.8625
15976TIP3    H269420   0.491   0.604   1.316  0.7316  0.2274  2.0076
15977TIP3   OH269421   5.245   6.335  15.685  0.2944  0.1750 -0.2675
15977TIP3    H169422   5.275   6.427  15.685 -0.8554  0.5651  0.4078
15977TIP3    H269423   5.245   6.311  15.592  2.7581  0.1032 -0.3235
15978TIP3   OH269424   4.298   2.931  11.275 -0.1780 -0.3368  0.2112
15978TIP3    H169425   4.231   2.869  11.304  0.6936 -1.4976 -0.1741
15978TIP3    H269426   4.358   2.937  11.350  0.5210 -1.1197 -0.2580
15979TIP3   OH269427   0.168   4.476   4.953 -0.3503  0.1294  0.0946
15979TIP3    H169428   0.244   4.521   4.915 -0.7607  0.5634 -0.2238
15979TIP3    H269429   0.198   4.386   4.966  0.1131  0.2137 -0.3471
15980TIP3   OH269430   0.408   5.353   2.922 -0.7413  0.3349 -0.4131
15980TIP3    H169431   0.328   5.378   2.968  0.6390  2.1394  1.1461
15980TIP3    H269432   0.416   5.259   2.938 -2.6062  0.0630 -0.7803
15981TIP3   OH269433   5.187   0.049  12.737 -0.2048 -0.5762 -0.1736
15981TIP3    H169434   5.153  -0.040  12.733 -0.9115 -0.3548  0.5183
15981TIP3    H269435   5.121   0.103  12.693  0.8374 -0.5362 -1.7631
15982TIP3   OH269436   2.944   1.279   6.147 -0.1453 -0.7894 -0.5336
15982TIP3    H169437   3.024   1.239   6.115 -0.2188  0.6439 -2.7171
15982TIP3    H269438   2.874   1.231   6.103 -0.3427 -0.2534 -0.8215
15983TIP3   OH269439   1.868   4.001  11.412  0.1651 -0.2113  0.1343
15983TIP3    H169440   1.903   4.060  11.479  1.4701  0.7576 -1.3562
15983TIP3    H269441   1.943   3.980  11.357 -1.0716 -0.1807 -1.6307
15984TIP3   OH269442   1.490   0.772  16.537 -0.3452 -0.0361 -0.6173
15984TIP3    H169443   1.532   0.812  16.613  2.7188 -2.8643 -0.5971
15984TIP3    H269444   1.550   0.788  16.465 -0.5846 -1.7759 -1.2544
15985TIP3   OH269445   6.088   0.387   4.764 -0.3751  0.4146  0.3224
15985TIP3    H169446   6.017   0.377   4.701  0.1278  0.2800 -0.2256
15985TIP3    H269447   6.167   0.397   4.711  0.0165  0.6103  0.9238
15986TIP3   OH269448   4.533   3.482   4.835  0.0595  0.2094 -0.0337
15986TIP3    H169449   4.601   3.426   4.796 -0.5206 -0.0723 -0.6702
15986TIP3    H269450   4.451   3.449   4.798 -0.3689  0.9602  0.2220
15987TIP3   OH269451   5.154   4.031  14.081  0.0509  0.1773 -0.2142
15987TIP3    H169452   5.210   3.991  14.148 -0.4865 -0.4957 -0.1616
15987TIP3    H269453   5.067   4.031  14.120 -0.0458  0.9775 -0.4054
15988TIP3   OH269454   1.867   2.503   3.353 -0.6274  0.3201 -0.4275
15988TIP3    H169455   1.936   2.437   3.349 -0.9051 -0.0059  0.0182
15988TIP3    H269456   1.910   2.584   3.328  0.0976  0.2578  0.5626
15989TIP3   OH269457   1.491   5.968  16.288  0.4158 -0.1609  0.0567
15989TIP3    H169458   1.522   6.043  16.339  0.0242  0.2738 -0.3448
15989TIP3    H269459   1.549   5.965  16.212 -1.9222  2.1763 -2.0288
15990TIP3   OH269460   4.610   0.433  14.846  0.1134 -0.2947  0.0417
15990TIP3    H169461   4.572   0.521  14.836 -0.9881 -0.8075 -0.4038
15990TIP3    H269462   4.556   0.391  14.912 -0.0259 -1.0043 -0.5124
15991TIP3   OH269463   0.097   3.325   4.692  0.0609  0.1092  0.1359
15991TIP3    H169464   0.075   3.418   4.683 -0.3980  0.1947  1.8938
15991TIP3    H269465   0.014   3.283   4.714  0.5645 -0.4506  1.0085
15992TIP3   OH269466   3.047   1.750  13.537  0.3395 -0.6176 -0.3759
15992TIP3    H169467   3.018   1.740  13.628 -0.3718 -1.2996 -0.6636
15992TIP3    H269468   2.970   1.785  13.491  1.0113  0.6888 -0.5251
15993TIP3   OH269469   1.802   6.545   1.536  0.2457  0.2455 -0.4249
15993TIP3    H169470   1.771   6.457   1.517  1.8251 -0.2284 -0.9090
15993TIP3    H269471   1.729   6.586   1.583 -0.8309 -1.0280 -0.9189
15994TIP3   OH269472   2.263   4.175  17.156  0.4140  0.3960 -0.3266
15994TIP3    H169473   2.201   4.142  17.221  0.5045  0.0209 -0.4277
15994TIP3    H269474   2.208   4.198  17.081  0.2110  1.6184  0.1741
15995TIP3   OH269475   2.822   3.674   5.914  0.4523  0.5622 -0.2129
15995TIP3    H169476   2.793   3.645   6.001  1.4950  1.2539  0.3949
15995TIP3    H269477   2.807   3.598   5.857  0.1730 -0.0592  0.6632
15996TIP3   OH269478   2.944   3.787  11.501  0.3541  0.4578 -0.9200
15996TIP3    H169479   3.030   3.809  11.536 -0.1570  1.7583 -0.4253
15996TIP3    H269480   2.886   3.785  11.577 -0.1045 -0.1839 -1.2744
15997TIP3   OH269481   4.217   5.426   1.543  0.2485  0.0920 -0.1928
15997TIP3    H169482   4.256   5.392   1.462  0.6305 -3.7539  1.3757
15997TIP3    H269483   4.286   5.416   1.608 -0.6258  1.4076  0.9831
15998TIP3   OH269484   2.242   3.348   2.611 -0.3960 -0.2160  0.7143
15998TIP3    H169485   2.335   3.346   2.634  0.7577  0.8252 -3.0177
15998TIP3    H269486   2.219   3.256   2.596  0.0313 -0.4755  1.5953
15999TIP3   OH269487   1.271   6.253  16.603 -0.4066 -0.7172  0.1220
15999TIP3    H169488   1.306   6.201  16.675 -2.1509 -0.1397  1.4692
15999TIP3    H269489   1.185   6.282  16.635  0.5946  3.3206 -0.3659
16000TIP3   OH269490   2.200   2.545  15.423  0.0906 -0.1432  0.1270
16000TIP3    H169491   2.168   2.538  15.513 -1.2228 -2.4132 -0.4495
16000TIP3    H269492   2.262   2.473  15.413  0.2540  0.1038 -0.7765
16001TIP3   OH269493   1.529   4.752  11.989 -0.4021 -0.1152 -0.3323
16001TIP3    H169494   1.578   4.822  12.032  1.0530 -1.0795 -0.3449
16001TIP3    H269495   1.449   4.794  11.958 -2.1777  0.4486  4.2017
16002TIP3   OH269496   5.400   2.036  12.930  0.3749 -0.0602  0.2730
16002TIP3    H169497   5.334   2.096  12.896  0.9814  0.9227  0.7940
16002TIP3    H269498   5.408   2.059  13.022 -0.8853 -2.3446  1.0418
16003TIP3   OH269499   4.475   1.749  16.170 -0.2373  0.1285 -0.0427
16003TIP3    H169500   4.402   1.799  16.131  1.8664  3.5262 -0.0565
16003TIP3    H269501   4.490   1.791  16.254  0.9358 -1.3218  0.5042
16004TIP3   OH269502   4.659   4.203   2.038  0.2788 -0.4862 -0.0347
16004TIP3    H169503   4.613   4.152   1.971  0.9186 -0.6541 -0.3569
16004TIP3    H269504   4.720   4.140   2.078  2.0005  0.2875 -1.3054
16005TIP3   OH269505   3.844   5.392  12.816  0.3415  0.2825  0.4038
16005TIP3    H169506   3.862   5.479  12.852  1.3877 -0.4371  1.6921
16005TIP3    H269507   3.908   5.335  12.859  0.2146 -0.9901 -1.0359
16006TIP3   OH269508   0.145   0.603  16.235  0.2388  0.5833 -0.0080
16006TIP3    H169509   0.197   0.650  16.301  1.2308  0.4933 -0.6925
16006TIP3    H269510   0.177   0.638  16.152 -1.0133  0.7127 -0.4451
16007TIP3   OH269511   4.127   5.709   6.019 -0.1122  0.2522 -0.8345
16007TIP3    H169512   4.077   5.665   5.951 -0.0485  0.4615 -1.0165
16007TIP3    H269513   4.158   5.638   6.076 -0.6662  0.1276 -0.6852
16008TIP3   OH269514   3.802   4.555  17.291 -0.5657 -0.5303  0.1748
16008TIP3    H169515   3.820   4.597  17.207  0.1738 -1.6968 -0.2752
16008TIP3    H269516   3.710   4.577  17.309 -0.7889 -0.3884 -1.0067
16009TIP3   OH269517   6.603   4.604   0.345 -0.0142  0.0689  0.0341
16009TIP3    H169518   6.529   4.664   0.343  0.6751  0.9275 -0.4200
16009TIP3    H269519   6.573   4.530   0.397 -0.9020  0.7811  0.5497
16010TIP3   OH269520   1.780   0.568  17.105  0.1425  0.2914 -0.2570
16010TIP3    H169521   1.844   0.499  17.090  0.5039  0.5770 -0.0558
16010TIP3    H269522   1.751   0.594  17.018 -0.0080 -0.1210 -0.3323
16011TIP3   OH269523   0.247   6.266  16.361 -0.1923  0.4441 -0.2967
16011TIP3    H169524   0.165   6.297  16.400  0.5603 -0.5267  2.2931
16011TIP3    H269525   0.277   6.197  16.421  2.1416  0.2702 -1.5666
16012TIP3   OH269526   5.886   0.948  12.446 -0.3183 -0.4756  0.0366
16012TIP3    H169527   5.892   0.866  12.496 -0.3689 -0.8534 -0.5772
16012TIP3    H269528   5.795   0.951  12.416 -1.1613  1.2077  2.4188
16013TIP3   OH269529   1.742   5.923   2.312 -0.2409 -0.1063 -0.7794
16013TIP3    H169530   1.720   6.016   2.320  1.2780  0.4736 -2.5389
16013TIP3    H269531   1.727   5.904   2.219  1.6153 -0.9872 -0.9382
16014TIP3   OH269532   3.201   5.210   5.491 -0.1962  0.3769  0.2662
16014TIP3    H169533   3.242   5.139   5.443  0.3978 -1.0899  2.7794
16014TIP3    H269534   3.136   5.167   5.547 -0.2689  1.8604  1.3904
16015TIP3   OH269535   0.691   2.957  17.136  0.0417 -0.1804  0.2113
16015TIP3    H169536   0.615   2.918  17.179 -0.6113  0.9579  0.1275
16015TIP3    H269537   0.726   3.019  17.200  0.3837 -0.0613 -0.0874
16016TIP3   OH269538   1.817   1.048   4.662  0.0835 -0.0815  0.2375
16016TIP3    H169539   1.822   1.142   4.675 -0.0836 -0.0207 -0.1303
16016TIP3    H269540   1.739   1.035   4.608  0.4518 -0.3705 -0.2345
16017TIP3   OH269541   5.604   2.559  13.629  0.1366  0.4339 -0.0879
16017TIP3    H169542   5.617   2.642  13.674 -0.6167  1.0092 -0.8929
16017TIP3    H269543   5.693   2.527  13.612  0.4532  1.4031 -0.3530
16018TIP3   OH269544   4.822   0.926  16.337  0.4662 -0.1340  0.2371
16018TIP3    H169545   4.875   1.000  16.308  2.4827 -0.9784  1.5593
16018TIP3    H269546   4.734   0.963  16.347  0.3346  0.9906 -3.3949
16019TIP3   OH269547   4.132   5.582  13.928 -0.2701  0.2960  0.0682
16019TIP3    H169548   4.111   5.511  13.867  1.3780 -0.1836  0.0035
16019TIP3    H269549   4.207   5.626  13.888 -0.0816  0.8790  1.0415
16020TIP3   OH269550   3.874   1.572  12.060 -0.2977 -0.1968 -0.3695
16020TIP3    H169551   3.810   1.508  12.028  1.3272 -2.0893  0.0313
16020TIP3    H269552   3.895   1.543  12.149 -1.1015  2.1750  0.6717
16021TIP3   OH269553   1.819   0.972  11.716 -0.0005  0.6440 -0.3545
16021TIP3    H169554   1.835   0.886  11.677  0.5950  0.7355 -0.3155
16021TIP3    H269555   1.836   1.034  11.645  0.8908  0.8000 -0.0079
16022TIP3   OH269556   3.389   1.850  12.862  0.5775  0.2419 -0.1221
16022TIP3    H169557   3.342   1.864  12.944  0.8495 -2.8534  0.6941
16022TIP3    H269558   3.319   1.841  12.796  0.3106  1.3086 -0.0065
16023TIP3   OH269559   0.818   4.639  14.334 -0.1520  0.0810  0.1037
16023TIP3    H169560   0.863   4.560  14.303  0.8711  0.2239  1.1497
16023TIP3    H269561   0.780   4.613  14.418  0.0275  0.6400  0.3629
16024TIP3   OH269562   0.380   5.310   4.397 -0.0480  0.2465  0.4273
16024TIP3    H169563   0.387   5.377   4.329 -0.1423  0.2653  0.4364
16024TIP3    H269564   0.469   5.277   4.407 -0.3521 -1.1987 -1.1804
16025TIP3   OH269565   1.644   1.591   4.483  0.6282  0.4539 -0.6099
16025TIP3    H169566   1.702   1.622   4.552  0.2374  2.6733 -1.2030
16025TIP3    H269567   1.686   1.619   4.402 -0.4086  0.5611 -1.1324
16026TIP3   OH269568   1.459   3.117   3.709  0.1293  0.3833  0.5229
16026TIP3    H169569   1.489   3.205   3.685 -1.5512  0.9588  0.4143
16026TIP3    H269570   1.382   3.133   3.763 -0.3357 -1.0425  0.3030
16027TIP3   OH269571   6.059   1.623   2.925  0.1961 -0.6432 -0.0279
16027TIP3    H169572   6.109   1.666   2.994  0.5452  1.1370 -1.2960
16027TIP3    H269573   6.081   1.530   2.932  4.6272  0.0881 -1.1429
16028TIP3   OH269574   1.394   6.680   2.229 -0.2634  0.2454  0.6787
16028TIP3    H169575   1.408   6.753   2.168 -0.3067 -0.3519 -0.0540
16028TIP3    H269576   1.412   6.602   2.178  1.5014 -0.2246  1.9211
16029TIP3   OH269577   6.208   6.214  15.383  0.0840  0.1981  0.2523
16029TIP3    H169578   6.171   6.185  15.299  1.3477 -0.1233 -0.2225
16029TIP3    H269579   6.155   6.289  15.408 -0.9657 -0.3221 -0.3208
16030TIP3   OH269580   1.780   0.680  16.844  0.0499 -0.2091  0.1841
16030TIP3    H169581   1.740   0.756  16.802 -1.5385 -0.7436  0.6798
16030TIP3    H269582   1.871   0.707  16.860 -0.1330  1.1056 -0.7873
16031TIP3   OH269583   0.388   4.913   3.204 -0.8138  0.1229  0.3324
16031TIP3    H169584   0.408   4.821   3.184  0.5920  0.0692  1.8636
16031TIP3    H269585   0.300   4.925   3.168  0.0205 -1.0023 -2.4009
16032TIP3   OH269586   3.366   4.933  15.361  0.6857  0.2145  0.1865
16032TIP3    H169587   3.385   5.020  15.395 -0.4655  0.7514 -0.4912
16032TIP3    H269588   3.445   4.882  15.380  2.1289  1.8769 -0.9941
16033TIP3   OH269589   1.807   2.550  12.175  0.2375  0.3650 -0.1319
16033TIP3    H169590   1.824   2.491  12.101  0.2708 -0.0457  0.1952
16033TIP3    H269591   1.712   2.563  12.174 -0.1237 -1.6316  1.1985
16034TIP3   OH269592   3.332   5.916  15.555 -0.1323 -0.0045 -0.1964
16034TIP3    H169593   3.311   5.823  15.564  1.6742 -0.7677 -2.8650
16034TIP3    H269594   3.393   5.921  15.482  0.0098  3.2973 -0.0321
16035TIP3   OH269595   4.700   3.088   5.843  0.0454  0.4504  0.1552
16035TIP3    H169596   4.619   3.085   5.793  0.1972  3.0037 -0.3824
16035TIP3    H269597   4.680   3.042   5.925 -0.4084 -3.2592 -1.8287
16036TIP3   OH269598   3.056   5.193   1.669 -0.2392 -0.5119  0.6832
16036TIP3    H169599   3.043   5.222   1.578  1.9295 -0.2714  0.3831
16036TIP3    H269600   3.117   5.258   1.705 -1.2921 -0.4490  2.4227
16037TIP3   OH269601   2.545   1.482  16.584 -0.1011  0.0260  0.0097
16037TIP3    H169602   2.634   1.508  16.561  0.2400  0.7252  1.9520
16037TIP3    H269603   2.555   1.395  16.624 -0.4142 -0.2602 -0.5192
16038TIP3   OH269604   3.094   4.170  11.498 -0.1607 -0.0492  0.0895
16038TIP3    H169605   3.165   4.112  11.525  0.7208  1.5618  1.3749
16038TIP3    H269606   3.120   4.198  11.410  0.4506 -0.0168  0.2706
16039TIP3   OH269607   4.152   3.810  13.063  0.0448  0.3201  0.3464
16039TIP3    H169608   4.071   3.779  13.024 -0.0911  0.5674  0.4327
16039TIP3    H269609   4.183   3.737  13.117 -0.7397  0.6452  1.2663
16040TIP3   OH269610   3.674   5.578   4.026  0.4115 -0.2559  0.2196
16040TIP3    H169611   3.587   5.599   3.994  0.3575 -0.1564  0.4336
16040TIP3    H269612   3.733   5.629   3.971  0.3883 -0.9735 -0.4953
16041TIP3   OH269613   4.471   0.177   3.584 -0.2359  0.1120 -0.2902
16041TIP3    H169614   4.487   0.174   3.678  0.6890  0.4289 -0.4275
16041TIP3    H269615   4.513   0.098   3.550  1.7240  1.2902 -0.7415
16042TIP3   OH269616   1.881   5.057  16.087 -0.1649  0.1726 -0.0300
16042TIP3    H169617   1.821   4.992  16.124  0.3512  0.6381  1.7060
16042TIP3    H269618   1.967   5.015  16.089  0.3165  1.1488  1.8817
16043TIP3   OH269619   5.754   2.764   2.555  0.1230  0.0511  0.5519
16043TIP3    H169620   5.800   2.846   2.571  1.3017 -0.2802 -0.9158
16043TIP3    H269621   5.810   2.697   2.595 -0.4497 -0.1173  1.0877
16044TIP3   OH269622   6.338   6.274   3.533 -0.5082 -0.0309  0.3116
16044TIP3    H169623   6.414   6.328   3.551  1.5319 -2.4624 -0.4391
16044TIP3    H269624   6.343   6.255   3.439  0.3324 -3.3993  0.9000
16045TIP3   OH269625   6.629   5.969   3.583 -0.0288  0.1653 -0.1934
16045TIP3    H169626   6.672   6.055   3.580  0.0396  0.1727  0.5673
16045TIP3    H269627   6.672   5.918   3.515  1.0218  0.2549  0.3699
16046TIP3   OH269628   3.331   6.082   0.471  0.5279 -0.0144 -0.3199
16046TIP3    H169629   3.306   6.105   0.382  1.3596  0.4296 -0.4518
16046TIP3    H269630   3.331   5.986   0.472 -1.2193 -0.0406 -0.2717
16047TIP3   OH269631   5.247   2.559  14.637  0.0422 -0.3132  0.1202
16047TIP3    H169632   5.264   2.525  14.549  0.6048  0.0149  0.1047
16047TIP3    H269633   5.196   2.489  14.679 -0.7168 -0.2380 -0.6430
16048TIP3   OH269634   0.883   2.002  15.523  0.0231 -0.7308  0.1733
16048TIP3    H169635   0.919   2.089  15.505 -2.1498  0.3351  0.6479
16048TIP3    H269636   0.899   1.988  15.616 -0.6227 -0.2920  0.3646
16049TIP3   OH269637   0.136   2.081   5.989 -0.2572 -0.5879  0.5304
16049TIP3    H169638   0.062   2.061   6.047  0.8515 -0.0630  2.2003
16049TIP3    H269639   0.211   2.039   6.031  0.3778 -1.3205 -1.2719
16050TIP3   OH269640   1.026   2.607  13.134 -0.1217 -0.1966  0.6933
16050TIP3    H169641   0.989   2.695  13.135  1.6439  0.7974 -3.1191
16050TIP3    H269642   1.117   2.619  13.159  0.2844 -0.7873 -0.4414
16051TIP3   OH269643   4.259   6.192  14.229  0.2546 -0.6429 -0.0791
16051TIP3    H169644   4.349   6.177  14.199  0.3614  0.0780 -0.1402
16051TIP3    H269645   4.234   6.276  14.190 -0.0630 -0.3100  0.8060
16052TIP3   OH269646   1.027   1.245   2.016 -0.1648 -0.6978 -0.1183
16052TIP3    H169647   1.066   1.192   2.086  1.6543 -2.5120 -2.3637
16052TIP3    H269648   0.948   1.197   1.991 -1.8344  0.8945  1.7625
16053TIP3   OH269649   2.096   4.247   0.772  0.3053 -0.0107  0.4119
16053TIP3    H169650   2.004   4.232   0.751  0.0653 -0.1752  1.5104
16053TIP3    H269651   2.144   4.182   0.721 -0.0207  1.2225 -1.5481
16054TIP3   OH269652   5.427   0.798  11.333 -0.5115 -0.3582  0.4681
16054TIP3    H169653   5.502   0.738  11.336  0.3031  0.2809 -2.9612
16054TIP3    H269654   5.466   0.885  11.334 -1.3965  0.0437  0.8999
16055TIP3   OH269655   0.626   1.021   4.404 -0.1987  0.1740 -1.2097
16055TIP3    H169656   0.626   0.929   4.431  1.5443  0.0784 -1.4335
16055TIP3    H269657   0.555   1.061   4.456 -1.0545 -1.2881 -1.1961
16056TIP3   OH269658   3.573   1.937  16.499 -0.3421  0.1945 -0.6796
16056TIP3    H169659   3.663   1.909  16.518 -0.7756 -0.4241  0.5292
16056TIP3    H269660   3.583   2.026  16.465  0.7917 -0.2002 -1.4288
16057TIP3   OH269661   1.340   5.851  12.666  0.0181  0.1745  0.6744
16057TIP3    H169662   1.355   5.757  12.656 -3.3355 -0.5376  1.1377
16057TIP3    H269663   1.372   5.871  12.754  1.4784 -0.2972  0.2835
16058TIP3   OH269664   4.080   2.142  12.678 -0.2916  0.0898 -0.2246
16058TIP3    H169665   3.994   2.153  12.638 -1.5884 -3.3000  1.2687
16058TIP3    H269666   4.125   2.078  12.624  0.0808 -0.4129  0.6493
16059TIP3   OH269667   6.482   3.424  13.659 -0.1643  0.3931  0.5848
16059TIP3    H169668   6.545   3.366  13.618 -0.5105 -0.2566  0.9465
16059TIP3    H269669   6.431   3.367  13.717 -3.6696 -0.0204 -2.4541
16060TIP3   OH269670   0.645   6.722  14.794 -0.0410  0.1061  0.0802
16060TIP3    H169671   0.555   6.704  14.768 -0.8035 -0.5647  2.9184
16060TIP3    H269672   0.644   6.813  14.824  0.0195 -0.1573  0.8942
16061TIP3   OH269673   1.760   2.239  16.982 -0.6660  0.0579  0.5006
16061TIP3    H169674   1.770   2.297  16.906 -0.5611 -0.1950  0.3183
16061TIP3    H269675   1.695   2.282  17.037 -0.3059  0.5378  0.5505
16062TIP3   OH269676   1.062   1.534   3.242  0.7955 -0.2832 -0.0407
16062TIP3    H169677   1.032   1.625   3.239  2.8026  0.4181 -0.4172
16062TIP3    H269678   1.062   1.505   3.151 -0.5675 -0.9473  0.1494
16063TIP3   OH269679   2.489   0.719   2.051 -0.5056  0.2312 -0.2553
16063TIP3    H169680   2.457   0.798   2.096 -0.3233 -0.1246  0.5192
16063TIP3    H269681   2.582   0.716   2.072 -1.0749 -1.9436  2.5307
16064TIP3   OH269682   4.591   1.170   3.824  0.2061 -0.2632 -0.0354
16064TIP3    H169683   4.565   1.137   3.738  0.5964  1.3230 -0.7999
16064TIP3    H269684   4.648   1.244   3.804 -1.1402  1.2699  1.5709
16065TIP3   OH269685   0.083   5.352  16.474  0.4310  0.6106 -0.3403
16065TIP3    H169686   0.104   5.445  16.466 -2.3332  1.3081 -0.3578
16065TIP3    H269687   0.042   5.329  16.390  1.0778 -0.6543 -0.3353
16066TIP3   OH269688   4.981   2.385   2.817  0.3885 -0.4145  0.4661
16066TIP3    H169689   5.060   2.432   2.846 -0.6221  1.3749  0.4962
16066TIP3    H269690   4.930   2.373   2.897 -0.4121  0.5545  0.1134
16067TIP3   OH269691   5.760   3.377   6.623 -0.6926  0.4121 -0.0939
16067TIP3    H169692   5.761   3.303   6.684  0.7517 -0.1921 -0.7998
16067TIP3    H269693   5.720   3.341   6.543 -2.0038  1.0225  0.2750
16068TIP3   OH269694   5.416   5.997  13.399 -0.2141  0.1541 -0.2958
16068TIP3    H169695   5.477   5.925  13.387 -2.0950 -1.2677 -2.1092
16068TIP3    H269696   5.378   5.983  13.485  0.9107  0.2178  0.2285
16069TIP3   OH269697   2.713   5.692   4.087 -0.3398 -0.1628  0.1784
16069TIP3    H169698   2.784   5.649   4.136 -0.1460  1.3008  1.2588
16069TIP3    H269699   2.737   5.784   4.087 -0.3331 -0.0983 -2.7944
16070TIP3   OH269700   6.272   6.027   0.420  0.2596  0.2274 -0.5733
16070TIP3    H169701   6.322   5.948   0.399 -2.0903 -1.1007 -1.6668
16070TIP3    H269702   6.335   6.099   0.411  2.3234 -1.4384 -0.1681
16071TIP3   OH269703   5.947   3.048   5.922 -0.0091 -0.1445 -0.0255
16071TIP3    H169704   5.870   3.007   5.882  1.0011 -0.6364 -1.5086
16071TIP3    H269705   5.995   3.086   5.849  1.0764  0.3268  0.9027
16072TIP3   OH269706   6.452   4.329  16.530 -0.2014  0.2195  0.1601
16072TIP3    H169707   6.407   4.404  16.568  0.5259  1.2716 -0.9767
16072TIP3    H269708   6.485   4.361  16.446 -0.7327 -1.6640 -0.8119
16073TIP3   OH269709   5.217   2.972  14.000 -0.4341  0.0826 -0.3215
16073TIP3    H169710   5.276   2.901  14.025  0.8472  1.2636  0.1451
16073TIP3    H269711   5.130   2.942  14.028  0.3264 -0.5587  1.5171
16074TIP3   OH269712   0.495   2.499   1.035  0.4535 -0.0115  0.4744
16074TIP3    H169713   0.577   2.465   1.000 -0.1476 -0.7332 -0.2780
16074TIP3    H269714   0.428   2.469   0.974 -0.3809  0.5417  1.0858
16075TIP3   OH269715   1.163   2.629   5.575 -0.1925 -0.1163 -0.2958
16075TIP3    H169716   1.134   2.539   5.564 -0.0939 -0.0907 -0.8216
16075TIP3    H269717   1.244   2.635   5.524 -1.0019  0.6612 -1.5654
16076TIP3   OH269718   0.262   1.932   1.926  0.3627 -0.0411  0.0146
16076TIP3    H169719   0.205   1.860   1.900  0.3300  0.5171 -1.5159
16076TIP3    H269720   0.215   2.011   1.899  1.4900  0.4596 -0.5145
16077TIP3   OH269721   6.183   0.775   1.419  0.3856 -0.6899 -0.3891
16077TIP3    H169722   6.108   0.796   1.475  1.9909  0.1017  1.5943
16077TIP3    H269723   6.176   0.837   1.346 -1.7579 -1.7349 -1.1674
16078TIP3   OH269724   2.407   3.318   6.571  0.8245  0.4860 -0.3214
16078TIP3    H169725   2.454   3.272   6.640 -1.2435 -1.5004 -0.0881
16078TIP3    H269726   2.440   3.407   6.573  0.6859  0.5835  3.4117
16079TIP3   OH269727   3.968   1.095   4.614  0.1426  0.0733 -0.2387
16079TIP3    H169728   3.899   1.038   4.580  0.6112 -1.3881  1.1548
16079TIP3    H269729   4.049   1.062   4.575  0.4905 -0.6681  1.0283
16080TIP3   OH269730   2.093   1.771   4.581 -0.1891  0.5650 -0.2729
16080TIP3    H169731   2.165   1.720   4.545 -0.2249  0.2943  0.0325
16080TIP3    H269732   2.130   1.859   4.592 -0.2911  0.7445 -1.3048
16081TIP3   OH269733   4.439   0.797   6.432 -0.0673 -0.2413  0.4885
16081TIP3    H169734   4.522   0.804   6.478  0.1349 -1.0178  0.2580
16081TIP3    H269735   4.440   0.870   6.370  1.7148 -1.8025 -1.4617
16082TIP3   OH269736   0.421   1.925  13.444 -0.2385 -0.2195  0.5494
16082TIP3    H169737   0.415   1.973  13.362 -3.5053  0.7412  1.2087
16082TIP3    H269738   0.465   1.985  13.504 -1.0471  0.5380  0.4047
16083TIP3   OH269739   5.391   3.405  15.152  0.9856  0.0603 -0.6077
16083TIP3    H169740   5.381   3.454  15.234  0.1280 -0.1558 -0.5757
16083TIP3    H269741   5.369   3.469  15.084 -1.4006 -0.5717 -0.5110
16084TIP3   OH269742   3.917   1.744   1.628  0.1576 -0.1786  0.3108
16084TIP3    H169743   3.910   1.834   1.659 -1.0726  0.2985 -1.2438
16084TIP3    H269744   4.002   1.739   1.586 -0.1651  0.5341 -0.4272
16085TIP3   OH269745   5.513   3.830  15.747 -0.3357  0.0123 -0.1148
16085TIP3    H169746   5.587   3.870  15.792  0.0163 -1.6787  0.9061
16085TIP3    H269747   5.439   3.843  15.806 -0.5793  0.5588 -0.5319
16086TIP3   OH269748   6.541   3.724   2.075 -0.7312  0.2860  0.9167
16086TIP3    H169749   6.585   3.778   2.141 -0.0205  0.3666  0.3863
16086TIP3    H269750   6.609   3.665   2.043 -0.6986  1.1291 -0.6754
16087TIP3   OH269751   5.296   1.283   1.865 -0.0833 -0.1826 -0.1631
16087TIP3    H169752   5.366   1.220   1.852  0.9338  0.8973 -0.0860
16087TIP3    H269753   5.290   1.293   1.960  1.3936  1.5637 -0.2104
16088TIP3   OH269754   2.957   1.670   3.015  0.3314 -0.5146 -0.6999
16088TIP3    H169755   2.867   1.698   2.997 -0.4809 -1.2130  1.7838
16088TIP3    H269756   3.006   1.751   3.024 -0.4494 -0.0628 -0.3963
16089TIP3   OH269757   3.656   1.920  12.526 -0.2358 -0.3404 -0.1911
16089TIP3    H169758   3.567   1.957  12.527 -0.2352  0.2293 -4.0871
16089TIP3    H269759   3.713   1.997  12.534  0.0535 -0.7700  3.0647
16090TIP3   OH269760   0.520   2.586  10.853 -0.0470  0.2321  0.5478
16090TIP3    H169761   0.499   2.500  10.816 -0.8722 -0.0961  1.7405
16090TIP3    H269762   0.586   2.622  10.793  1.2660 -1.7488  0.7236
16091TIP3   OH269763   4.541   2.705   1.320  0.6283  0.2989  0.2277
16091TIP3    H169764   4.610   2.654   1.362  0.0320  1.3383  2.6643
16091TIP3    H269765   4.462   2.651   1.330  0.7952 -0.2710 -1.3042
16092TIP3   OH269766   6.579   6.065  15.881 -0.5166 -0.4671 -0.3397
16092TIP3    H169767   6.529   6.087  15.959  0.0681 -1.3902  0.3115
16092TIP3    H269768   6.669   6.092  15.900 -0.3515 -0.7771 -0.6528
16093TIP3   OH269769   2.929   1.559  12.293 -0.5426 -0.3410 -0.3854
16093TIP3    H169770   2.957   1.634  12.240 -2.0628 -1.5703 -3.1903
16093TIP3    H269771   2.834   1.567  12.298 -0.4450  0.1321  3.0455
16094TIP3   OH269772   5.358   2.515  15.733  0.4194 -0.8706  0.2795
16094TIP3    H169773   5.302   2.544  15.804 -0.9379 -1.4103 -0.5378
16094TIP3    H269774   5.427   2.464  15.776 -1.7261 -3.3251  1.1080
16095TIP3   OH269775   3.347   0.859   4.018  0.3136 -0.5235 -0.0653
16095TIP3    H169776   3.304   0.944   4.017  0.0219 -0.6191  1.3976
16095TIP3    H269777   3.431   0.873   3.974  0.6050  0.7170  0.8433
16096TIP3   OH269778   3.672   2.307  10.756  1.0312  0.5829  0.4417
16096TIP3    H169779   3.766   2.303  10.741  1.2926  2.1800  1.4006
16096TIP3    H269780   3.635   2.243  10.695  2.8039 -0.9747  0.9057
16097TIP3   OH269781   5.855   0.744   3.492 -0.2842 -0.1328  0.3386
16097TIP3    H169782   5.884   0.761   3.582  1.1224 -1.2786  0.1396
16097TIP3    H269783   5.762   0.765   3.492 -0.1056  0.8157  1.8103
16098TIP3   OH269784   0.633   3.210   0.588 -0.6229  0.1684 -0.0702
16098TIP3    H169785   0.540   3.185   0.590 -0.2036 -1.4778  0.0215
16098TIP3    H269786   0.668   3.178   0.671 -0.2405  1.9982  0.5121
16099TIP3   OH269787   2.513   5.193   1.978  0.0809  0.1597 -0.9011
16099TIP3    H169788   2.477   5.179   1.890 -0.9238  2.7747 -1.0064
16099TIP3    H269789   2.601   5.154   1.974 -0.1241 -0.2334 -2.9072
16100TIP3   OH269790   1.109   2.033   5.797 -0.5528  0.4183 -0.3138
16100TIP3    H169791   1.155   1.997   5.721  1.7680  1.8452  0.3131
16100TIP3    H269792   1.104   1.959   5.858  0.6059  0.0954 -0.5728
16101TIP3   OH269793   0.139   5.126  16.883 -0.0673  0.3003 -0.3121
16101TIP3    H169794   0.080   5.201  16.895  0.2065  0.3019  1.2399
16101TIP3    H269795   0.082   5.049  16.892  0.3655  0.2166  3.5841
16102TIP3   OH269796   4.203   1.007   3.121 -0.3951 -0.0967  0.2558
16102TIP3    H169797   4.145   1.052   3.182 -0.5603 -0.1916  0.1692
16102TIP3    H269798   4.234   1.076   3.062 -2.4429 -0.4094 -1.3236
16103TIP3   OH269799   4.700   6.748  14.620 -0.3318 -0.2753 -0.1705
16103TIP3    H169800   4.781   6.778  14.662 -0.2238 -0.5846 -0.1566
16103TIP3    H269801   4.728   6.717  14.534 -0.2329 -1.6218  0.3339
16104TIP3   OH269802   2.452   4.223  14.090 -0.2836 -0.2848 -0.7579
16104TIP3    H169803   2.444   4.141  14.041  0.8309 -0.7165 -0.2466
16104TIP3    H269804   2.505   4.279  14.033 -0.1344 -0.3084 -0.6441
16105TIP3   OH269805   3.362   1.102  15.181 -0.4477 -0.0015  0.3041
16105TIP3    H169806   3.298   1.035  15.158 -0.5436 -0.2819  1.3224
16105TIP3    H269807   3.313   1.163  15.237 -0.2082  0.5901 -0.1311
16106TIP3   OH269808   3.669   2.520   0.487 -0.4542  0.2262  0.1720
16106TIP3    H169809   3.682   2.609   0.521  1.6090  0.3431 -0.7719
16106TIP3    H269810   3.747   2.473   0.514 -1.3576 -1.2271  0.3296
16107TIP3   OH269811   4.352   2.036  13.442  0.0521  0.0537  0.3880
16107TIP3    H169812   4.435   2.056  13.485  0.9544 -0.7054 -0.9279
16107TIP3    H269813   4.369   2.050  13.348 -1.7363  1.2771  0.1876
16108TIP3   OH269814   1.189   5.264  13.221 -0.0584  0.0984  0.0047
16108TIP3    H169815   1.246   5.190  13.197 -0.5941 -0.2328 -0.2683
16108TIP3    H269816   1.101   5.227  13.221 -0.4284  0.9546 -1.0281
16109TIP3   OH269817   0.043   6.085  16.056  0.1373 -0.2563  0.1491
16109TIP3    H169818   0.117   6.074  16.115 -0.6964  1.5153  1.6273
16109TIP3    H269819  -0.034   6.077  16.112 -0.7698 -0.6435 -1.0948
16110TIP3   OH269820   0.323   3.738  12.369  0.1561  0.0474  0.2524
16110TIP3    H169821   0.271   3.676  12.420  0.1286  0.2925  0.5232
16110TIP3    H269822   0.374   3.683  12.310  0.2729 -0.2437  0.6218
16111TIP3   OH269823   4.601   2.507   3.204  0.3480  0.4062  0.0979
16111TIP3    H169824   4.636   2.507   3.293 -0.6545  1.6223  0.5243
16111TIP3    H269825   4.583   2.600   3.185 -1.7581 -0.0540 -0.4164
16112TIP3   OH269826   0.042   5.470   5.621 -0.1759  0.7285  0.7822
16112TIP3    H169827  -0.043   5.428   5.634 -0.7748  0.7741 -2.3329
16112TIP3    H269828   0.021   5.555   5.580  1.3082  1.5345  1.6042
16113TIP3   OH269829   0.023   2.751   6.000 -0.0539  0.0254  0.2560
16113TIP3    H169830  -0.028   2.747   6.080 -1.1220 -0.5416 -0.4365
16113TIP3    H269831   0.066   2.837   6.003  0.3353 -0.1910  1.6576
16114TIP3   OH269832   0.731   3.695  11.733 -0.6019  0.0339 -0.2731
16114TIP3    H169833   0.672   3.621  11.750 -0.9890  0.3635 -0.1798
16114TIP3    H269834   0.753   3.728  11.820 -1.6354  0.9738 -0.3568
16115TIP3   OH269835   2.358   3.807   0.486 -0.4403  0.5913 -0.5608
16115TIP3    H169836   2.397   3.719   0.489  0.2740  0.7801 -2.7258
16115TIP3    H269837   2.303   3.806   0.408 -0.9919  1.8647 -0.2119
16116TIP3   OH269838   3.604   1.371  17.200  0.0906 -0.0264 -0.3922
16116TIP3    H169839   3.589   1.389  17.107  1.1510 -2.0101 -0.9887
16116TIP3    H269840   3.524   1.327  17.229 -0.8389  1.8624  0.0487
16117TIP3   OH269841   1.053   2.671   3.324 -0.0331 -0.2771  0.1605
16117TIP3    H169842   1.140   2.677   3.365  0.0805 -0.3354 -0.0718
16117TIP3    H269843   1.003   2.741   3.365  0.7754  1.2423 -1.3180
16118TIP3   OH269844   4.099   4.737   1.290  0.0345 -0.7116  0.6776
16118TIP3    H169845   4.167   4.805   1.288 -0.4341 -0.2465 -0.9736
16118TIP3    H269846   4.147   4.656   1.305  1.3634 -0.7217 -2.7131
16119TIP3   OH269847   1.492   3.581   1.495  0.6799  0.5121  0.1523
16119TIP3    H169848   1.494   3.492   1.528  2.0355  0.5943  0.3470
16119TIP3    H269849   1.513   3.636   1.570  0.5207  0.9523 -0.1174
16120TIP3   OH269850   4.601   6.444   0.769  0.2755  0.0952  0.3395
16120TIP3    H169851   4.548   6.367   0.748  0.3062  0.2050 -0.1388
16120TIP3    H269852   4.628   6.479   0.684  0.6570  0.3605  0.5672
16121TIP3   OH269853   1.822   3.357   3.523 -0.2059  0.2959 -0.2133
16121TIP3    H169854   1.878   3.426   3.487 -0.1946  1.5771  2.0602
16121TIP3    H269855   1.763   3.334   3.451  1.7494  0.4676 -1.9804
16122TIP3   OH269856   0.938   2.711  15.514  0.1488 -0.1080  0.3164
16122TIP3    H169857   1.019   2.757  15.494  0.9336 -0.0173  3.3051
16122TIP3    H269858   0.908   2.749  15.596 -1.2086 -2.3331  0.9320
16123TIP3   OH269859   4.833   0.639   1.554 -0.7613 -0.4939 -0.2808
16123TIP3    H169860   4.752   0.689   1.559 -1.5061 -1.7052  0.4240
16123TIP3    H269861   4.866   0.654   1.465 -1.8129 -0.0497 -0.6048
16124TIP3   OH269862   4.391   2.117   2.449  0.1624  0.6895 -0.2078
16124TIP3    H169863   4.465   2.095   2.393 -0.4197 -0.8528 -0.4070
16124TIP3    H269864   4.405   2.065   2.529 -1.1416 -0.3084 -0.6050
16125TIP3   OH269865   1.917   6.540  15.565  0.1820 -0.1622 -0.1922
16125TIP3    H169866   1.974   6.487  15.511  0.9341  0.4314  0.0076
16125TIP3    H269867   1.855   6.478  15.603  1.3447 -0.9692  0.4131
16126TIP3   OH269868   5.577   1.074   3.623 -0.0010 -0.4166  0.3109
16126TIP3    H169869   5.625   1.068   3.706 -1.7946 -2.5488  1.2774
16126TIP3    H269870   5.489   1.044   3.644 -1.4991  2.1600 -1.6829
16127TIP3   OH269871   3.426   2.742   4.588  0.8157 -0.0830  0.4144
16127TIP3    H169872   3.503   2.734   4.645  1.6313  1.4034 -0.3806
16127TIP3    H269873   3.358   2.777   4.645  0.8080 -1.0971  1.0574
16128TIP3   OH269874   4.758   1.511  15.011  0.5676  0.3972  0.1779
16128TIP3    H169875   4.797   1.587  14.969  1.1933  0.0388  0.0884
16128TIP3    H269876   4.665   1.531  15.017  0.5730  0.7461 -0.7478
16129TIP3   OH269877   3.976   5.603   5.535 -0.0223  0.0650 -0.2495
16129TIP3    H169878   3.998   5.563   5.451  2.1491  0.3980  0.0928
16129TIP3    H269879   4.052   5.585   5.590 -0.3837  1.8498  0.9111
16130TIP3   OH269880   5.258   0.352  12.774  0.0562  0.2263  0.5157
16130TIP3    H169881   5.236   0.381  12.685  0.4499  1.0916  0.6938
16130TIP3    H269882   5.232   0.259  12.776 -2.3898  0.8260  0.3043
16131TIP3   OH269883   2.020   2.859  11.451  0.7438 -0.1541 -0.0548
16131TIP3    H169884   2.023   2.914  11.372  1.1744  0.8829  0.6578
16131TIP3    H269885   2.022   2.922  11.523  1.4317 -1.1304  0.7950
16132TIP3   OH269886   4.001   3.818   5.840  0.1813  0.1621  0.4667
16132TIP3    H169887   4.057   3.828   5.762  0.1868  2.3991  0.7136
16132TIP3    H269888   3.918   3.784   5.805 -1.1155  4.3971 -1.1840
16133TIP3   OH269889   4.418   6.452  11.153  0.0196 -0.1281 -0.5892
16133TIP3    H169890   4.389   6.498  11.074 -1.2885  0.4493  0.2091
16133TIP3    H269891   4.476   6.515  11.197  0.3085 -0.2428 -0.7999
16134TIP3   OH269892   0.707   3.349   3.774  0.4451 -0.2036  0.2925
16134TIP3    H169893   0.801   3.366   3.782 -0.1056  3.8655  0.5010
16134TIP3    H269894   0.674   3.356   3.864 -0.4355  2.3697 -0.1478
16135TIP3   OH269895   1.412   5.674   1.078 -0.0010  0.3157 -0.1616
16135TIP3    H169896   1.483   5.669   1.142  1.3020 -1.4333 -1.6626
16135TIP3    H269897   1.345   5.615   1.111 -0.4024  1.2531  0.7725
16136TIP3   OH269898   1.757   5.673   1.816 -0.4111 -0.3140 -0.1045
16136TIP3    H169899   1.706   5.701   1.740  0.4912  0.3923 -0.4579
16136TIP3    H269900   1.713   5.715   1.890 -0.0514  0.7121 -0.4575
16137TIP3   OH269901   6.794   0.341  14.380  0.6478  0.6961  0.0709
16137TIP3    H169902   6.874   0.296  14.408  0.0451  0.7289  1.9735
16137TIP3    H269903   6.741   0.272  14.339 -0.4996 -0.6330  3.4210
16138TIP3   OH269904   0.418   3.730   2.737  0.3627  0.0854 -0.2304
16138TIP3    H169905   0.416   3.725   2.833 -0.5891  1.0473 -0.1829
16138TIP3    H269906   0.327   3.745   2.712  0.7920  1.2116 -1.2054
16139TIP3   OH269907   4.006   3.186  12.008  0.2679  0.1295  0.5351
16139TIP3    H169908   4.041   3.098  11.994  0.8012  0.1032  1.8462
16139TIP3    H269909   3.948   3.202  11.933  1.0812 -0.8610 -0.3268
16140TIP3   OH269910   2.899   0.121  13.914 -0.4627  0.0147  0.0333
16140TIP3    H169911   2.823   0.144  13.967 -1.5426  0.2101 -1.5324
16140TIP3    H269912   2.916   0.029  13.933  0.9607  0.7277  2.7987
16141TIP3   OH269913   3.662   2.904  12.963 -0.3559 -0.0426  0.5290
16141TIP3    H169914   3.654   2.822  12.915  0.6340  0.0943  0.1092
16141TIP3    H269915   3.675   2.971  12.895  1.7871  0.0670  0.9601
16142TIP3   OH269916   6.400   2.248   2.541 -0.3644  0.0611  0.4934
16142TIP3    H169917   6.492   2.272   2.526 -1.0840  1.3157 -2.8314
16142TIP3    H269918   6.397   2.154   2.526  0.4903 -0.1469  1.4937
16143TIP3   OH269919   6.145   0.202  15.359  0.2853 -0.2818  0.4359
16143TIP3    H169920   6.173   0.291  15.383 -0.1505 -0.3590  1.2732
16143TIP3    H269921   6.214   0.146  15.393  0.6079 -0.2592 -0.1780
16144TIP3   OH269922   4.590   1.627   4.826  0.0535 -0.1650  0.6424
16144TIP3    H169923   4.623   1.560   4.885 -1.0501  1.3996  3.1960
16144TIP3    H269924   4.637   1.612   4.744  1.5802 -2.5164  1.8360
16145TIP3   OH269925   2.286   1.502  15.896  0.2473 -0.0242 -0.2575
16145TIP3    H169926   2.342   1.426  15.881  0.3715  0.4052 -2.2051
16145TIP3    H269927   2.198   1.471  15.875  0.0093 -0.1530  0.8779
16146TIP3   OH269928   2.183   4.422   2.066  0.9467  0.2308 -0.5481
16146TIP3    H169929   2.171   4.487   1.997 -1.0848  0.9815  0.4241
16146TIP3    H269930   2.253   4.456   2.120  2.8891 -0.5856 -2.4105
16147TIP3   OH269931   3.323   4.740   0.028 -0.7161  0.4140  0.5067
16147TIP3    H169932   3.337   4.828   0.062  0.2643  0.3163  0.3776
16147TIP3    H269933   3.397   4.689   0.063 -0.6481 -0.0887 -0.3429
16148TIP3   OH269934   4.466   1.920   5.379 -0.1592 -0.3502 -0.0019
16148TIP3    H169935   4.515   1.910   5.461  0.6142 -0.3180 -0.4515
16148TIP3    H269936   4.392   1.975   5.403  0.4603  0.2764  0.5325
16149TIP3   OH269937   4.029   1.423  15.788 -0.7080 -0.8569 -0.4342
16149TIP3    H169938   4.105   1.454  15.737  0.3368  0.2601  1.6629
16149TIP3    H269939   4.000   1.345  15.742  2.4991 -2.0706 -0.6845
16150TIP3   OH269940   5.773   5.143  12.081 -0.4404 -0.4375 -0.2007
16150TIP3    H169941   5.789   5.199  12.157  0.9938 -0.3776 -0.5205
16150TIP3    H269942   5.780   5.054  12.115 -1.5317 -0.4405  0.0644
16151TIP3   OH269943   6.676   5.188  13.069  0.0204  0.1264 -0.3137
16151TIP3    H169944   6.734   5.187  13.145  0.8789  2.5348 -0.8729
16151TIP3    H269945   6.734   5.180  12.994 -0.2382  2.9188 -0.9004
16152TIP3   OH269946   6.101   0.218   3.727  0.1160  0.3913 -0.8819
16152TIP3    H169947   6.144   0.289   3.680  0.1545  1.5145  0.7964
16152TIP3    H269948   6.159   0.143   3.716  1.0000  1.1045 -1.1462
16153TIP3   OH269949   2.532   3.599   5.667  0.6129  0.1613  0.4271
16153TIP3    H169950   2.508   3.516   5.707  0.9952 -0.9713 -1.5541
16153TIP3    H269951   2.628   3.597   5.661  0.6705  1.0048  0.8674
16154TIP3   OH269952   2.090   6.286   3.448 -0.0572 -0.3580  0.1914
16154TIP3    H169953   2.005   6.262   3.485 -1.1611  1.5324 -1.0010
16154TIP3    H269954   2.070   6.322   3.362  2.1661 -1.7266 -0.9769
16155TIP3   OH269955   0.570   3.458   0.494 -0.1216  0.4374 -0.3130
16155TIP3    H169956   0.578   3.364   0.504 -2.8063  0.0608 -0.8083
16155TIP3    H269957   0.581   3.493   0.582  1.7325 -0.2194 -0.2580
16156TIP3   OH269958   2.824   3.082   1.433 -0.2999  0.0904  0.2404
16156TIP3    H169959   2.904   3.040   1.465  0.3271  0.3229 -0.9441
16156TIP3    H269960   2.814   3.160   1.488  0.7191  0.4520 -0.0653
16157TIP3   OH269961   3.438   2.637   5.160  0.2657 -0.1834 -0.3558
16157TIP3    H169962   3.354   2.637   5.115 -0.2335 -1.3229  0.5442
16157TIP3    H269963   3.493   2.578   5.108  0.0466 -0.5924 -0.1280
16158TIP3   OH269964   0.947   4.470  14.960  0.5411 -0.0868 -0.6159
16158TIP3    H169965   0.911   4.530  14.895 -0.1920  0.1290 -0.0150
16158TIP3    H269966   1.033   4.505  14.980 -0.4870  1.7270  0.9292
16159TIP3   OH269967   2.916   5.397  14.706  1.0135 -0.3729  0.8548
16159TIP3    H169968   2.910   5.464  14.638 -0.2393 -1.9987 -0.7651
16159TIP3    H269969   2.889   5.441  14.787  1.3440  1.3298  0.0716
16160TIP3   OH269970   5.484   2.323  12.427  0.2960  0.4428  0.1314
16160TIP3    H169971   5.505   2.416  12.437  0.5613  0.3905  0.0727
16160TIP3    H269972   5.389   2.318  12.439  0.1487  0.8500 -0.7724
16161TIP3   OH269973   6.536   3.224  14.224  0.0026 -0.4295  0.3936
16161TIP3    H169974   6.615   3.258  14.180  0.3893 -0.6009  0.9445
16161TIP3    H269975   6.466   3.281  14.193  0.3919 -0.0890  0.1122
16162TIP3   OH269976   5.979   2.246   5.612 -0.1829  0.5596 -0.7838
16162TIP3    H169977   6.057   2.286   5.576 -0.8982  2.5881 -0.2035
16162TIP3    H269978   5.986   2.260   5.707 -0.6822 -0.3216 -0.5982
16163TIP3   OH269979   4.755   4.010  12.683 -0.8484 -0.1383  0.1946
16163TIP3    H169980   4.706   4.005  12.765 -1.8676 -0.3974 -0.4139
16163TIP3    H269981   4.704   3.957  12.621  0.5475 -0.9759 -0.2926
16164TIP3   OH269982   4.926   3.119  12.055 -0.2028  0.2007 -0.4114
16164TIP3    H169983   4.924   3.214  12.052  0.1616  0.2153 -0.1966
16164TIP3    H269984   4.942   3.093  11.964 -2.2966  0.2795 -0.8410
16165TIP3   OH269985   3.220   3.108  12.772 -0.3867 -0.0800 -0.1268
16165TIP3    H169986   3.313   3.119  12.794 -0.1994  0.2055 -1.0125
16165TIP3    H269987   3.174   3.163  12.836  0.0568 -0.1870  0.2922
16166TIP3   OH269988   3.215   4.038   3.958 -0.3459  0.1388 -0.2345
16166TIP3    H169989   3.288   3.977   3.962 -0.2821  0.2992  1.4006
16166TIP3    H269990   3.212   4.079   4.044 -1.0870  1.6375 -0.9268
16167TIP3   OH269991   2.153   2.069   0.105 -0.7776 -0.5857 -0.4781
16167TIP3    H169992   2.203   2.149   0.088 -0.7842 -0.5541 -0.3516
16167TIP3    H269993   2.184   2.038   0.190 -0.8226 -0.6812 -0.4956
16168TIP3   OH269994   2.245   4.449   1.244 -0.2654  0.1746  0.1232
16168TIP3    H169995   2.271   4.368   1.287 -0.8149 -0.1024 -0.0561
16168TIP3    H269996   2.210   4.421   1.159  2.1424  0.8150 -1.1754
16169TIP3   OH269997   1.744   0.806   5.326 -0.8197 -0.2494  0.1649
16169TIP3    H169998   1.818   0.785   5.270 -1.6857 -1.2706 -0.6581
16169TIP3    H269999   1.720   0.722   5.365 -0.4365  0.3859  1.8489
16170TIP3   OH270000   3.686   2.082  14.780  0.2203 -0.2449  0.2943
16170TIP3    H170001   3.671   2.167  14.738  0.1332 -0.0229  0.7665
16170TIP3    H270002   3.670   2.018  14.711  1.9312  0.1671 -0.5234
16171TIP3   OH270003   1.112   4.373  15.283  0.0214 -0.5840 -0.5072
16171TIP3    H170004   1.182   4.374  15.349 -0.2596 -2.2272 -0.1519
16171TIP3    H270005   1.063   4.454  15.299 -0.9203 -1.5789  2.3246
16172TIP3   OH270006   5.400   2.423   1.513  0.2587  0.2463  0.1307
16172TIP3    H170007   5.333   2.396   1.449 -0.6555 -0.6719  1.4261
16172TIP3    H270008   5.419   2.514   1.490  1.0183 -0.4428 -2.3227
16173TIP3   OH270009   0.686   4.943   1.673 -0.1394  0.3205  0.2146
16173TIP3    H170010   0.769   4.960   1.717 -1.1130  1.8888  1.5511
16173TIP3    H270011   0.629   4.908   1.741 -0.8043  0.0118 -0.4893
16174TIP3   OH270012   2.595   6.692   5.129  0.2430 -0.5464  0.9942
16174TIP3    H170013   2.595   6.778   5.087  0.5809 -0.4036  1.2805
16174TIP3    H270014   2.594   6.630   5.056  3.4212 -0.3484  0.6502
16175TIP3   OH270015   1.109   4.406  12.759 -0.2934 -0.5886  0.0318
16175TIP3    H170016   1.074   4.495  12.768 -0.0869 -0.5096  0.0535
16175TIP3    H270017   1.037   4.355  12.722 -1.1677 -0.8962  2.0230
16176TIP3   OH270018   4.411   5.768   1.603 -0.1682 -0.1510 -0.0932
16176TIP3    H170019   4.442   5.847   1.559  2.0674 -1.1096 -0.3633
16176TIP3    H270020   4.482   5.745   1.663 -1.1282 -1.5107  0.5720
16177TIP3   OH270021   4.360   2.534  16.684  0.2050  0.0132  0.5158
16177TIP3    H170022   4.318   2.615  16.714 -1.0573 -0.4111 -0.0730
16177TIP3    H270023   4.361   2.541  16.589 -0.7560 -1.0652  0.4127
16178TIP3   OH270024   4.153   1.284   1.441 -0.4198 -0.1686  0.0153
16178TIP3    H170025   4.101   1.218   1.488 -2.3708  1.1868 -0.1341
16178TIP3    H270026   4.094   1.317   1.373  0.3233  2.0364  0.3668
16179TIP3   OH270027   1.217   4.303   3.566  0.1994  0.2846  0.5225
16179TIP3    H170028   1.174   4.238   3.621  0.4346 -0.7230 -0.4349
16179TIP3    H270029   1.214   4.384   3.617 -1.5207 -0.0839  1.0942
16180TIP3   OH270030   6.235   4.314   1.029  0.1112  0.4326 -0.4137
16180TIP3    H170031   6.274   4.243   1.080  1.7759  1.5055 -0.0886
16180TIP3    H270032   6.177   4.359   1.090 -0.6806 -0.4096 -0.5239
16181TIP3   OH270033   3.341   5.460   3.214 -0.2229 -0.4111  0.2932
16181TIP3    H170034   3.318   5.523   3.282 -1.8159  0.5991 -1.0834
16181TIP3    H270035   3.315   5.375   3.250 -1.2098  0.1309  0.9080
16182TIP3   OH270036   1.678   1.468   0.965 -0.3374 -0.8714 -0.4494
16182TIP3    H170037   1.762   1.497   1.002 -0.9171 -0.3415  0.4818
16182TIP3    H270038   1.613   1.495   1.029 -0.9810 -3.9793  0.3536
16183TIP3   OH270039   4.348   4.861  15.929  0.3157 -0.0784  0.2822
16183TIP3    H170040   4.381   4.949  15.945 -0.1721 -0.0138  0.9841
16183TIP3    H270041   4.424   4.804  15.939 -0.0041 -0.1228  3.5813
16184TIP3   OH270042   5.857   2.957  17.141 -0.3085  0.1282  0.6775
16184TIP3    H170043   5.917   2.948  17.066 -1.1571 -0.3240  0.0369
16184TIP3    H270044   5.863   2.872  17.186 -1.0258 -0.1887  0.1834
16185TIP3   OH270045   6.167   6.787  15.626  0.0571 -0.2012  0.1418
16185TIP3    H170046   6.181   6.711  15.570  0.5629  2.5319 -3.9098
16185TIP3    H270047   6.247   6.839  15.615 -0.6662  1.3883  1.9154
16186TIP3   OH270048   4.441   6.118   3.473  0.0358 -0.6954  0.4947
16186TIP3    H170049   4.413   6.189   3.530 -1.0936 -1.1548  0.5362
16186TIP3    H270050   4.400   6.136   3.388  0.5184 -0.7900  0.2350
16187TIP3   OH270051   2.112   4.709   6.524  0.1915  0.3644 -0.1504
16187TIP3    H170052   2.023   4.743   6.519  0.5359  1.4282  0.5855
16187TIP3    H270053   2.161   4.775   6.573  0.5839 -1.8316  2.6895
16188TIP3   OH270054   0.725   1.813  14.266  0.5408  0.1300 -0.0110
16188TIP3    H170055   0.673   1.769  14.333 -0.6946  0.0948 -0.9657
16188TIP3    H270056   0.734   1.748  14.196  1.0742  0.4669 -0.2669
16189TIP3   OH270057   1.195   3.152   1.474 -0.0207 -0.2647 -0.0481
16189TIP3    H170058   1.178   3.229   1.529 -0.7478  0.3457 -1.0952
16189TIP3    H270059   1.262   3.103   1.521  1.2281  1.5387  0.1354
16190TIP3   OH270060   3.802   1.487  14.546  0.0645 -0.6111 -0.0438
16190TIP3    H170061   3.749   1.408  14.556 -1.3878  0.4043  0.5394
16190TIP3    H270062   3.758   1.553  14.599  0.4661  0.9689 -1.5651
16191TIP3   OH270063   6.437   2.912   2.651  0.3773 -0.1237 -0.0064
16191TIP3    H170064   6.499   2.918   2.578 -0.7832 -0.5152 -1.0429
16191TIP3    H270065   6.353   2.938   2.614  0.0231  1.0944  1.5546
16192TIP3   OH270066   2.663   5.641  16.636  1.0661  0.6288  0.9407
16192TIP3    H170067   2.732   5.704  16.657 -0.1579  2.3966 -0.0693
16192TIP3    H270068   2.626   5.672  16.554 -1.9143  0.6837  2.1647
16193TIP3   OH270069   4.652   6.370   1.094  0.3816 -0.1760 -0.3370
16193TIP3    H170070   4.717   6.348   1.026 -1.9402 -1.5151 -2.2763
16193TIP3    H270071   4.681   6.455   1.127  2.0194  0.2366 -2.5395
16194TIP3   OH270072   1.062   0.888   1.627 -0.3897  0.0525  0.3305
16194TIP3    H170073   1.087   0.797   1.644 -0.1579  0.0318 -0.1152
16194TIP3    H270074   0.973   0.895   1.661 -1.1860 -0.8939 -1.4318
16195TIP3   OH270075   5.893   3.214   4.176 -0.0983 -0.2666  0.3210
16195TIP3    H170076   5.827   3.231   4.108 -1.4437  0.1245  1.6784
16195TIP3    H270077   5.957   3.285   4.164  0.9895 -1.5017 -1.9855
16196TIP3   OH270078   4.818   2.842  13.870  0.1423  0.1364 -0.1532
16196TIP3    H170079   4.813   2.930  13.832 -0.4183 -0.2287 -0.9365
16196TIP3    H270080   4.733   2.803  13.853  0.6559 -0.8631 -0.5346
16197TIP3   OH270081   6.481   3.427   3.832 -0.1964  0.5048  0.4381
16197TIP3    H170082   6.418   3.460   3.769  0.1857  2.5578  1.0642
16197TIP3    H270083   6.442   3.444   3.918  0.5713  0.4861  0.8066
16198TIP3   OH270084   3.700   6.319   4.721  0.2063 -0.5576  0.4982
16198TIP3    H170085   3.730   6.250   4.781  1.5413 -1.0215 -0.6634
16198TIP3    H270086   3.760   6.314   4.647 -0.4487  1.0523 -0.1739
16199TIP3   OH270087   1.632   2.754   3.604 -0.6295  0.3044 -0.4549
16199TIP3    H170088   1.652   2.787   3.691  2.0043  0.1674 -0.9158
16199TIP3    H270089   1.669   2.665   3.603 -2.3856 -0.4602 -1.1070
16200TIP3   OH270090   5.344   0.866   3.938  0.2381 -0.0935  0.6672
16200TIP3    H170091   5.334   0.855   4.032  0.4281 -1.0031  0.5962
16200TIP3    H270092   5.420   0.812   3.916 -1.3675 -2.0992 -0.3769
16201TIP3   OH270093   2.772   3.436   4.130  0.6074  0.3822  0.3227
16201TIP3    H170094   2.682   3.424   4.100  1.2448 -1.6719 -0.9580
16201TIP3    H270095   2.771   3.519   4.179 -1.7728  0.8004 -0.3497
16202TIP3   OH270096   0.087   1.236  16.280  0.4525 -0.4755 -0.1335
16202TIP3    H170097   0.178   1.257  16.262 -0.0571  2.4398  0.1234
16202TIP3    H270098   0.058   1.186  16.204  1.8823 -0.1306 -0.9422
16203TIP3   OH270099   6.187   5.336   3.641 -0.0930 -0.1418 -0.0231
16203TIP3    H170100   6.278   5.331   3.609  0.2482 -0.7809  1.0097
16203TIP3    H270101   6.135   5.349   3.562  0.9694  1.1006 -0.5627
16204TIP3   OH270102   0.395   4.437  12.270 -0.5262  0.2919 -0.2071
16204TIP3    H170103   0.305   4.458  12.298 -0.1702  1.1071  0.3737
16204TIP3    H270104   0.450   4.471  12.341  0.1089 -3.5026  1.3267
16205TIP3   OH270105   1.748   1.269   2.354 -0.1099  0.2419  0.3102
16205TIP3    H170106   1.768   1.307   2.269 -0.2434  0.6231  0.4468
16205TIP3    H270107   1.796   1.324   2.416 -0.8915  0.6398  0.5705
16206TIP3   OH270108   2.165   2.645   0.022  0.0989  0.5246 -0.0916
16206TIP3    H170109   2.076   2.611   0.007 -0.8925  2.5053  0.9721
16206TIP3    H270110   2.210   2.631  -0.062 -1.7349  0.9776 -1.2076
16207TIP3   OH270111   0.526   1.548  15.553  0.3690 -0.3158  0.2287
16207TIP3    H170112   0.498   1.468  15.508  1.6138 -0.0974 -0.9699
16207TIP3    H270113   0.450   1.606  15.547  0.6073 -0.1374 -2.0104
16208TIP3   OH270114   4.536   4.812   6.166  0.5292 -0.0321 -0.3989
16208TIP3    H170115   4.630   4.831   6.167  0.9268 -1.6608  2.1948
16208TIP3    H270116   4.501   4.864   6.238 -0.0961 -1.3098  0.2441
16209TIP3   OH270117   5.506   1.717  10.870 -0.5647 -0.4887 -0.3130
16209TIP3    H170118   5.554   1.642  10.907  1.2500 -0.2058 -1.9219
16209TIP3    H270119   5.568   1.790  10.874 -0.6062 -0.2071 -2.8765
16210TIP3   OH270120   4.317   2.328  11.748 -0.4511  0.3766 -0.9454
16210TIP3    H170121   4.249   2.318  11.815  0.4144  0.4352 -0.0233
16210TIP3    H270122   4.383   2.384  11.790  0.0618  0.5061 -1.8988
16211TIP3   OH270123   3.342   0.066  16.637  0.5110 -0.1016 -0.1692
16211TIP3    H170124   3.370  -0.022  16.612  0.7150  0.4703 -2.1004
16211TIP3    H270125   3.398   0.125  16.586 -0.0588  1.1508  0.5977
16212TIP3   OH270126   1.846   4.718  17.017 -0.0062 -0.1003  0.0495
16212TIP3    H170127   1.900   4.639  17.016 -0.9214 -0.7661  1.1885
16212TIP3    H270128   1.815   4.727  16.927 -0.8563 -1.7335  0.1457
16213TIP3   OH270129   3.317   0.360  13.664  0.5613 -0.1915 -0.6000
16213TIP3    H170130   3.249   0.314  13.714 -1.0795  1.8803 -0.7739
16213TIP3    H270131   3.392   0.363  13.723  0.3586 -2.0448 -0.1811
16214TIP3   OH270132   1.059   4.134   4.467 -0.0772  0.2151  0.0658
16214TIP3    H170133   1.110   4.170   4.395 -1.1419 -0.7922 -1.2573
16214TIP3    H270134   0.974   4.178   4.461  0.1464  0.8940  1.3953
16215TIP3   OH270135   0.105   4.629   4.525  0.5439 -0.0760 -0.1474
16215TIP3    H170136   0.116   4.687   4.450 -0.7996  0.0406 -0.2689
16215TIP3    H270137   0.021   4.653   4.563 -0.5245 -2.5410 -0.7486
16216TIP3   OH270138   3.440   6.078  16.336  0.0090  0.0073  0.2526
16216TIP3    H170139   3.479   6.166  16.335  1.8898 -0.7811  0.2248
16216TIP3    H270140   3.440   6.052  16.244  0.9926 -0.6440  0.4270
16217TIP3   OH270141   6.738   0.706   2.516  0.2536 -0.1577 -0.0530
16217TIP3    H170142   6.773   0.794   2.503 -1.0836  0.2628 -0.9179
16217TIP3    H270143   6.815   0.649   2.510  0.6658  0.5237 -3.9607
16218TIP3   OH270144   2.578   2.305   1.187 -0.2202 -0.0753  0.5757
16218TIP3    H170145   2.620   2.280   1.269 -1.8525 -2.1200  0.8854
16218TIP3    H270146   2.484   2.297   1.205 -0.6935 -4.2444 -2.3684
16219TIP3   OH270147   5.556   1.512   5.409  0.0157  0.4099  0.3262
16219TIP3    H170148   5.634   1.567   5.414  0.4856 -0.0911 -1.0159
16219TIP3    H270149   5.532   1.513   5.316  0.1403 -1.7374  0.2188
16220TIP3   OH270150   4.804   6.018   0.435 -0.3720  0.3510 -0.0626
16220TIP3    H170151   4.887   5.973   0.450 -0.7364  0.1063  1.3802
16220TIP3    H270152   4.739   5.965   0.482 -1.2378  0.9147 -0.5882
16221TIP3   OH270153   2.868   3.138  12.081  0.2412  0.2839  0.1473
16221TIP3    H170154   2.815   3.093  12.147  0.8267 -0.9463 -0.2010
16221TIP3    H270155   2.933   3.186  12.132  0.5280 -0.4470  0.4889
16222TIP3   OH270156   3.971   5.496  15.026 -0.3285 -0.0867  0.1843
16222TIP3    H170157   4.033   5.547  15.078 -1.5647  1.5631  0.1175
16222TIP3    H270158   4.015   5.482  14.942  0.6577 -0.5283  0.7599
16223TIP3   OH270159   1.848   0.868  17.124  0.4777  0.2971  0.3179
16223TIP3    H170160   1.803   0.926  17.185 -1.3261  0.4182 -1.0493
16223TIP3    H270161   1.810   0.781  17.141 -1.9137  0.7348 -2.2037
16224TIP3   OH270162   2.607   4.412  11.298 -0.2450  0.2481  0.5479
16224TIP3    H170163   2.580   4.351  11.229  0.0248 -0.5079  1.1048
16224TIP3    H270164   2.648   4.485  11.251  1.1326 -0.8604 -0.0390
16225TIP3   OH270165   2.431   1.798  12.965 -0.1324 -0.0814 -0.6064
16225TIP3    H170166   2.418   1.722  12.908  2.2494 -1.1773  0.1763
16225TIP3    H270167   2.404   1.767  13.052 -1.3877  0.7824 -0.6574
16226TIP3   OH270168   3.883   3.659  13.963  0.0224 -0.5525 -0.0983
16226TIP3    H170169   3.799   3.671  14.006  0.3832 -2.0315  1.1033
16226TIP3    H270170   3.941   3.722  14.006 -0.1479 -0.4755  0.0158
16227TIP3   OH270171   5.657   3.800  16.391 -0.4005  0.0796 -0.5881
16227TIP3    H170172   5.700   3.878  16.425  1.7149 -1.0098 -0.5750
16227TIP3    H270173   5.609   3.764  16.466  1.6019 -0.5616  0.4553
16228TIP3   OH270174   1.483   0.763   3.677 -0.1494 -0.1201  0.4261
16228TIP3    H170175   1.475   0.674   3.713 -1.1687 -0.0221  0.4556
16228TIP3    H270176   1.435   0.818   3.739 -0.2278  0.3309 -0.0337
16229TIP3   OH270177   0.320   1.517  11.991  0.0080 -0.8945 -0.0974
16229TIP3    H170178   0.252   1.455  11.965  1.8584 -3.8899  1.5657
16229TIP3    H270179   0.299   1.539  12.082 -1.1727  1.8707 -0.9516
16230TIP3   OH270180   3.851   5.188   0.301 -0.3750  0.1126 -0.3814
16230TIP3    H170181   3.758   5.212   0.300 -0.6215 -0.7187  0.5245
16230TIP3    H270182   3.853   5.101   0.341  0.6935 -0.3883 -1.4609
16231TIP3   OH270183   1.764   0.204   5.816 -0.6400  0.2249  0.2291
16231TIP3    H170184   1.683   0.215   5.765 -0.4592 -0.2988 -0.1915
16231TIP3    H270185   1.735   0.196   5.906 -0.9273  1.7715  0.2908
16232TIP3   OH270186   1.034   5.595  15.875  0.1560  0.5433 -0.4575
16232TIP3    H170187   1.114   5.634  15.910  1.9360 -3.1849  0.2296
16232TIP3    H270188   1.005   5.535  15.944 -2.0306  0.2336 -1.5622
16233TIP3   OH270189   0.754   2.180  12.895 -0.1956  0.2482  0.2304
16233TIP3    H170190   0.783   2.101  12.942 -0.5689  0.0996  0.2120
16233TIP3    H270191   0.820   2.246  12.917 -1.3916  0.7821  2.6032
16234TIP3   OH270192   5.481   4.793  17.009 -0.2477  0.8444  0.3701
16234TIP3    H170193   5.415   4.779  16.941 -0.2560 -0.6953  0.6576
16234TIP3    H270194   5.557   4.827  16.962 -1.0776  2.2383 -0.0222
16235TIP3   OH270195   4.531   3.009  14.346  0.8772 -0.2444 -0.1259
16235TIP3    H170196   4.486   3.046  14.422  1.7774 -0.0389  0.3146
16235TIP3    H270197   4.515   2.915  14.353  0.4218 -0.1608 -0.0315
16236TIP3   OH270198   1.145   0.927   1.180 -0.1056  0.2732  0.2633
16236TIP3    H170199   1.124   1.010   1.135 -0.0127  0.4177  0.4881
16236TIP3    H270200   1.185   0.954   1.262  1.1794  0.0015 -0.2484
16237TIP3   OH270201   6.579   1.284  16.992 -0.2054 -0.0311 -0.1991
16237TIP3    H170202   6.586   1.259  17.084 -2.1650  0.1044  0.0162
16237TIP3    H270203   6.545   1.207  16.948  0.6493 -0.0695 -0.8215
16238TIP3   OH270204   6.077   1.019  12.926  0.3708 -0.0036  0.0716
16238TIP3    H170205   6.027   0.948  12.887  0.1121 -0.3051  0.9197
16238TIP3    H270206   6.134   0.977  12.990  1.2456  0.4095 -0.4137
16239TIP3   OH270207   5.107   5.450   5.566  0.2235 -0.1553 -0.0136
16239TIP3    H170208   5.040   5.505   5.606 -0.5482 -1.3155  0.3162
16239TIP3    H270209   5.144   5.400   5.638  1.0513  0.0421 -0.2866
16240TIP3   OH270210   6.222   5.599  16.465 -0.3355  0.3913  0.5448
16240TIP3    H170211   6.150   5.621  16.407  1.0165 -0.0393 -1.4178
16240TIP3    H270212   6.293   5.657  16.438 -0.4240  2.1907  3.7219
16241TIP3   OH270213   0.920   1.270  13.214 -0.7822 -0.2974 -0.4563
16241TIP3    H170214   0.853   1.207  13.243  1.1291 -1.4382  1.8137
16241TIP3    H270215   0.894   1.353  13.254 -0.3626 -0.9674  1.3020
16242TIP3   OH270216   0.783   3.572  15.384  0.3693 -0.2584 -0.3266
16242TIP3    H170217   0.736   3.488  15.387  0.8810 -0.5765 -0.8728
16242TIP3    H270218   0.875   3.548  15.382  0.6238  0.3942  1.8301
16243TIP3   OH270219   1.093   3.980   6.519 -0.2610 -0.2051  0.8400
16243TIP3    H170220   1.034   3.911   6.488  1.7204 -1.2245 -0.9178
16243TIP3    H270221   1.128   3.947   6.601 -0.5031 -0.5772  0.7965
16244TIP3   OH270222   0.409   2.631   1.995 -0.0763  0.2630 -0.4056
16244TIP3    H170223   0.364   2.679   1.925 -0.3668 -2.4806 -2.2679
16244TIP3    H270224   0.338   2.584   2.041  0.4458 -0.6979 -0.5629
16245TIP3   OH270225   1.859   6.803  14.715 -0.0111  0.1911 -0.3394
16245TIP3    H170226   1.923   6.735  14.737 -0.4041 -0.6041 -1.5195
16245TIP3    H270227   1.775   6.765  14.740 -0.2802  0.0239 -1.4371
16246TIP3   OH270228   4.804   5.376  15.735 -0.5429  0.2910  0.1976
16246TIP3    H170229   4.804   5.470  15.756 -0.9896  0.4804 -0.6063
16246TIP3    H270230   4.856   5.369  15.655  0.0770 -0.2475  0.6405
16247TIP3   OH270231   5.973   0.306   0.390  0.9839 -0.2985  0.6709
16247TIP3    H170232   5.917   0.240   0.431  0.1734  0.6428  1.1260
16247TIP3    H270233   6.015   0.260   0.317 -0.5205 -1.0050  0.2135
16248TIP3   OH270234   0.151   3.668  11.525  0.7775  0.1388  0.0513
16248TIP3    H170235   0.167   3.746  11.471  2.6884 -0.7397 -0.7588
16248TIP3    H270236   0.139   3.702  11.613 -0.4411  1.4773 -0.5958
16249TIP3   OH270237   6.447   0.418  12.970  0.4040  0.1688 -0.2805
16249TIP3    H170238   6.386   0.445  13.038  0.6744 -3.9696  1.9021
16249TIP3    H270239   6.507   0.492  12.962 -0.9390  1.7194  2.3731
16250TIP3   OH270240   3.622   0.640   6.122  0.4608  0.1567 -0.1691
16250TIP3    H170241   3.565   0.594   6.184 -1.7753  0.9256 -1.5100
16250TIP3    H270242   3.562   0.699   6.075  2.0624 -0.2850 -2.9268
16251TIP3   OH270243   2.437   0.920  13.773  0.3746 -0.1097  0.3136
16251TIP3    H170244   2.374   0.891  13.708 -0.2172 -0.9471  1.2223
16251TIP3    H270245   2.485   0.840  13.797  1.6608  0.4692 -0.2164
16252TIP3   OH270246   1.637   0.336   0.940  0.2756  0.2365  0.5181
16252TIP3    H170247   1.679   0.417   0.971 -1.4726  0.8596  1.3764
16252TIP3    H270248   1.660   0.271   1.006  1.9295 -0.1009 -0.3207
16253TIP3   OH270249   3.220   4.438   4.388  0.6762 -0.7989 -0.1354
16253TIP3    H170250   3.168   4.509   4.353  0.1861 -0.9288  0.3268
16253TIP3    H270251   3.160   4.389   4.444  1.7025  0.0348  1.7882
16254TIP3   OH270252   2.284   3.569  15.688 -0.0836 -0.2939  0.3817
16254TIP3    H170253   2.336   3.572  15.768  1.1045 -0.2401 -0.3611
16254TIP3    H270254   2.333   3.623  15.626 -0.3188 -1.3273 -0.7331
16255TIP3   OH270255   1.092   2.200  13.078 -0.4605  0.4089  0.6378
16255TIP3    H170256   1.068   2.253  13.154 -0.1464 -0.5562  1.4361
16255TIP3    H270257   1.094   2.110  13.111  0.7663  0.0809 -0.2492
16256TIP3   OH270258   3.249   2.102   5.421  0.5663 -0.0599  0.1593
16256TIP3    H170259   3.196   2.181   5.431  0.0449 -0.4380  0.4210
16256TIP3    H270260   3.318   2.127   5.359 -0.1218  0.3408 -0.4639
16257TIP3   OH270261   4.946   1.078  11.194 -0.1339  0.3751 -0.2867
16257TIP3    H170262   4.909   1.021  11.126  0.5113  0.4052 -0.6642
16257TIP3    H270263   4.870   1.122  11.232 -0.4513  0.8411 -1.4245
16258TIP3   OH270264   2.461   5.466   5.551  0.4833 -0.4816 -0.1405
16258TIP3    H170265   2.387   5.407   5.564  1.0419 -0.9846  0.9278
16258TIP3    H270266   2.527   5.435   5.614  0.8683  1.1501  0.3055
16259TIP3   OH270267   2.055   2.412  14.260 -0.1319  0.3325  0.1814
16259TIP3    H170268   1.990   2.473  14.295 -0.0926 -0.0182  0.8792
16259TIP3    H270269   2.089   2.367  14.337  0.4538  0.0351 -0.2470
16260TIP3   OH270270   4.870   6.194  12.388 -0.1752  0.5894 -0.0754
16260TIP3    H170271   4.909   6.198  12.476  2.0267 -0.3284 -0.9554
16260TIP3    H270272   4.817   6.274  12.382 -0.1093  0.8454  1.9380
16261TIP3   OH270273   6.514   1.745   2.480  0.7300 -0.5953  0.7249
16261TIP3    H170274   6.418   1.753   2.481  0.6548 -1.2291  0.0275
16261TIP3    H270275   6.531   1.657   2.511  1.0242 -0.8518 -0.1408
16262TIP3   OH270276   5.310   0.083   1.535  0.5700  0.0729 -0.2289
16262TIP3    H170277   5.328   0.158   1.592  0.9685 -0.1151 -0.1040
16262TIP3    H270278   5.223   0.101   1.499  0.6657  0.6000 -0.2076
16263TIP3   OH270279   6.291   0.743  14.273 -0.2401  0.1278 -0.1617
16263TIP3    H170280   6.272   0.747  14.179 -1.1566  0.6403  0.0368
16263TIP3    H270281   6.363   0.681  14.280 -1.4337 -1.4287 -1.0317
16264TIP3   OH270282   6.382   6.248  13.885 -0.9028  0.4143  1.0808
16264TIP3    H170283   6.351   6.332  13.850 -0.2634  0.6107  0.9633
16264TIP3    H270284   6.305   6.192  13.884 -1.2482  0.8808  0.7778
16265TIP3   OH270285   4.056   5.385  13.535  0.2447 -0.4347 -0.2140
16265TIP3    H170286   4.143   5.425  13.534 -0.0388  0.2540 -2.3535
16265TIP3    H270287   4.070   5.296  13.504  0.4910 -1.1969  1.9241
16266TIP3   OH270288   6.524   6.038  14.312  0.4201 -0.3701  0.6308
16266TIP3    H170289   6.605   6.077  14.345  1.6361 -2.0454 -0.1696
16266TIP3    H270290   6.505   6.086  14.232  1.4981 -0.8988  0.0308
16267TIP3   OH270291   1.036   3.285  13.059 -0.2118  0.6649 -0.2398
16267TIP3    H170292   0.988   3.296  13.141  0.5638 -1.9757  0.6966
16267TIP3    H270293   0.983   3.329  12.993 -1.8113  1.2832  1.3897
16268TIP3   OH270294   0.551   3.712  16.869  0.3289  0.5853  0.0405
16268TIP3    H170295   0.491   3.738  16.799 -0.6367 -0.4581  0.4331
16268TIP3    H270296   0.497   3.659  16.928  1.8521 -1.1808 -0.0541
16269TIP3   OH270297   2.206   5.051   3.716 -0.1520  0.2350  0.1535
16269TIP3    H170298   2.185   5.116   3.783  0.0185 -0.2158  0.6523
16269TIP3    H270299   2.131   4.992   3.716 -1.0851  1.3549 -1.4744
16270TIP3   OH270300   6.602   5.657   4.664  0.5471 -0.1395  0.4441
16270TIP3    H170301   6.569   5.605   4.590  1.8613 -0.0567 -0.2435
16270TIP3    H270302   6.637   5.592   4.725 -1.8875 -0.3127  1.7596
16271TIP3   OH270303   6.369   0.111  15.114 -0.0167  0.0229 -0.5962
16271TIP3    H170304   6.291   0.093  15.167  1.5598 -0.3836  1.7184
16271TIP3    H270305   6.345   0.080  15.027 -1.6318 -2.3348  0.5630
16272TIP3   OH270306   0.151   6.003   5.555 -0.0327  0.6854  0.5508
16272TIP3    H170307   0.175   6.025   5.465  2.5787 -1.5917  0.5528
16272TIP3    H270308   0.087   5.932   5.545  0.3410  0.3561  0.4807
16273TIP3   OH270309   2.475   5.765  15.702  0.3362  0.4259 -0.3278
16273TIP3    H170310   2.483   5.810  15.618  1.6605  0.3614 -0.2610
16273TIP3    H270311   2.483   5.672  15.680 -2.3852  0.1363 -0.4667
16274TIP3   OH270312   6.357   4.900  12.628  0.0385  0.0171 -0.3987
16274TIP3    H170313   6.394   4.891  12.540  0.5606 -0.3042 -0.1441
16274TIP3    H270314   6.427   4.938  12.680 -0.1006 -0.2850  0.0093
16275TIP3   OH270315   6.797   2.787  16.140 -0.3912 -0.2733 -0.0219
16275TIP3    H170316   6.856   2.771  16.213 -0.5670  0.4686  0.2932
16275TIP3    H270317   6.837   2.859  16.092  0.3561 -1.5477 -1.3776
16276TIP3   OH270318   4.123   3.343   2.554  0.3968  0.5647 -0.1338
16276TIP3    H170319   4.078   3.268   2.514  0.3123  1.5145 -1.9052
16276TIP3    H270320   4.216   3.323   2.545  0.3679  0.4020 -0.0675
16277TIP3   OH270321   3.720   2.365   3.708  0.0809 -0.3921  0.8518
16277TIP3    H170322   3.648   2.378   3.770  0.5554  0.2765  1.2854
16277TIP3    H270323   3.748   2.454   3.685 -1.4103 -0.5512 -1.9398
16278TIP3   OH270324   0.422   4.070   0.638 -0.2685  0.2598 -0.9056
16278TIP3    H170325   0.366   4.118   0.699 -1.8336  0.9344 -2.7683
16278TIP3    H270326   0.363   4.008   0.595  0.9422 -0.6879 -1.2565
16279TIP3   OH270327   5.290   4.566   0.562 -0.3967  0.1143 -0.4676
16279TIP3    H170328   5.330   4.537   0.480 -0.6803  0.1149 -0.6095
16279TIP3    H270329   5.203   4.596   0.536 -0.3288  0.5226 -0.2294
16280TIP3   OH270330   3.685   1.892  12.927  0.6059  0.1138  0.5758
16280TIP3    H170331   3.593   1.897  12.952  0.3165  3.3014 -0.7407
16280TIP3    H270332   3.691   1.939  12.844  3.2854 -0.9294  0.0485
16281TIP3   OH270333   0.741   1.082   3.980  0.1843 -0.1184  0.4465
16281TIP3    H170334   0.800   1.124   3.917  0.6789  0.7635  1.4713
16281TIP3    H270335   0.657   1.077   3.934  0.1612  1.8041  0.2043
16282TIP3   OH270336   5.322   3.473  15.434 -0.0883 -0.2139  0.3078
16282TIP3    H170337   5.343   3.475  15.527 -1.6126 -0.4061  0.6794
16282TIP3    H270338   5.233   3.437  15.430 -1.3278  2.6949 -0.9658
16283TIP3   OH270339   1.504   0.434   4.245 -0.4199  0.1205 -0.4381
16283TIP3    H170340   1.452   0.496   4.194  0.7889  0.2719 -1.5476
16283TIP3    H270341   1.561   0.488   4.299  0.8871  0.0533 -1.6653
16284TIP3   OH270342   2.393   3.172   2.936  0.0668  0.2021  0.4128
16284TIP3    H170343   2.423   3.186   2.846  0.0088 -1.2662  0.1354
16284TIP3    H270344   2.300   3.196   2.934 -0.4887 -1.7712 -0.4873
16285TIP3   OH270345   4.041   5.130  10.664 -0.1570 -0.0684 -0.3815
16285TIP3    H170346   3.966   5.158  10.612  0.2343  1.5341 -0.1607
16285TIP3    H270347   4.117   5.172  10.622  0.7279 -2.1237 -0.9478
16286TIP3   OH270348   2.889   4.693   0.055  0.0702  0.3366 -0.4263
16286TIP3    H170349   2.856   4.683   0.145  0.6452  0.3917 -0.2060
16286TIP3    H270350   2.857   4.616   0.009 -0.8869  0.6876 -0.3805
16287TIP3   OH270351   4.162   5.730  16.080  0.3050 -0.2242  0.7411
16287TIP3    H170352   4.140   5.767  15.995 -0.9497 -1.2626  0.5869
16287TIP3    H270353   4.240   5.779  16.108 -0.4019  1.4754 -0.1052
16288TIP3   OH270354   1.280   6.245   3.674 -0.3313  0.8800  0.7243
16288TIP3    H170355   1.253   6.160   3.639  1.9358  0.5038 -0.2509
16288TIP3    H270356   1.306   6.226   3.764 -0.3818  0.6593  0.6939
16289TIP3   OH270357   3.306   4.300  16.566  0.8292  0.0607  0.5318
16289TIP3    H170358   3.358   4.346  16.500  2.2922 -0.2131  1.4370
16289TIP3    H270359   3.352   4.217  16.578 -0.9968 -1.1001 -0.0933
16290TIP3   OH270360   3.819   6.334   3.128  0.4706 -0.2573  0.0938
16290TIP3    H170361   3.872   6.300   3.057  0.8576  2.3239 -0.9897
16290TIP3    H270362   3.738   6.363   3.086  0.6498  1.1843  0.6596
16291TIP3   OH270363   4.881   2.229   2.020  0.0897  0.6875 -0.2049
16291TIP3    H170364   4.854   2.138   2.027  1.1177  0.3380 -0.6822
16291TIP3    H270365   4.881   2.261   2.110 -2.0783  0.7754 -0.1826
16292TIP3   OH270366   2.989   0.145   4.625 -0.0735  0.0391 -0.2455
16292TIP3    H170367   2.917   0.137   4.687 -1.0910  0.5105 -1.3252
16292TIP3    H270368   2.957   0.104   4.545  0.8764  0.2175 -0.7405
16293TIP3   OH270369   2.059   1.948  15.474 -0.3915  0.2921 -0.0391
16293TIP3    H170370   2.052   2.038  15.505  0.1862  0.3257 -0.0104
16293TIP3    H270371   2.020   1.950  15.387  1.1046  0.9256 -0.7191
16294TIP3   OH270372   5.044   5.850  13.031  0.6097  0.7654  0.0022
16294TIP3    H170373   5.079   5.809  13.110 -2.8782 -0.3648  1.1615
16294TIP3    H270374   5.048   5.782  12.964  0.9960  0.7831  0.0088
16295TIP3   OH270375   3.540   0.859  15.499  0.4518 -0.1829  0.5454
16295TIP3    H170376   3.540   0.899  15.585  0.7456 -0.2176  0.5630
16295TIP3    H270377   3.486   0.780  15.509  1.6447 -0.9640  1.0685
16296TIP3   OH270378   1.140   5.481   0.790 -0.1457  0.0940 -0.7650
16296TIP3    H170379   1.170   5.481   0.699 -0.6219 -1.3005 -0.9443
16296TIP3    H270380   1.044   5.486   0.783 -0.1193  2.0114 -0.2643
16297TIP3   OH270381   5.695   2.027  10.564 -0.1672  0.1548 -0.2941
16297TIP3    H170382   5.701   2.101  10.625  1.8474  0.8199 -1.2248
16297TIP3    H270383   5.663   2.066  10.482 -4.3872 -0.9766  0.5656
16298TIP3   OH270384   1.323   4.222   4.609 -0.7921  0.7672  0.7784
16298TIP3    H170385   1.268   4.286   4.655 -1.9074  0.1638  0.3179
16298TIP3    H270386   1.265   4.148   4.592  0.1550  0.1289  0.2145
16299TIP3   OH270387   1.184   6.654   5.674 -0.9625 -0.0934 -0.4793
16299TIP3    H170388   1.145   6.717   5.734  2.8352  3.5137 -1.3216
16299TIP3    H270389   1.224   6.587   5.730 -0.0105  1.5798  0.9146
16300TIP3   OH270390   4.178   5.448  12.844 -0.0997 -0.1167  0.2295
16300TIP3    H170391   4.142   5.417  12.761  0.2602 -1.6563  0.6179
16300TIP3    H270392   4.137   5.392  12.910  0.7348  0.0932  0.9442
16301TIP3   OH270393   4.073   1.054   1.613 -0.5024 -0.6063 -0.2467
16301TIP3    H170394   4.133   1.013   1.675 -0.8845  0.2904  0.7395
16301TIP3    H270395   4.062   0.988   1.544  2.0894 -0.5498 -0.8064
16302TIP3   OH270396   5.529   3.834   4.481  0.7099  0.3519 -0.1799
16302TIP3    H170397   5.619   3.840   4.515 -0.3751 -1.1633  3.3599
16302TIP3    H270398   5.478   3.889   4.539 -1.1611 -1.6564  0.2052
16303TIP3   OH270399   5.953   2.162   1.761  0.0862 -0.2474  0.2146
16303TIP3    H170400   5.923   2.218   1.691 -0.1232 -0.4516  0.1382
16303TIP3    H270401   5.986   2.222   1.828  1.1119 -0.0750 -0.4209
16304TIP3   OH270402   2.076   0.307  10.404  0.7109 -0.3290  0.2242
16304TIP3    H170403   2.023   0.246  10.454  1.1593 -0.2160  0.8471
16304TIP3    H270404   2.137   0.252  10.356 -0.4485 -0.5152 -1.1090
16305TIP3   OH270405   0.967   6.100   4.678 -0.8000 -0.0109 -0.0792
16305TIP3    H170406   0.993   6.188   4.705  0.6199 -0.2390 -0.5904
16305TIP3    H270407   0.909   6.069   4.747 -3.9679  2.4763 -1.3801
16306TIP3   OH270408   2.414   6.296  15.579 -0.0033  0.8210 -0.3557
16306TIP3    H170409   2.430   6.379  15.534  0.1971  0.3096 -1.2540
16306TIP3    H270410   2.501   6.256  15.584 -0.4478 -0.5854 -2.4841
16307TIP3   OH270411   4.535   3.390  15.165 -0.8844  0.1108 -0.2452
16307TIP3    H170412   4.594   3.465  15.168 -2.1236  1.0811  1.0443
16307TIP3    H270413   4.584   3.323  15.117  1.3217  0.8120  0.8950
16308TIP3   OH270414   6.411   0.494   3.402  0.0876  1.0981  0.6039
16308TIP3    H170415   6.461   0.501   3.321 -0.8602  0.8614 -0.0138
16308TIP3    H270416   6.359   0.573   3.406  1.6896  2.1584  2.1002
16309TIP3   OH270417   3.022   0.376  16.362  0.3853 -0.6008  0.1608
16309TIP3    H170418   3.042   0.316  16.433 -0.2959 -0.0313  0.8491
16309TIP3    H270419   3.102   0.428  16.351  0.2869 -0.2703  0.9406
16310TIP3   OH270420   2.940   3.195  11.828 -0.1955 -0.3509  0.0927
16310TIP3    H170421   2.973   3.105  11.824  0.4140 -0.0827 -1.9717
16310TIP3    H270422   2.899   3.202  11.915 -0.8352 -2.8144  0.0624
16311TIP3   OH270423   2.259   2.921   2.272 -0.1040 -0.0239  0.2498
16311TIP3    H170424   2.202   2.998   2.263  0.5765  0.3852 -0.9018
16311TIP3    H270425   2.347   2.955   2.255 -0.0196 -1.4518 -2.8131
16312TIP3   OH270426   4.471   0.038   3.210 -0.0196  0.4870  0.6870
16312TIP3    H170427   4.463   0.042   3.114  0.4008 -0.2790  0.6121
16312TIP3    H270428   4.552  -0.011   3.225 -0.5258 -0.1388  1.4396
16313TIP3   OH270429   4.692   3.223   0.444 -0.1543 -0.6714 -0.3132
16313TIP3    H170430   4.747   3.272   0.505 -0.3375 -0.4150 -0.3551
16313TIP3    H270431   4.604   3.259   0.455 -0.5361 -1.8147  0.5233
16314TIP3   OH270432   1.981   1.053  16.951 -0.0101 -0.6491 -0.3400
16314TIP3    H170433   1.973   1.049  16.856  0.0434 -1.4935 -0.3154
16314TIP3    H270434   1.905   1.003  16.983 -1.3918  1.5973  0.1202
16315TIP3   OH270435   6.453   2.093   1.832 -0.3194  0.2576  0.7013
16315TIP3    H170436   6.374   2.146   1.824  0.4511  1.3150 -0.2161
16315TIP3    H270437   6.518   2.138   1.778  0.7408 -0.9207  0.9398
16316TIP3   OH270438   2.793   4.923  17.232 -0.5375  0.3857 -0.0494
16316TIP3    H170439   2.827   4.846  17.277 -2.0746  1.3669  3.0444
16316TIP3    H270440   2.867   4.956  17.181  0.4449 -2.4585 -0.6687
16317TIP3   OH270441   4.595   5.209   3.832 -0.6498  0.1387  0.7298
16317TIP3    H170442   4.609   5.162   3.750 -1.8959 -0.8929  1.0705
16317TIP3    H270443   4.516   5.261   3.816 -0.1056  1.0256  0.8380
16318TIP3   OH270444   2.684   5.202   5.501  0.1075 -0.0428  0.1315
16318TIP3    H170445   2.742   5.243   5.565  1.0957 -2.0310  0.6164
16318TIP3    H270446   2.743   5.169   5.433 -0.7455  0.3440 -0.8126
16319TIP3   OH270447   3.683   1.342  14.052 -0.2998  0.1007 -0.1099
16319TIP3    H170448   3.708   1.319  14.141 -0.0389  1.7491  0.2786
16319TIP3    H270449   3.759   1.319  13.999  0.4075  1.0725  0.4377
16320TIP3   OH270450   3.663   2.745  10.990 -0.4633 -0.0300  0.1460
16320TIP3    H170451   3.747   2.766  10.948 -1.0285  0.5107 -0.7431
16320TIP3    H270452   3.629   2.829  11.020 -0.9742 -0.1638 -0.0548
16321TIP3   OH270453   0.718   6.628  11.095 -0.5831  0.0566 -0.0858
16321TIP3    H170454   0.805   6.665  11.107 -0.5509  0.0597 -0.3219
16321TIP3    H270455   0.732   6.550  11.040 -0.7711  0.2609 -0.4296
16322TIP3   OH270456   5.933   1.556  11.307  0.0406  0.2665  0.4097
16322TIP3    H170457   5.898   1.597  11.228  1.1934 -1.2926 -0.9690
16322TIP3    H270458   5.879   1.591  11.378 -0.9074  1.8544 -1.0280
16323TIP3   OH270459   0.064   2.906   6.966 -0.4314 -0.4295  0.0169
16323TIP3    H170460   0.138   2.956   6.933 -0.7370 -0.7685 -1.2369
16323TIP3    H270461  -0.006   2.923   6.903 -0.9399 -1.3644  0.3161
16324TIP3   OH270462   2.151   2.667  10.850 -0.2437  0.2405 -0.2628
16324TIP3    H170463   2.115   2.604  10.788  2.2624 -1.1853 -0.3759
16324TIP3    H270464   2.233   2.696  10.811  0.6742  0.4252  1.6900
16325TIP3   OH270465   3.360   5.583   5.184 -0.1845  0.1421  0.5123
16325TIP3    H170466   3.345   5.579   5.279 -2.2330 -1.3438  0.1948
16325TIP3    H270467   3.285   5.537   5.146  1.0395 -0.0831 -1.7992
16326TIP3   OH270468   4.434   2.162  16.474 -0.4521 -0.0296 -0.1941
16326TIP3    H170469   4.448   2.245  16.429  0.0171  0.8314  1.4616
16326TIP3    H270470   4.358   2.177  16.530 -0.8445 -0.9790 -0.4546
16327TIP3   OH270471   1.306   5.292   2.603  0.0832 -0.0883 -0.4190
16327TIP3    H170472   1.351   5.217   2.642 -0.1091  0.3805  0.7335
16327TIP3    H270473   1.356   5.312   2.524  0.0867 -1.4699 -0.7912
16328TIP3   OH270474   1.074   2.538   2.033 -0.1791 -0.5042  0.2298
16328TIP3    H170475   1.118   2.620   2.058  0.3337 -0.9094  0.6805
16328TIP3    H270476   1.144   2.474   2.028 -0.5616 -0.8899 -0.2662
16329TIP3   OH270477   5.927   2.913  11.202 -0.1935 -0.3406  0.3922
16329TIP3    H170478   5.896   2.823  11.189  0.5560 -0.6751  0.8581
16329TIP3    H270479   5.865   2.966  11.153 -0.2530 -1.1690 -0.4707
16330TIP3   OH270480   1.109   0.206   3.042  0.2752  0.2034 -0.1547
16330TIP3    H170481   1.113   0.301   3.058  1.1418  0.2548 -0.6147
16330TIP3    H270482   1.088   0.168   3.127 -0.1426  0.8091  0.0213
16331TIP3   OH270483   0.799   5.183  12.562 -0.1653  0.0689 -0.1610
16331TIP3    H170484   0.866   5.148  12.621  0.8458  1.4501 -0.4404
16331TIP3    H270485   0.810   5.278  12.566 -0.9685  0.2527 -1.5398
16332TIP3   OH270486   1.291   4.609  16.829 -0.3809 -0.3781 -0.1879
16332TIP3    H170487   1.250   4.696  16.836 -1.1875 -0.5698 -1.8563
16332TIP3    H270488   1.221   4.548  16.847  0.6827 -0.7682  3.2215
16333TIP3   OH270489   1.091   1.273  13.477  0.6826 -0.0532  0.3693
16333TIP3    H170490   1.091   1.276  13.381  0.0904 -0.7287  0.3437
16333TIP3    H270491   1.121   1.360  13.503 -1.0690  0.8354 -0.4176
16334TIP3   OH270492   4.245   2.796   0.566 -0.1561 -0.7729 -0.1751
16334TIP3    H170493   4.299   2.753   0.632  1.0988  1.1338  0.0953
16334TIP3    H270494   4.303   2.858   0.523 -2.1428  1.5789  0.3057
16335TIP3   OH270495   3.830   5.672   0.587 -0.2821  0.1470  0.7401
16335TIP3    H170496   3.794   5.760   0.596 -1.7155 -0.2976 -0.3586
16335TIP3    H270497   3.757   5.618   0.558  1.0856 -0.9282 -0.9375
16336TIP3   OH270498   4.863   1.383   2.418  0.1993 -0.3025  0.2404
16336TIP3    H170499   4.812   1.307   2.446  0.3449 -0.1785  0.8537
16336TIP3    H270500   4.857   1.382   2.322 -0.6885 -0.4708  0.2904
16337TIP3   OH270501   1.924   1.438   1.686 -0.3397 -0.0366  0.0837
16337TIP3    H170502   1.867   1.472   1.617 -0.2514  1.0177  0.5194
16337TIP3    H270503   1.916   1.501   1.757  2.0279  0.6208 -0.1568
16338TIP3   OH270504   3.101   6.431   2.351  0.4392 -0.4593  0.2841
16338TIP3    H170505   3.064   6.502   2.403  1.4016  1.6756 -1.8214
16338TIP3    H270506   3.194   6.432   2.371  0.8793  0.5886 -1.6097
16339TIP3   OH270507   6.092   3.202  13.017 -0.4849  0.0827  0.1618
16339TIP3    H170508   6.183   3.232  13.025 -0.5797  0.2374  0.7053
16339TIP3    H270509   6.093   3.142  12.942  0.0856 -0.0059  0.2335
16340TIP3   OH270510   5.983   3.249   0.586  0.2510 -0.1990 -0.2351
16340TIP3    H170511   5.989   3.245   0.682 -4.5533 -1.5620  0.2549
16340TIP3    H270512   5.922   3.321   0.569  1.5615  0.4843 -2.4030
16341TIP3   OH270513   2.898   5.359   0.864 -0.3451  0.1708  0.7388
16341TIP3    H170514   2.911   5.280   0.917  1.2817 -0.0596  0.0484
16341TIP3    H270515   2.870   5.327   0.778 -0.9995  0.4352  0.8438
16342TIP3   OH270516   1.282   3.464  16.189  0.1621 -0.0538 -0.1062
16342TIP3    H170517   1.192   3.438  16.209  0.1594  0.6140  0.8027
16342TIP3    H270518   1.273   3.531  16.121 -0.0285  0.0854  0.0559
16343TIP3   OH270519   2.344   1.571  14.842 -0.2246  0.1120 -0.8819
16343TIP3    H170520   2.262   1.606  14.877  0.5759 -0.1596  1.4632
16343TIP3    H270521   2.345   1.479  14.869  0.7638  0.0634 -1.0497
16344TIP3   OH270522   5.577   6.539   5.690  0.1728  0.1494 -0.5763
16344TIP3    H170523   5.511   6.494   5.637 -0.1270 -0.4563  0.2966
16344TIP3    H270524   5.627   6.469   5.732  1.8615  0.5902 -1.7787
16345TIP3   OH270525   1.591   6.511   6.736  0.4376 -0.8129  0.0175
16345TIP3    H170526   1.585   6.417   6.720 -0.0593 -0.4593 -2.2588
16345TIP3    H270527   1.685   6.530   6.733  0.5962 -1.3267  1.2733
16346TIP3   OH270528   0.404   0.763  16.777  0.8005 -0.3056  0.7807
16346TIP3    H170529   0.421   0.832  16.712 -2.7812  0.2971  0.2850
16346TIP3    H270530   0.368   0.810  16.853 -1.5974 -1.5336  0.4885
16347TIP3   OH270531   2.412   1.559  15.583  0.0673  0.7356 -0.0760
16347TIP3    H170532   2.448   1.631  15.634  1.4924 -0.6110  0.9140
16347TIP3    H270533   2.434   1.581  15.492  3.3313  0.1074  0.4536
16348TIP3   OH270534   6.752   4.952  16.131  0.0767  0.5712  0.0118
16348TIP3    H170535   6.754   5.017  16.201 -0.7735  1.2390 -0.5569
16348TIP3    H270536   6.719   4.999  16.055  0.8832 -0.1679 -0.8263
16349TIP3   OH270537   6.436   1.098  14.017 -0.2511 -0.6057 -0.3101
16349TIP3    H170538   6.512   1.155  14.003 -0.4359 -0.4753 -0.7962
16349TIP3    H270539   6.438   1.038  13.942  1.0941 -2.5546  1.1733
16350TIP3   OH270540   5.027   4.088  11.203  0.2500  0.7265 -0.5960
16350TIP3    H170541   5.122   4.078  11.206  0.3079  1.2039 -0.8613
16350TIP3    H270542   5.010   4.140  11.124 -0.2504  0.4156 -0.6994
16351TIP3   OH270543   5.107   1.605   3.267 -0.0134  0.2396  0.6225
16351TIP3    H170544   5.034   1.667   3.261  0.4138  0.9439  2.0338
16351TIP3    H270545   5.093   1.561   3.351  0.0807 -1.0862 -0.0442
16352TIP3   OH270546   6.164   4.577   2.015 -0.0715  0.2904  0.1593
16352TIP3    H170547   6.102   4.613   1.953 -0.2154 -0.4048 -0.1051
16352TIP3    H270548   6.184   4.490   1.982 -0.0575 -0.0437  1.0150
16353TIP3   OH270549   3.534   4.521  11.957 -0.5036  0.7674 -0.3855
16353TIP3    H170550   3.481   4.492  12.031 -0.6369 -0.2152 -0.8556
16353TIP3    H270551   3.613   4.469  11.961  0.1814  1.7982 -0.0485
16354TIP3   OH270552   6.132   1.745  15.108 -0.3607  0.2483 -0.0272
16354TIP3    H170553   6.064   1.695  15.152 -0.1945 -1.4002 -1.5211
16354TIP3    H270554   6.092   1.773  15.026  0.4242  0.1611 -0.4525
16355TIP3   OH270555   4.793   3.756  17.176  0.3034  0.3579 -0.4857
16355TIP3    H170556   4.779   3.686  17.239  2.3099 -0.0321 -0.3801
16355TIP3    H270557   4.771   3.836  17.223  0.3545 -0.0423  0.2295
16356TIP3   OH270558   2.186   6.125   2.131  0.1842 -0.6444 -0.6286
16356TIP3    H170559   2.141   6.133   2.215 -0.7319 -2.2361 -0.9252
16356TIP3    H270560   2.248   6.053   2.144 -0.2113 -1.1368 -1.4139
16357TIP3   OH270561   4.073   5.974   5.788 -0.0670 -0.1828 -0.0667
16357TIP3    H170562   3.984   5.994   5.758  0.8564  1.0770 -2.2230
16357TIP3    H270563   4.086   6.031   5.864 -1.0708 -0.3632  0.2606
16358TIP3   OH270564   0.902   0.354  12.289 -0.4299  0.3449 -0.5107
16358TIP3    H170565   0.826   0.343  12.346 -0.8445 -3.4383 -1.4787
16358TIP3    H270566   0.873   0.413  12.220 -1.5620  1.0212  0.5040
16359TIP3   OH270567   4.925   4.621  15.390  0.1017  0.0489  0.6110
16359TIP3    H170568   4.917   4.527  15.406 -1.7042  0.1267  0.2987
16359TIP3    H270569   4.903   4.661  15.474 -0.6959  0.2239  0.3243
16360TIP3   OH270570   4.298   0.421  15.172  0.1787  0.2258 -0.4453
16360TIP3    H170571   4.380   0.429  15.220 -0.1568  2.2501 -0.1030
16360TIP3    H270572   4.266   0.334  15.192  1.4530 -0.0002  0.7134
16361TIP3   OH270573   4.488   1.280  11.849  0.2577  1.0524  0.4394
16361TIP3    H170574   4.409   1.271  11.796  0.5827  1.0940 -0.0507
16361TIP3    H270575   4.469   1.356  11.905  0.4582  1.8943 -0.5957
16362TIP3   OH270576   6.041   4.771   1.847  0.1490  0.7721 -0.0779
16362TIP3    H170577   5.997   4.756   1.764  1.1262 -1.5807 -0.2579
16362TIP3    H270578   6.094   4.850   1.832 -0.4443  0.9575 -1.3357
16363TIP3   OH270579   4.194   6.258  15.902 -0.4500 -0.2714 -0.2779
16363TIP3    H170580   4.221   6.176  15.860 -0.5819  0.8165 -2.6505
16363TIP3    H270581   4.273   6.312  15.901 -0.9201  0.4141 -0.7884
16364TIP3   OH270582   6.587   5.834   2.047 -0.1423 -0.0764 -0.8363
16364TIP3    H170583   6.512   5.893   2.035 -1.3950 -0.8514  2.2831
16364TIP3    H270584   6.548   5.748   2.062  1.5292 -1.0449 -1.7021
16365TIP3   OH270585   6.586   4.075   0.309  0.1324  0.4991 -0.3930
16365TIP3    H170586   6.565   4.125   0.230 -0.0996  0.4359 -0.3708
16365TIP3    H270587   6.507   4.025   0.328 -0.0003  0.9078  0.1705
16366TIP3   OH270588   1.066   2.503  15.967 -0.1102  0.8767 -0.6662
16366TIP3    H170589   1.018   2.583  15.988 -0.5536 -0.1237  2.8034
16366TIP3    H270590   1.011   2.433  16.002  1.3923 -0.7446 -1.4165
16367TIP3   OH270591   0.559   1.004   2.455 -0.2830 -0.0186 -0.1907
16367TIP3    H170592   0.555   0.913   2.487 -1.7170 -0.0863 -0.4875
16367TIP3    H270593   0.486   1.011   2.393 -0.3629  1.4122  0.0303
16368TIP3   OH270594   4.523   2.123  15.182 -0.2243 -0.1457  0.4576
16368TIP3    H170595   4.472   2.075  15.246 -1.6987  1.9391  0.9266
16368TIP3    H270596   4.606   2.142  15.226 -0.4656 -0.4010  1.0224
16369TIP3   OH270597   0.240   0.243   3.831 -0.1145  0.0962 -0.5225
16369TIP3    H170598   0.150   0.274   3.847  0.1999  0.0690  1.5032
16369TIP3    H270599   0.295   0.314   3.864  0.6426  0.0445 -1.6201
16370TIP3   OH270600   6.523   0.263  13.413 -0.3906 -0.5167  0.1140
16370TIP3    H170601   6.608   0.293  13.379 -1.2476  0.3266 -1.4095
16370TIP3    H270602   6.490   0.337  13.464 -1.3675  0.2312 -1.5268
16371TIP3   OH270603   5.021   1.503  12.542  0.4142 -0.6323  0.3933
16371TIP3    H170604   5.044   1.549  12.623  0.1191  0.8228 -0.3238
16371TIP3    H270605   4.960   1.561  12.497  1.1160 -1.0770 -1.2179
16372TIP3   OH270606   5.537   4.927   4.970 -0.8154 -0.8607  0.4026
16372TIP3    H170607   5.592   4.856   5.002  0.4196  0.4289  1.2631
16372TIP3    H270608   5.458   4.923   5.025 -0.5051 -1.2201  0.8318
16373TIP3   OH270609   6.763   2.607   2.072 -0.1871  0.1252 -0.2086
16373TIP3    H170610   6.675   2.601   2.110 -0.7963  1.8363 -1.2249
16373TIP3    H270611   6.749   2.644   1.985  1.6255  2.0348  0.2094
16374TIP3   OH270612   0.873   1.336   5.250 -0.0227  0.0754 -0.1277
16374TIP3    H170613   0.917   1.294   5.324 -2.5693 -1.3172  0.7274
16374TIP3    H270614   0.803   1.388   5.290 -1.1407 -0.3154 -1.4852
16375TIP3   OH270615   6.180   0.717   0.511 -0.3408  0.4666 -0.0177
16375TIP3    H170616   6.249   0.781   0.499 -0.3360  0.6296  0.8171
16375TIP3    H270617   6.124   0.726   0.434 -0.3256  1.4511  0.0806
16376TIP3   OH270618   1.826   1.833   6.079 -0.2054 -0.4624 -0.8990
16376TIP3    H170619   1.747   1.780   6.091 -0.5912  0.2010 -0.4385
16376TIP3    H270620   1.897   1.778   6.112 -0.8935  0.1936  1.8977
16377TIP3   OH270621   4.186   2.431  11.279 -0.0456 -0.1543 -0.2429
16377TIP3    H170622   4.250   2.444  11.209 -1.8485  0.6240 -1.8450
16377TIP3    H270623   4.185   2.337  11.295  0.5272 -0.3229 -1.1597
16378TIP3   OH270624   2.423   3.785  12.062  0.1305  0.2713  0.4155
16378TIP3    H170625   2.517   3.799  12.067  0.0271  1.1599  0.0138
16378TIP3    H270626   2.392   3.846  11.995 -0.5156 -1.1397 -0.6488
16379TIP3   OH270627   5.202   6.516   3.097 -0.1813  0.3810 -0.2787
16379TIP3    H170628   5.292   6.489   3.081  0.4593  1.4614  1.2440
16379TIP3    H270629   5.150   6.466   3.034  1.4027 -0.7270 -0.7640
16380TIP3   OH270630   2.944   1.660   0.610  0.2827 -0.0091  0.3677
16380TIP3    H170631   2.868   1.677   0.666  0.3853  1.8553 -0.0235
16380TIP3    H270632   3.011   1.628   0.671 -0.2607  0.0049  0.9867
16381TIP3   OH270633   6.420   0.817  10.891  0.7626  0.0146 -0.3858
16381TIP3    H170634   6.345   0.873  10.912  0.1556 -0.2557 -1.7513
16381TIP3    H270635   6.408   0.795  10.799  1.9275 -0.9579 -0.3205
16382TIP3   OH270636   5.268   0.682  14.779 -0.3568 -0.0896  0.1897
16382TIP3    H170637   5.189   0.657  14.828 -1.0939 -2.7390 -2.0858
16382TIP3    H270638   5.325   0.605  14.784  0.3145  0.2511 -1.5208
16383TIP3   OH270639   2.137   4.902  16.065  0.1565 -0.0658 -0.0130
16383TIP3    H170640   2.170   4.939  15.983  0.8501 -2.2485 -0.7755
16383TIP3    H270641   2.205   4.920  16.129  0.7554 -0.5148 -0.5133
16384TIP3   OH270642   1.969   2.959  11.719 -0.2171  0.1024  0.2960
16384TIP3    H170643   2.022   3.039  11.723 -0.1073  0.0399  0.0921
16384TIP3    H270644   1.881   2.990  11.697 -0.3316  0.2336  0.9110
16385TIP3   OH270645   0.771   6.288   1.970  0.1125 -0.2989 -0.2649
16385TIP3    H170646   0.813   6.230   2.034  0.1230 -0.1852 -0.1666
16385TIP3    H270647   0.702   6.235   1.931  0.6601 -0.6406 -0.7798
16386TIP3   OH270648   1.736   0.795   4.805 -0.0611  0.3721  0.1847
16386TIP3    H170649   1.660   0.847   4.779  1.1662  1.6242 -1.1115
16386TIP3    H270650   1.809   0.858   4.805  0.8661 -0.6411  2.0720
16387TIP3   OH270651   6.168   0.669   3.635  0.2534  0.6129  0.1152
16387TIP3    H170652   6.222   0.591   3.646  0.1895  0.2464 -1.7541
16387TIP3    H270653   6.092   0.654   3.690  0.3880 -0.5202  0.0229
16388TIP3   OH270654   2.717   2.173  17.040 -0.5856 -0.1813  0.4334
16388TIP3    H170655   2.710   2.086  17.079 -0.7588 -1.8862 -3.0699
16388TIP3    H270656   2.634   2.186  16.995  0.2997  0.7661 -1.0066
16389TIP3   OH270657   3.778   2.643  11.537  0.7697  0.2716  0.0414
16389TIP3    H170658   3.789   2.738  11.548  0.0402  0.5554 -1.4750
16389TIP3    H270659   3.837   2.619  11.466  0.5313 -0.3254  0.0382
16390TIP3   OH270660   4.196   1.066  15.525 -1.1976 -0.2111 -0.3933
16390TIP3    H170661   4.230   1.156  15.526 -1.5825 -0.0506  0.7696
16390TIP3    H270662   4.264   1.014  15.484 -0.5578  0.4700 -0.2143
16391TIP3   OH270663   6.337   4.712  15.266 -0.3197  0.3801  0.4813
16391TIP3    H170664   6.315   4.623  15.238 -0.8794  0.8174 -0.5048
16391TIP3    H270665   6.398   4.744  15.200 -0.3375  0.8337  0.6798
16392TIP3   OH270666   3.088   2.809  12.077 -0.2783  0.3498 -0.3002
16392TIP3    H170667   3.175   2.850  12.086  0.3962 -1.2400  0.8135
16392TIP3    H270668   3.092   2.763  11.993 -0.5478  1.3658 -0.8889
16393TIP3   OH270669   4.771   2.047  14.547  0.0083 -0.0068 -0.0966
16393TIP3    H170670   4.837   2.013  14.487 -1.4857 -2.3072 -0.5746
16393TIP3    H270671   4.771   2.141  14.532  2.8587  0.0260 -0.3408
16394TIP3   OH270672   4.041   3.081  16.448  0.4384  0.3257  0.3705
16394TIP3    H170673   4.066   3.031  16.371 -1.4149 -1.8096  1.0094
16394TIP3    H270674   3.967   3.134  16.419 -0.1129 -0.3079  0.5791
16395TIP3   OH270675   3.835   3.098  16.705  0.2151  0.1940 -0.4612
16395TIP3    H170676   3.822   3.064  16.616 -1.1444  1.3607 -0.7285
16395TIP3    H270677   3.795   3.031  16.762  0.8449 -0.4207 -0.7220
16396TIP3   OH270678   6.716   4.619  15.470  0.0850  0.7459  0.2759
16396TIP3    H170679   6.645   4.676  15.500  1.6736  2.3824  1.1029
16396TIP3    H270680   6.733   4.561  15.544 -0.6092  0.0755 -0.0678
16397TIP3   OH270681   6.185   3.664   2.543 -0.4737  0.0613 -0.5307
16397TIP3    H170682   6.099   3.640   2.509  0.0450 -0.3047 -1.6064
16397TIP3    H270683   6.246   3.641   2.474  0.5797 -0.3724  0.5153
16398TIP3   OH270684   4.579   6.738  12.415  0.1300  0.0524  0.0655
16398TIP3    H170685   4.516   6.777  12.474 -0.2679 -1.7100  0.8749
16398TIP3    H270686   4.641   6.808  12.396  0.3345  0.6625  2.6587
16399TIP3   OH270687   4.026   2.626   4.621  0.2552 -0.1038  0.7537
16399TIP3    H170688   3.954   2.580   4.579 -0.1215  0.2026  1.0588
16399TIP3    H270689   3.998   2.718   4.624  1.6862  0.4902 -1.3779
16400TIP3   OH270690   2.009   2.611   2.787 -0.8193  0.0236  0.1336
16400TIP3    H170691   2.099   2.593   2.763 -1.1410 -0.2438 -0.9426
16400TIP3    H270692   2.013   2.688   2.843 -0.0132  0.6628 -0.7788
16401TIP3   OH270693   0.044   5.335  10.655  0.1806 -0.3507 -0.4017
16401TIP3    H170694   0.136   5.333  10.631  0.9408 -1.0153  2.1932
16401TIP3    H270695   0.036   5.407  10.718 -1.0258 -0.4105 -0.4503
16402TIP3   OH270696   3.635   6.680  14.350  0.5538  0.5814  0.2253
16402TIP3    H170697   3.558   6.674  14.407  0.9784  1.1090  0.8735
16402TIP3    H270698   3.599   6.708  14.266 -0.1868 -1.0436 -0.0352
16403TIP3   OH270699   6.570   1.434  11.384 -0.9300 -0.2014  0.6153
16403TIP3    H170700   6.577   1.344  11.415 -1.0192  0.1431  1.6671
16403TIP3    H270701   6.494   1.433  11.325  1.0615 -1.5377 -2.1614
16404TIP3   OH270702   2.064   1.755   3.016  0.0630  0.1164  0.6715
16404TIP3    H170703   2.042   1.784   3.104 -0.0356  0.7319  0.4463
16404TIP3    H270704   2.092   1.834   2.970 -0.5116 -0.0811 -0.0405
16405TIP3   OH270705   1.648   2.115   4.034  0.2809  0.3659  0.3077
16405TIP3    H170706   1.589   2.043   4.053  1.5166 -0.5834  0.6751
16405TIP3    H270707   1.632   2.179   4.104 -0.9031  0.5315 -0.0906
16406TIP3   OH270708   0.573   2.983  15.879  0.1403 -0.3315  0.1026
16406TIP3    H170709   0.637   3.039  15.923  1.0249 -0.7185 -0.6695
16406TIP3    H270710   0.585   3.000  15.786 -1.4194  0.1544 -0.0351
16407TIP3   OH270711   1.500   4.861  16.371  0.3884  0.8115 -0.1217
16407TIP3    H170712   1.499   4.935  16.309 -1.5963 -1.3126 -2.8917
16407TIP3    H270713   1.566   4.802  16.335  0.0081  0.0365  0.4390
16408TIP3   OH270714   1.642   2.597  12.899  0.0403  0.1254 -0.8800
16408TIP3    H170715   1.710   2.560  12.955  0.0210 -0.3183 -1.1371
16408TIP3    H270716   1.614   2.523  12.844 -2.0833 -0.2461  0.6039
16409TIP3   OH270717   5.261   6.106  12.710  0.5863  0.3660 -0.4777
16409TIP3    H170718   5.219   6.159  12.642  0.6821  0.7562 -0.2355
16409TIP3    H270719   5.191   6.091  12.774  1.1796  2.3793  0.7375
16410TIP3   OH270720   3.354   5.638  15.511  0.0628  0.1771 -0.2292
16410TIP3    H170721   3.340   5.650  15.417 -0.2353 -0.0712 -0.2190
16410TIP3    H270722   3.321   5.549  15.529 -1.5773  0.8799  0.4462
16411TIP3   OH270723   3.788   1.951  15.004  0.2173 -0.1653 -0.1240
16411TIP3    H170724   3.739   2.020  14.958 -2.9572 -1.0214  1.6570
16411TIP3    H270725   3.807   1.989  15.090  0.5874 -0.6770  0.0236
16412TIP3   OH270726   3.591   2.388  15.545  0.1406 -0.4958  0.5998
16412TIP3    H170727   3.648   2.384  15.622  0.5977  0.6706  0.3477
16412TIP3    H270728   3.598   2.301  15.506  1.2237 -0.5938  0.9611
16413TIP3   OH270729   5.192   4.720   4.551 -0.2372 -0.0659 -0.2639
16413TIP3    H170730   5.250   4.790   4.582  0.0412 -0.3992 -0.0283
16413TIP3    H270731   5.201   4.651   4.616 -3.0707  0.9365  1.4115
16414TIP3   OH270732   1.324   1.642  13.789 -0.0147  0.2706  0.7998
16414TIP3    H170733   1.359   1.555  13.771  0.3655  0.5962 -0.1345
16414TIP3    H270734   1.255   1.628  13.854  1.4613 -0.4685  2.2681
16415TIP3   OH270735   6.554   6.361   2.848 -0.4485 -0.5676  0.4132
16415TIP3    H170736   6.646   6.358   2.875  0.3329  0.7247 -1.8492
16415TIP3    H270737   6.506   6.371   2.930  1.4648 -0.4575  1.5963
16416TIP3   OH270738   6.444   1.424   5.771 -0.0491  0.3461  0.0245
16416TIP3    H170739   6.423   1.350   5.829  0.2675 -1.1746 -1.6896
16416TIP3    H270740   6.384   1.414   5.697  0.2508  1.6176 -0.4116
16417TIP3   OH270741   2.864   1.269  14.084  0.4672  0.6763 -0.1375
16417TIP3    H170742   2.955   1.287  14.060  0.5298  0.9088  0.2522
16417TIP3    H270743   2.853   1.175  14.069  1.0111  0.4899  0.5463
16418TIP3   OH270744   5.577   1.731   0.458  0.2409  0.0717 -0.1778
16418TIP3    H170745   5.606   1.653   0.410 -0.6238  0.0824 -0.7412
16418TIP3    H270746   5.658   1.772   0.489  0.6922 -1.1588  0.3144
16419TIP3   OH270747   2.685   2.854  12.432  0.7312 -0.5123 -0.1626
16419TIP3    H170748   2.778   2.872  12.422  1.0074  1.0924  3.5548
16419TIP3    H270749   2.679   2.805  12.514 -1.6917 -0.6363 -0.3514
16420TIP3   OH270750   3.132   1.416  11.809  0.1781 -0.3864  0.1941
16420TIP3    H170751   3.181   1.377  11.881  2.4499  1.3986 -0.2553
16420TIP3    H270752   3.198   1.433  11.742 -0.8416  2.8474 -0.1696
16421TIP3   OH270753   4.983   4.974  14.231  0.1968  0.2105 -0.9342
16421TIP3    H170754   4.972   4.928  14.148  0.8414  0.8078 -1.3626
16421TIP3    H270755   5.060   5.029  14.218  0.5845 -0.0393  0.2243
16422TIP3   OH270756   2.266   1.618   0.058 -0.6018  0.3414  0.1684
16422TIP3    H170757   2.323   1.670   0.001  1.3378 -1.8117  0.0017
16422TIP3    H270758   2.268   1.663   0.142 -0.0960  1.2763 -0.3338
16423TIP3   OH270759   1.643   6.477   4.393  0.4578 -0.6200  0.6424
16423TIP3    H170760   1.599   6.554   4.429 -0.2126 -0.2126 -0.9596
16423TIP3    H270761   1.668   6.425   4.470 -3.2587 -1.1452  1.6621
16424TIP3   OH270762   2.987   6.356   6.277  0.0936  0.4504  0.0470
16424TIP3    H170763   3.052   6.297   6.239 -0.1629  0.0655  0.1992
16424TIP3    H270764   2.920   6.298   6.313 -0.8904  0.8474 -1.0794
16425TIP3   OH270765   4.138   2.199   5.831  0.1226 -0.4913 -0.1770
16425TIP3    H170766   4.120   2.111   5.798 -0.2508 -1.9067  3.3661
16425TIP3    H270767   4.055   2.246   5.823  0.1151 -0.6756 -1.3571
16426TIP3   OH270768   3.225   2.996  15.258 -0.1326  0.3012 -0.1299
16426TIP3    H170769   3.146   2.962  15.300  0.4779  2.0378  2.6533
16426TIP3    H270770   3.286   2.923  15.258 -0.4226  0.0173  1.4426
16427TIP3   OH270771   5.669   1.222  12.827  0.4745 -0.1434 -1.1554
16427TIP3    H170772   5.746   1.276  12.816 -0.2437  1.1667 -0.0679
16427TIP3    H270773   5.645   1.194  12.738 -0.6072  3.4686 -2.1647
16428TIP3   OH270774   5.668   2.938  15.352  0.3604  0.0686  0.7047
16428TIP3    H170775   5.622   3.003  15.298 -0.1304 -0.4594  0.4656
16428TIP3    H270776   5.760   2.948  15.330  0.3917  1.2923  1.3400
16429TIP3   OH270777   5.238   3.956   2.892 -0.1993 -0.7488 -0.3147
16429TIP3    H170778   5.223   4.047   2.867  1.3389 -0.9437 -2.0996
16429TIP3    H270779   5.150   3.918   2.899 -0.8642  0.8853  0.6216
16430TIP3   OH270780   4.175   1.787  13.729 -0.1311 -0.7980 -0.5996
16430TIP3    H170781   4.178   1.736  13.648  1.2433  0.0297 -1.1193
16430TIP3    H270782   4.083   1.809  13.740 -0.2539 -0.1520 -2.4900
16431TIP3   OH270783   1.438   1.861  17.185  0.1738  0.0190  0.1482
16431TIP3    H170784   1.377   1.935  17.180  0.5860  0.4187  0.8301
16431TIP3    H270785   1.515   1.897  17.229 -0.2299 -1.2011  1.9784
16432TIP3   OH270786   6.211   4.141   6.269  0.3360 -0.0226  0.1785
16432TIP3    H170787   6.251   4.228   6.264 -1.1525  0.6536 -0.3076
16432TIP3    H270788   6.183   4.132   6.360  0.0461  0.2126  0.1131
16433TIP3   OH270789   1.622   1.964   3.177  0.7038  0.0970 -0.4657
16433TIP3    H170790   1.631   2.047   3.222  0.8548 -0.1067 -0.1167
16433TIP3    H270791   1.595   1.987   3.088 -0.8623  0.4373  0.0739
16434TIP3   OH270792   0.354   6.045   1.044 -0.4896  0.3885 -1.0865
16434TIP3    H170793   0.383   6.133   1.022  1.5434  0.1584  0.3706
16434TIP3    H270794   0.259   6.053   1.055 -0.5922  1.9860 -2.6011
16435TIP3   OH270795   6.230   5.970  14.358  0.1438 -0.5570  0.1158
16435TIP3    H170796   6.279   5.974  14.276  0.8346  1.1658  0.5580
16435TIP3    H270797   6.178   6.051  14.358 -2.1418 -1.9511  0.0220
16436TIP3   OH270798   5.037   1.632  16.946 -0.2863  0.2614  1.1974
16436TIP3    H170799   5.099   1.561  16.930  0.5424  1.1521  0.3187
16436TIP3    H270800   4.957   1.587  16.974  0.2878 -1.0036  0.9180
16437TIP3   OH270801   0.533   5.007  14.502  0.0959  0.1663  0.1396
16437TIP3    H170802   0.616   5.038  14.538 -1.2205  1.1371  2.5152
16437TIP3    H270803   0.528   4.915  14.528 -0.0969  0.4221  1.0252
16438TIP3   OH270804   4.761   4.163   5.114  0.1059  0.0270 -0.1150
16438TIP3    H170805   4.680   4.141   5.160  0.8158 -0.3180  1.0134
16438TIP3    H270806   4.830   4.148   5.178  1.1417 -0.4095 -1.2759
16439TIP3   OH270807   4.026   5.053  14.944 -0.0812 -0.0387 -0.1425
16439TIP3    H170808   4.043   5.095  14.860 -0.6591 -1.4897 -1.0101
16439TIP3    H270809   4.071   4.969  14.939  0.3125  0.0545  1.2240
16440TIP3   OH270810   0.148   1.548  11.279 -0.1698 -0.5841  0.2322
16440TIP3    H170811   0.238   1.576  11.264 -0.2366 -0.5508 -0.1018
16440TIP3    H270812   0.153   1.452  11.282 -0.1660 -0.5929 -0.0616
16441TIP3   OH270813   4.948   0.972  14.121 -0.0494  0.3503  0.6543
16441TIP3    H170814   4.898   1.041  14.077  0.7269  0.9214  0.6441
16441TIP3    H270815   4.907   0.963  14.207 -0.4530  0.4878  0.4776
16442TIP3   OH270816   2.976   3.810  12.164 -0.2971 -0.0778 -0.0832
16442TIP3    H170817   2.961   3.861  12.084  0.5441  0.2393 -0.0457
16442TIP3    H270818   3.015   3.728  12.133  1.2201  0.5555  0.0779
16443TIP3   OH270819   2.014   0.314   0.340 -0.1752 -0.0187  0.0105
16443TIP3    H170820   1.981   0.268   0.417 -1.6976 -1.7288 -1.5635
16443TIP3    H270821   2.105   0.334   0.361 -0.1348 -1.7149  1.6943
16444TIP3   OH270822   0.050   3.517  13.218  0.1472 -0.4529 -0.3045
16444TIP3    H170823   0.100   3.508  13.299  0.5125 -0.7236 -0.5564
16444TIP3    H270824   0.095   3.460  13.156  1.3664  1.6394 -1.4284
16445TIP3   OH270825   4.543   1.658   1.541  0.5069 -0.1603  0.0362
16445TIP3    H170826   4.535   1.570   1.577 -0.0540  0.6310  2.0171
16445TIP3    H270827   4.623   1.693   1.579 -0.5838  1.0308  1.3965
16446TIP3   OH270828   0.659   1.156  10.841  0.1858  0.4638 -0.1782
16446TIP3    H170829   0.698   1.171  10.927 -0.4315 -1.2668  0.4352
16446TIP3    H270830   0.565   1.163  10.856 -0.0185 -1.4214 -0.3291
16447TIP3   OH270831   1.504   5.928  14.531  0.6166  0.0592 -0.4311
16447TIP3    H170832   1.441   5.955  14.463  0.7068 -1.5652 -1.1943
16447TIP3    H270833   1.577   5.891  14.482  1.1154 -0.2555  0.5362
16448TIP3   OH270834   5.015   3.247   3.473  0.3229  0.5897 -0.6083
16448TIP3    H170835   4.921   3.265   3.482  0.4012  0.0614  1.8169
16448TIP3    H270836   5.022   3.198   3.391 -1.8879 -1.6553  0.4128
16449TIP3   OH270837   0.259   6.006  16.198 -0.5946  0.0900  0.0897
16449TIP3    H170838   0.266   5.932  16.258 -2.1388 -0.4099 -0.2817
16449TIP3    H270839   0.342   6.052  16.205 -0.5621 -0.2251  2.2383
16450TIP3   OH270840   4.556   0.970  11.260  0.0343  0.5381  0.0917
16450TIP3    H170841   4.544   0.900  11.195 -0.5398  1.4875 -0.8585
16450TIP3    H270842   4.467   1.004  11.275  0.1211  0.2027  1.5694
16451TIP3   OH270843   2.204   1.912  16.903  0.5875 -0.2405  0.1638
16451TIP3    H170844   2.205   1.911  16.999  0.1577 -0.2320  0.1671
16451TIP3    H270845   2.211   2.005  16.880  1.3450 -0.2855  0.1743
16452TIP3   OH270846   5.854   0.474   1.915  0.2670  0.0835  0.7966
16452TIP3    H170847   5.874   0.460   1.823 -0.8441 -2.8438  0.8916
16452TIP3    H270848   5.789   0.545   1.915  0.3389  0.1801 -0.6351
16453TIP3   OH270849   3.693   2.362  12.182 -0.0636  0.1693 -0.2948
16453TIP3    H170850   3.633   2.356  12.107  1.5043 -0.7500 -1.5293
16453TIP3    H270851   3.743   2.443  12.166  0.1233  0.0901 -0.1171
16454TIP3   OH270852   1.977   0.328  16.303  0.5219  0.0636  0.9934
16454TIP3    H170853   1.894   0.365  16.334 -2.2162 -4.9417  0.6716
16454TIP3    H270854   2.022   0.300  16.383  1.2667  1.4122  1.0797
16455TIP3   OH270855   3.340   3.793  16.483  0.0030  0.2207  0.1285
16455TIP3    H170856   3.353   3.709  16.527  1.9731  0.7476  0.6571
16455TIP3    H270857   3.290   3.772  16.404  0.5689 -1.4585  0.1822
16456TIP3   OH270858   5.061   1.011  11.883  0.0434  0.1152  0.2837
16456TIP3    H170859   5.131   0.989  11.821  1.1604  0.4400  1.3784
16456TIP3    H270860   5.015   1.084  11.842 -0.4676 -0.9039 -1.0266
16457TIP3   OH270861   1.484   3.587  17.204 -0.1532  0.3404  0.6339
16457TIP3    H170862   1.507   3.645  17.277  3.9640  0.3998 -0.4596
16457TIP3    H270863   1.522   3.502  17.228  1.5341  0.4288 -1.4416
16458TIP3   OH270864   5.508   5.399  13.686  0.0900  0.1048  0.8807
16458TIP3    H170865   5.437   5.431  13.740 -1.9434 -0.4022 -1.3316
16458TIP3    H270866   5.466   5.367  13.606  2.4606 -3.1663  0.7244
16459TIP3   OH270867   5.503   2.634   3.370  0.0512  0.6271 -0.2415
16459TIP3    H170868   5.521   2.609   3.279  0.1229 -1.1868  0.2431
16459TIP3    H270869   5.409   2.622   3.381 -0.2789  2.5930 -0.5492
16460TIP3   OH270870   4.018   4.531   0.145 -1.0755  0.1092 -0.3920
16460TIP3    H170871   4.002   4.439   0.168  0.3584 -0.4341 -1.3849
16460TIP3    H270872   3.949   4.552   0.082 -0.7541 -0.6740 -1.0318
16461TIP3   OH270873   2.388   6.742  11.338  0.7224  0.1719 -0.4441
16461TIP3    H170874   2.446   6.818  11.330 -0.8389  1.3873 -0.6769
16461TIP3    H270875   2.362   6.741  11.430 -0.9842  1.2733 -0.8848
16462TIP3   OH270876   4.215   4.852   3.213  0.8068 -0.1362 -0.2283
16462TIP3    H170877   4.283   4.918   3.203  0.2652  0.3854 -0.4738
16462TIP3    H270878   4.225   4.795   3.137  0.6412  0.2447 -0.5398
16463TIP3   OH270879   0.145   1.810   0.595 -0.1287 -0.0794  1.0750
16463TIP3    H170880   0.102   1.801   0.680 -2.1541  1.0513  0.2528
16463TIP3    H270881   0.089   1.761   0.535  1.1942 -0.7498  0.3522
16464TIP3   OH270882   2.477   0.748   0.485  0.5360  0.1221 -0.1756
16464TIP3    H170883   2.482   0.842   0.499 -2.2156  0.2400  0.5875
16464TIP3    H270884   2.506   0.735   0.394 -0.6617  1.9416 -0.8685
16465TIP3   OH270885   2.883   3.365   5.217 -0.0419  0.1272 -0.2607
16465TIP3    H170886   2.825   3.293   5.243 -0.0848  0.1152 -0.3879
16465TIP3    H270887   2.835   3.444   5.242 -0.4810  0.1414 -1.1015
16466TIP3   OH270888   2.415   4.559  14.659 -0.6467 -0.3517  0.2061
16466TIP3    H170889   2.389   4.474  14.696 -2.1787 -0.3549 -0.7682
16466TIP3    H270890   2.333   4.596  14.624 -0.1968  1.9620  1.4123
16467TIP3   OH270891   2.012   1.712  14.064 -0.3687  0.0662 -0.3284
16467TIP3    H170892   1.939   1.713  14.127  0.1378  0.1466  0.2671
16467TIP3    H270893   2.090   1.703  14.119  0.1354  0.9493 -0.8940
16468TIP3   OH270894   5.168   4.616  15.644 -0.1408 -0.6362 -0.1603
16468TIP3    H170895   5.187   4.555  15.715  0.1927  0.3442  0.6161
16468TIP3    H270896   5.076   4.640  15.657  0.1060  0.0643  0.3701
16469TIP3   OH270897   2.182   4.957  16.704  0.2787  0.4968  0.6729
16469TIP3    H170898   2.224   5.018  16.763  1.6886 -0.3342  0.5729
16469TIP3    H270899   2.158   5.010  16.627  2.1309  0.8149  0.2723
16470TIP3   OH270900   3.519   6.081   5.352  0.3181  0.8584 -0.4353
16470TIP3    H170901   3.499   6.005   5.297 -0.6925  0.4161  0.5031
16470TIP3    H270902   3.433   6.121   5.368  0.3501  0.0032  2.2089
16471TIP3   OH270903   4.926   1.140   0.341  0.0239 -0.6814  0.2840
16471TIP3    H170904   4.869   1.100   0.407 -1.5894  2.0681  0.7290
16471TIP3    H270905   4.895   1.105   0.258 -1.7645  0.0231  0.5983
16472TIP3   OH270906   3.792   3.603   5.036  0.1551 -0.0861  0.5054
16472TIP3    H170907   3.834   3.589   4.952  0.6651  0.9299  0.5716
16472TIP3    H270908   3.730   3.674   5.021  0.1676  0.0269  0.9541
16473TIP3   OH270909   0.583   5.190   3.262 -0.1420  0.2055 -0.2295
16473TIP3    H170910   0.517   5.248   3.299 -0.6459  0.3137 -1.2622
16473TIP3    H270911   0.533   5.118   3.223  0.3748 -0.0150 -0.5079
16474TIP3   OH270912   2.162   1.936  16.510 -0.8196 -0.1066  0.2933
16474TIP3    H170913   2.256   1.930  16.521 -0.8738  0.6364  1.2843
16474TIP3    H270914   2.148   1.931  16.415  0.1900 -0.4399  0.1614
16475TIP3   OH270915   3.658   2.441  11.720 -0.1060 -0.3590  0.3977
16475TIP3    H170916   3.593   2.496  11.764  1.6388  0.9735  1.4661
16475TIP3    H270917   3.715   2.504  11.675  0.4011 -1.4923 -0.5743
16476TIP3   OH270918   3.594   3.321   0.457  0.2557 -0.4180 -0.5584
16476TIP3    H170919   3.578   3.362   0.542 -0.2171  0.3285 -1.0011
16476TIP3    H270920   3.612   3.394   0.398  0.4573 -0.9207 -1.1309
16477TIP3   OH270921   5.105   4.039  17.187  0.8063  0.0001 -0.5435
16477TIP3    H170922   5.183   4.044  17.242 -0.3208 -2.3283  1.4971
16477TIP3    H270923   5.045   4.105  17.222  0.3728 -0.9791  0.6195
16478TIP3   OH270924   2.323   6.094  13.093  0.0340 -0.0993  0.4567
16478TIP3    H170925   2.389   6.129  13.153 -1.4181  0.8968  1.5303
16478TIP3    H270926   2.244   6.143  13.114 -0.4349  0.6692 -2.6074
16479TIP3   OH270927   2.273   6.269   2.673  0.3547  0.1421  0.4228
16479TIP3    H170928   2.208   6.337   2.691 -0.1736 -0.2514  0.0695
16479TIP3    H270929   2.327   6.305   2.603  0.4258  0.4174  0.6183
16480TIP3   OH270930   5.109   2.846  17.126 -0.1284 -0.5946 -0.2458
16480TIP3    H170931   5.120   2.941  17.123 -0.9957 -0.4232  1.0045
16480TIP3    H270932   5.163   2.819  17.200  0.1041 -1.0807 -0.5897
16481TIP3   OH270933   5.538   0.610   3.254  0.2789 -0.1166  0.1022
16481TIP3    H170934   5.618   0.617   3.203 -0.1590 -0.8220 -0.6883
16481TIP3    H270935   5.559   0.548   3.324  0.7788  0.6143  0.6215
16482TIP3   OH270936   0.883   4.327  10.859 -0.1934 -0.1046 -0.5060
16482TIP3    H170937   0.826   4.329  10.936 -0.0246  1.1567 -0.3996
16482TIP3    H270938   0.931   4.245  10.868  2.2519  1.4451  2.5562
16483TIP3   OH270939   4.895   3.502   2.932  0.3185  0.3926  0.2632
16483TIP3    H170940   4.864   3.456   3.010  0.4317 -0.7280 -0.3327
16483TIP3    H270941   4.816   3.521   2.882  0.4357 -1.4111 -0.6852
16484TIP3   OH270942   6.721   0.139   2.207  0.0223 -0.1302  0.5170
16484TIP3    H170943   6.635   0.121   2.169 -0.0192  0.2061  0.4469
16484TIP3    H270944   6.712   0.226   2.247 -0.1614 -0.7939  1.9784
16485TIP3   OH270945   5.478   4.467   4.542  0.1197 -0.6632  0.1707
16485TIP3    H170946   5.520   4.459   4.627  0.3109 -0.1618  0.1269
16485TIP3    H270947   5.419   4.392   4.537 -0.4420 -0.3058  1.0537
16486TIP3   OH270948   3.156   5.264  17.142  0.1473  0.3745  0.3368
16486TIP3    H170949   3.146   5.338  17.083  0.8099  0.7055  0.6224
16486TIP3    H270950   3.078   5.266  17.197 -0.9623 -0.5250 -1.1415
16487TIP3   OH270951   1.876   2.131   0.084 -0.2565  0.2261  0.5756
16487TIP3    H170952   1.968   2.154   0.097 -0.3333  0.4588  0.7137
16487TIP3    H270953   1.878   2.057   0.023 -0.1386  2.3237 -2.1001
16488TIP3   OH270954   1.173   5.613  10.955  0.5873 -0.3192  0.6874
16488TIP3    H170955   1.178   5.547  11.025  1.1516 -1.9929 -0.8409
16488TIP3    H270956   1.221   5.688  10.989  0.3176 -0.8574  2.3371
16489TIP3   OH270957   4.613   2.191   3.502  0.4301 -0.7806 -0.1914
16489TIP3    H170958   4.642   2.218   3.589  0.7137 -1.0674 -0.1937
16489TIP3    H270959   4.587   2.100   3.513 -2.1485 -0.0664  0.2006
16490TIP3   OH270960   4.190   0.197   1.241 -0.5363 -0.0965  0.1712
16490TIP3    H170961   4.267   0.252   1.259 -0.1143  0.3629 -2.5959
16490TIP3    H270962   4.124   0.259   1.209 -0.9166 -0.8907 -0.6058
16491TIP3   OH270963   6.438   0.343  11.193 -0.1062  0.1559  0.5867
16491TIP3    H170964   6.488   0.262  11.198  0.3941  0.1388 -2.5264
16491TIP3    H270965   6.346   0.316  11.195  0.0072 -0.1984  2.0760
16492TIP3   OH270966   0.839   4.573   1.209  0.2341  0.2392  0.0940
16492TIP3    H170967   0.912   4.600   1.266  0.5628  0.4932 -0.4407
16492TIP3    H270968   0.824   4.649   1.152  1.0199 -0.5940 -1.2732
16493TIP3   OH270969   5.041   0.019   4.822 -0.5796 -0.0065 -0.2182
16493TIP3    H170970   5.124   0.026   4.868 -0.1679 -0.1031 -0.9314
16493TIP3    H270971   4.980  -0.016   4.887 -0.2827  0.8791  0.5524
16494TIP3   OH270972   2.988   4.880  14.946 -0.6667  0.2187  0.2351
16494TIP3    H170973   2.930   4.954  14.966 -0.0182  0.4905  1.1505
16494TIP3    H270974   3.058   4.886  15.010 -0.0297 -0.5721 -0.3646
16495TIP3   OH270975   5.686   5.880  14.234 -0.0717 -0.1291  0.5948
16495TIP3    H170976   5.726   5.914  14.154  0.4886 -0.6626  0.6397
16495TIP3    H270977   5.741   5.806  14.258 -1.2360 -1.0419  0.5263
16496TIP3   OH270978   4.980   1.970  13.870 -0.3055 -0.4228 -0.0687
16496TIP3    H170979   5.009   1.969  13.779  1.0017  0.5805  0.2960
16496TIP3    H270980   4.885   1.967  13.865 -0.2500 -0.5813 -1.4573
16497TIP3   OH270981   1.630   3.175  11.784  0.5018  0.3176  0.2482
16497TIP3    H170982   1.539   3.160  11.806 -0.3197  1.9279 -1.7169
16497TIP3    H270983   1.654   3.104  11.725  0.5262 -0.1054  0.7664
16498TIP3   OH270984   5.440   0.350   4.026 -0.2331  0.6152  0.0729
16498TIP3    H170985   5.472   0.370   3.938  1.0882 -0.6680  0.2201
16498TIP3    H270986   5.480   0.415   4.082 -0.0924  0.6919 -0.1170
16499TIP3   OH270987   0.821   5.299  16.341 -0.0701  0.0892 -0.1607
16499TIP3    H170988   0.888   5.247  16.387 -0.8020  0.5092  1.4500
16499TIP3    H270989   0.745   5.241  16.336 -0.1102  0.1738 -0.5099
16500TIP3   OH270990   4.775   4.504   5.934 -0.7092 -0.6177 -0.1830
16500TIP3    H170991   4.776   4.600   5.939  1.8686 -0.5631 -0.6105
16500TIP3    H270992   4.684   4.481   5.953 -0.9977  1.8023  2.0639
16501TIP3   OH270993   0.901   5.721   2.886 -0.6185 -0.8958  0.0237
16501TIP3    H170994   0.964   5.655   2.913  0.2180 -0.7317 -1.4384
16501TIP3    H270995   0.892   5.709   2.791 -1.3140  0.3413 -0.0901
16502TIP3   OH270996   4.185   1.825   2.468  0.2036 -0.0804 -0.8471
16502TIP3    H170997   4.268   1.787   2.438  0.5986  0.0576  0.0559
16502TIP3    H270998   4.129   1.824   2.390  0.9428 -0.4743 -1.3840
16503TIP3   OH270999   0.841   4.771   2.817  0.3920 -0.2600  0.7315
16503TIP3    H171000   0.812   4.702   2.875 -0.6626  0.1656  0.7290
16503TIP3    H271001   0.936   4.773   2.828  0.2058 -0.0347  2.6142
16504TIP3   OH271002   3.174   4.912  14.578 -0.1824 -0.7854 -0.0009
16504TIP3    H171003   3.233   4.973  14.621  0.4076 -2.2325  1.3682
16504TIP3    H271004   3.087   4.936  14.610  0.2306 -1.7680  2.0670
16505TIP3   OH271005   4.496   0.686  13.956  0.0865 -0.1409  0.0848
16505TIP3    H171006   4.528   0.776  13.957  0.2929 -0.2086  1.3649
16505TIP3    H271007   4.574   0.633  13.940  0.4721 -0.2333  2.0374
16506TIP3   OH271008   2.750   3.058   5.912  0.0086 -0.6030  0.2413
16506TIP3    H171009   2.838   3.094   5.905 -0.3321  0.0732 -0.9520
16506TIP3    H271010   2.715   3.095   5.993  0.6010 -0.3742  0.3964
16507TIP3   OH271011   4.268   5.910  12.523 -0.4347  0.6833 -0.1645
16507TIP3    H171012   4.206   5.839  12.502 -0.4851  0.3031  1.1586
16507TIP3    H271013   4.240   5.940  12.610 -0.0538  1.9503 -0.4651
16508TIP3   OH271014   4.325   4.135  13.564 -0.4627  0.5402  0.3030
16508TIP3    H171015   4.333   4.211  13.506 -0.5800 -0.0287 -0.4747
16508TIP3    H271016   4.344   4.060  13.507  0.5734  0.0451  1.2625
16509TIP3   OH271017   5.486   5.632   0.740 -0.3487  0.0563  0.1475
16509TIP3    H171018   5.443   5.689   0.676 -1.2672 -1.5508 -0.7231
16509TIP3    H271019   5.457   5.665   0.825 -2.4495 -0.2574 -0.3817
16510TIP3   OH271020   6.032   3.877   2.080 -0.5764 -0.0267 -0.1313
16510TIP3    H171021   6.070   3.791   2.064  0.5424  0.4912 -0.3199
16510TIP3    H271022   5.993   3.870   2.168  1.7609  0.0180  0.9820
16511TIP3   OH271023   5.992   2.264   4.202 -0.6959 -0.2408 -0.5765
16511TIP3    H171024   6.049   2.287   4.276 -1.6808  1.8239 -0.3976
16511TIP3    H271025   5.996   2.168   4.198  0.6038 -0.3120  1.1526
16512TIP3   OH271026   2.419   1.652  16.419  0.2737 -0.3956 -0.5594
16512TIP3    H171027   2.404   1.604  16.338  1.6960 -1.8444 -0.0187
16512TIP3    H271028   2.457   1.587  16.479  0.4822  0.9515  0.8434
16513TIP3   OH271029   6.574   1.545   3.696 -0.7063  0.2241  0.5106
16513TIP3    H171030   6.654   1.540   3.643  0.7116 -0.1690  2.5433
16513TIP3    H271031   6.503   1.524   3.635  1.0832 -3.3358 -0.6491
16514TIP3   OH271032   1.619   2.903  11.977 -0.4920 -0.0728  0.0083
16514TIP3    H171033   1.543   2.846  11.969  0.3399 -0.9697 -2.8218
16514TIP3    H271034   1.622   2.951  11.894  0.7232  1.6849  0.9941
16515TIP3   OH271035   1.734   2.774   1.089 -0.0064  0.2149 -0.2308
16515TIP3    H171036   1.658   2.718   1.071 -1.1566  1.5520  0.2953
16515TIP3    H271037   1.772   2.737   1.169  0.6408 -1.1771 -1.1363
16516TIP3   OH271038   2.162   2.823  15.442 -0.0893 -0.2148 -0.4204
16516TIP3    H171039   2.179   2.861  15.356  2.2268 -0.6766 -0.2310
16516TIP3    H271040   2.162   2.729  15.427  0.8411 -0.3169  0.1311
16517TIP3   OH271041   3.066   4.753   0.613  0.1775 -0.6785 -1.0265
16517TIP3    H171042   3.099   4.824   0.559 -2.6456  1.0743 -0.6738
16517TIP3    H271043   3.008   4.704   0.555 -0.6572 -0.5030 -0.3573
16518TIP3   OH271044   3.298   3.442  12.302  0.0201 -0.3049 -0.6220
16518TIP3    H171045   3.342   3.524  12.324  0.8481 -0.9728  0.3183
16518TIP3    H271046   3.205   3.465  12.298  0.2229  0.6369 -0.2103
16519TIP3   OH271047   1.146   1.387   1.311 -0.5165 -0.5443 -0.2465
16519TIP3    H171048   1.058   1.352   1.329 -0.5185 -1.0829 -1.1875
16519TIP3    H271049   1.196   1.367   1.389 -1.6212  1.2031  0.9823
16520TIP3   OH271050   3.211   5.724  14.887  1.0159  0.3064 -0.2642
16520TIP3    H171051   3.197   5.751  14.978  1.4923  0.0274 -0.1046
16520TIP3    H271052   3.175   5.636  14.882 -0.4793  0.9151 -0.7704
16521TIP3   OH271053   3.366   6.468  11.186 -0.5488  0.3092 -0.4690
16521TIP3    H171054   3.436   6.532  11.172  0.5052 -0.9285 -1.0771
16521TIP3    H271055   3.296   6.496  11.127  1.0505 -0.7333 -3.0205
16522TIP3   OH271056   1.385   5.644  11.875 -0.0785 -0.5637 -0.5653
16522TIP3    H171057   1.458   5.665  11.816  0.2864 -0.0936  0.0389
16522TIP3    H271058   1.386   5.714  11.939 -3.0033  1.2165 -2.2485
16523TIP3   OH271059   0.850   5.592  13.848 -0.0608  0.2716  0.6295
16523TIP3    H171060   0.890   5.654  13.787 -4.1913  0.4620 -2.3170
16523TIP3    H271061   0.778   5.641  13.888 -0.2319 -1.1928  2.2325
16524TIP3   OH271062   5.980   4.948  14.727 -0.3554 -0.4451  0.6651
16524TIP3    H171063   6.008   5.008  14.658  0.0160  0.2107  1.3855
16524TIP3    H271064   5.952   5.004  14.799 -1.8442 -1.0987  0.6456
16525TIP3   OH271065   0.136   3.453  13.528 -0.5435 -0.5172 -0.5649
16525TIP3    H171066   0.227   3.463  13.556 -0.7060 -1.4713  0.3765
16525TIP3    H271067   0.086   3.450  13.610 -1.3739 -0.4786 -1.0541
16526TIP3   OH271068   5.050   0.359   3.447 -0.2526 -0.5241 -0.1111
16526TIP3    H171069   4.991   0.311   3.505 -0.7383 -0.9987 -0.9708
16526TIP3    H271070   4.992   0.405   3.386  0.2539 -0.4517 -0.5473
16527TIP3   OH271071   2.826   3.144  15.313 -0.3326  0.0210  0.3515
16527TIP3    H171072   2.821   3.232  15.351 -1.8154  0.7557 -1.4074
16527TIP3    H271073   2.743   3.103  15.338  0.3083 -0.8806  1.0776
16528TIP3   OH271074   1.195   2.131   1.735 -0.7639 -0.1770 -0.5907
16528TIP3    H171075   1.222   2.117   1.644 -0.5425  0.9849 -0.7150
16528TIP3    H271076   1.100   2.129   1.732 -0.7816 -2.5309 -0.4361
16529TIP3   OH271077   4.338   5.130  14.768  0.1590 -0.2465  0.3444
16529TIP3    H171078   4.353   5.173  14.684  1.5536  0.7622  1.0804
16529TIP3    H271079   4.259   5.077  14.753 -0.3873  0.9059 -1.2136
16530TIP3   OH271080   2.285   3.655   0.259 -0.1933 -0.3859 -0.2659
16530TIP3    H171081   2.239   3.573   0.275  0.4554 -1.0739 -1.7441
16530TIP3    H271082   2.227   3.703   0.200  0.3112 -0.6504 -0.9939
16531TIP3   OH271083   3.356   6.581   3.017 -0.2299  0.6836 -0.0818
16531TIP3    H171084   3.274   6.549   2.978  0.8105 -1.9033 -0.3013
16531TIP3    H271085   3.386   6.648   2.955 -1.2261  0.3183 -1.0085
16532TIP3   OH271086   6.735   5.441  12.407  0.5473 -0.1316  0.2263
16532TIP3    H171087   6.810   5.400  12.450  0.6825 -0.1963 -0.0646
16532TIP3    H271088   6.710   5.378  12.339 -0.8874 -0.9366  1.4430
16533TIP3   OH271089   6.173   0.898   5.576  0.2471 -0.4046  0.1658
16533TIP3    H171090   6.205   0.883   5.487  0.9647  0.2857  0.3027
16533TIP3    H271091   6.187   0.991   5.592  2.2917 -0.9052  1.8170
16534TIP3   OH271092   6.488   5.421  11.498  0.5205  0.3788 -0.1416
16534TIP3    H171093   6.580   5.435  11.476  0.7651  0.9868  1.1560
16534TIP3    H271094   6.439   5.471  11.433  1.1925  1.6254  0.2789
16535TIP3   OH271095   6.117   0.317   1.910  0.3917  0.0855  0.0699
16535TIP3    H171096   6.037   0.265   1.910  0.5276 -0.1508  1.0072
16535TIP3    H271097   6.130   0.343   1.819  1.4581 -3.2807 -0.9014
16536TIP3   OH271098   5.027   4.744  16.122  0.3545  0.0221 -0.2414
16536TIP3    H171099   4.995   4.820  16.073  0.3436 -0.4427 -0.9730
16536TIP3    H271100   5.031   4.673  16.057  0.2777 -0.6291  0.4428
16537TIP3   OH271101   4.339   6.179  11.040  0.8090  0.5110  0.6414
16537TIP3    H171102   4.376   6.111  11.097 -1.6253 -0.9750  0.5916
16537TIP3    H271103   4.312   6.248  11.101  0.8946  0.2644  0.9646
16538TIP3   OH271104   5.226   6.501   3.546  0.1832  0.4476  0.5304
16538TIP3    H171105   5.158   6.441   3.573  0.6034 -2.7928 -4.2804
16538TIP3    H271106   5.305   6.470   3.590 -0.0525 -1.1084 -0.0923
16539TIP3   OH271107   3.897   5.476   0.009  0.0089  0.6709  0.0438
16539TIP3    H171108   3.805   5.479   0.037 -0.4803  3.7346 -1.4338
16539TIP3    H271109   3.913   5.384  -0.009 -2.3799 -0.1355  1.5380
16540TIP3   OH271110   6.181   0.533  13.438 -0.0091  0.0752 -0.2702
16540TIP3    H171111   6.097   0.532  13.392  0.6233 -0.3565 -1.4309
16540TIP3    H271112   6.171   0.468  13.508 -0.7686  0.3128 -0.1502
16541TIP3   OH271113   3.456   4.239   2.762  0.5948 -0.2660  0.6337
16541TIP3    H171114   3.511   4.161   2.776  1.6845  0.6735  1.8511
16541TIP3    H271115   3.380   4.224   2.818  0.7179 -0.5333  0.7366
16542TIP3   OH271116   4.122   0.941  15.099  0.0037 -0.4812 -0.0420
16542TIP3    H171117   4.113   0.994  15.020  1.3086  1.6588  1.1282
16542TIP3    H271118   4.039   0.952  15.145 -0.0117 -0.0273 -0.1702
16543TIP3   OH271119   6.725   2.784  12.417  0.2127 -0.5857 -0.3863
16543TIP3    H171120   6.730   2.729  12.338  1.6865 -1.6487  0.3952
16543TIP3    H271121   6.809   2.830  12.419 -0.6040  0.9874 -0.4737
16544TIP3   OH271122   2.237   6.248  13.477  0.6703  0.3700  0.4699
16544TIP3    H171123   2.194   6.162  13.481 -0.6362  0.9451 -0.4332
16544TIP3    H271124   2.279   6.250  13.392 -0.3188  1.0531 -0.0275
16545TIP3   OH271125   0.375   0.768  11.534  0.3075  0.1103  0.0765
16545TIP3    H171126   0.421   0.757  11.618  0.9027 -3.1333 -0.5323
16545TIP3    H271127   0.285   0.743  11.554  0.3788 -0.3432 -0.1625
16546TIP3   OH271128   5.003   2.118   6.276  0.5098  0.3596 -0.7160
16546TIP3    H171129   5.085   2.068   6.282  1.0347  1.3796  1.8766
16546TIP3    H271130   4.947   2.080   6.344  0.1404  1.8456 -0.1495
16547TIP3   OH271131   0.682   1.946   5.875 -0.1784 -0.0535 -0.1338
16547TIP3    H171132   0.730   1.976   5.952 -1.2897  1.2908  0.0802
16547TIP3    H271133   0.595   1.985   5.884 -0.9934 -1.5658 -1.0296
16548TIP3   OH271134   6.229   0.011  14.618 -0.2563 -0.0626 -0.6195
16548TIP3    H171135   6.193   0.014  14.530  1.4338  0.0267 -1.3581
16548TIP3    H271136   6.279  -0.071  14.621 -0.0959  0.0516  0.1621
16549TIP3   OH271137   2.870   5.195   1.456  0.1513 -0.1509  0.4428
16549TIP3    H171138   2.933   5.230   1.393  0.6121 -1.2167  0.2821
16549TIP3    H271139   2.788   5.238   1.433  0.5672  0.3832 -0.1053
16550TIP3   OH271140   0.507   0.890  12.356 -0.2164  0.1027 -0.3243
16550TIP3    H171141   0.429   0.925  12.311 -1.4283 -1.9861  0.0133
16550TIP3    H271142   0.474   0.862  12.441  1.0946 -0.1154  0.1183
16551TIP3   OH271143   3.196   5.072  13.226  0.4076 -0.1957  0.5216
16551TIP3    H171144   3.196   4.989  13.273  2.6403  0.8383  2.5838
16551TIP3    H271145   3.136   5.128  13.274 -1.4574 -0.6735 -1.1402
16552TIP3   OH271146   3.988   1.899   1.312  0.4998  0.3942  1.0625
16552TIP3    H171147   3.971   1.946   1.230 -0.5365  0.7187  1.4391
16552TIP3    H271148   4.032   1.963   1.367  1.3250  0.1311  0.7150
16553TIP3   OH271149   5.602   2.119   3.742  0.9368 -0.0348  0.3227
16553TIP3    H171150   5.539   2.086   3.678 -0.8241  0.6773  1.6254
16553TIP3    H271151   5.643   2.195   3.699  0.8939 -0.4757 -0.5114
16554TIP3   OH271152   3.280   4.596   1.374 -0.2257 -0.2570 -0.4960
16554TIP3    H171153   3.262   4.576   1.282 -1.0348 -0.1979 -0.3612
16554TIP3    H271154   3.274   4.691   1.380 -1.4476 -0.3411 -0.1428
16555TIP3   OH271155   1.842   5.304   0.985  0.1303  0.2447  0.4718
16555TIP3    H171156   1.833   5.230   0.924  1.1305 -0.4837  1.1811
16555TIP3    H271157   1.776   5.367   0.956 -0.0490 -0.4886 -0.7808
16556TIP3   OH271158   4.187   5.415   4.900 -0.0379  0.0695  0.1289
16556TIP3    H171159   4.136   5.485   4.940 -0.9104 -0.5882  0.1871
16556TIP3    H271160   4.181   5.342   4.962 -0.8070 -0.7197 -0.8415
16557TIP3   OH271161   0.983   1.818   4.751  0.0410  0.4256 -0.7866
16557TIP3    H171162   1.060   1.874   4.759 -0.9181  1.6284  0.5098
16557TIP3    H271163   1.002   1.743   4.807 -0.2418  1.3533  0.5867
16558TIP3   OH271164   5.163   2.246  16.139 -0.2701  0.5198  0.2134
16558TIP3    H171165   5.090   2.292  16.180 -0.7650 -0.0230 -0.0551
16558TIP3    H271166   5.136   2.155  16.136 -0.0697  0.4842 -0.9574
16559TIP3   OH271167   2.407   2.277  14.880  0.2384  0.2821 -0.1448
16559TIP3    H171168   2.349   2.334  14.930 -0.9091 -0.8658 -0.1137
16559TIP3    H271169   2.348   2.228  14.822  1.0259 -1.6549  0.6005
16560TIP3   OH271170   5.229   5.052  13.300 -0.4145 -0.4783  0.3546
16560TIP3    H171171   5.299   4.990  13.317  0.0855  0.5392  2.3225
16560TIP3    H271172   5.157   5.024  13.355 -1.2537 -0.9500 -0.9262
16561TIP3   OH271173   6.457   1.540   0.888  0.3410 -0.3136  0.3985
16561TIP3    H171174   6.389   1.561   0.953  0.3928 -2.0459  1.0693
16561TIP3    H271175   6.515   1.479   0.933  1.3468 -0.2485 -0.7580
16562TIP3   OH271176   6.221   6.620   1.652 -0.9867 -0.5657 -0.1258
16562TIP3    H171177   6.222   6.713   1.675 -1.8303 -0.5437 -0.1692
16562TIP3    H271178   6.215   6.575   1.737 -0.1413 -0.6029 -0.0755
16563TIP3   OH271179   5.010   3.198   0.549  0.3844  0.1081 -0.4364
16563TIP3    H171180   5.065   3.245   0.486 -0.0278  1.3302  0.0777
16563TIP3    H271181   4.953   3.266   0.586 -1.0362 -1.0051 -0.4865
16564TIP3   OH271182   5.044   5.947   2.567  0.1397  0.1284  0.2938
16564TIP3    H171183   4.960   5.975   2.605  0.4720  0.3026  0.9064
16564TIP3    H271184   5.073   5.876   2.623 -0.9445 -1.8935 -1.5374
16565TIP3   OH271185   0.425   5.261   5.468  0.0391  0.9315 -0.6808
16565TIP3    H171186   0.393   5.343   5.503 -1.7113 -0.8652  2.3596
16565TIP3    H271187   0.355   5.198   5.486  1.8069 -1.4967 -1.6964
16566TIP3   OH271188   3.337   3.470  16.020 -0.0595  0.3155 -0.0381
16566TIP3    H171189   3.243   3.468  16.005  0.1678 -0.1101 -1.5685
16566TIP3    H271190   3.362   3.561  16.005 -0.1106  0.2649 -0.4317
16567TIP3   OH271191   3.978   0.571   5.762 -0.0264  0.6717  0.4280
16567TIP3    H171192   3.950   0.662   5.779  0.0935  0.7412  0.2515
16567TIP3    H271193   4.006   0.571   5.671  3.2110  1.2848  1.3194
16568TIP3   OH271194   0.595   0.851  13.985 -0.7720 -0.1800 -0.2828
16568TIP3    H171195   0.645   0.780  13.945  2.2811  1.3839  0.3834
16568TIP3    H271196   0.577   0.911  13.912 -0.9086 -0.3548 -0.3926
16569TIP3   OH271197   5.957   2.381   2.425 -0.2391  0.5053 -0.1699
16569TIP3    H171198   6.031   2.437   2.448 -0.9030  0.9123  1.0581
16569TIP3    H271199   5.997   2.304   2.384  0.8741  0.6973  0.5071
16570TIP3   OH271200   6.010   3.877   0.830 -0.2911 -0.1547 -0.1756
16570TIP3    H171201   6.059   3.912   0.756  2.4091 -1.4957  0.8479
16570TIP3    H271202   5.967   3.799   0.797  0.2359 -0.3007 -0.5089
16571TIP3   OH271203   5.346   4.046   0.006  0.1059 -0.1163  0.4145
16571TIP3    H171204   5.381   4.107   0.070 -0.3455 -0.3357  0.8793
16571TIP3    H271205   5.420   4.025  -0.051  0.4261  0.3450  0.6574
16572TIP3   OH271206   5.097   0.573  13.907 -0.5646 -0.1717 -0.2061
16572TIP3    H171207   5.011   0.537  13.884 -0.9127 -0.6266  1.5827
16572TIP3    H271208   5.078   0.637  13.976  0.3674  1.1375 -1.1294
16573TIP3   OH271209   1.443   0.685  15.572 -0.0964 -0.3298 -0.3387
16573TIP3    H171210   1.461   0.594  15.595  3.6059  0.8073  2.1745
16573TIP3    H271211   1.355   0.701  15.607 -0.2530 -2.5771  0.4547
16574TIP3   OH271212   0.180   0.279   3.107  0.1427  0.1682  0.4920
16574TIP3    H171213   0.119   0.340   3.149 -0.6778 -1.1551  1.2868
16574TIP3    H271214   0.264   0.294   3.151  0.9241  3.1110 -1.6608
16575TIP3   OH271215   2.311   3.683   3.109 -0.5099  0.4621 -0.1318
16575TIP3    H171216   2.307   3.620   3.181  1.2828  1.5756  1.0169
16575TIP3    H271217   2.325   3.629   3.031 -3.8653 -0.8837  0.0186
16576TIP3   OH271218   5.941   6.736   6.424 -0.7704 -0.4016 -0.4449
16576TIP3    H171219   5.929   6.674   6.352 -0.4160 -0.0140 -0.8490
16576TIP3    H271220   5.970   6.817   6.381  2.4705 -0.9924  0.3233
16577TIP3   OH271221   6.313   2.822  11.926  0.0965  0.1266  0.0597
16577TIP3    H171222   6.364   2.756  11.879 -1.6712  0.1464 -2.0354
16577TIP3    H271223   6.344   2.816  12.016  1.2704 -2.3039 -0.4193
16578TIP3   OH271224   4.428   2.188  17.076 -0.2890  0.4336  0.0646
16578TIP3    H171225   4.425   2.093  17.089  0.9372  0.5381  1.3828
16578TIP3    H271226   4.491   2.201  17.005 -1.3241  0.2329 -0.9219
16579TIP3   OH271227   1.493   3.118  13.371 -0.0185  0.6039 -0.3581
16579TIP3    H171228   1.560   3.059  13.337  0.0707 -0.2261  1.1966
16579TIP3    H271229   1.539   3.173  13.434 -0.5480  0.8834 -0.2101
16580TIP3   OH271230   2.781   5.432  14.060  0.1861  0.2058 -0.2459
16580TIP3    H171231   2.795   5.506  14.120 -1.5754  0.3758  0.0088
16580TIP3    H271232   2.686   5.424  14.054  0.3442 -1.3329 -1.1699
16581TIP3   OH271233   1.916   4.411   4.945  0.1289 -0.0821 -0.5864
16581TIP3    H171234   1.945   4.410   5.036 -2.1876  0.6714  0.2293
16581TIP3    H271235   1.954   4.492   4.908  1.9583 -0.9278 -0.6652
16582TIP3   OH271236   2.119   1.250   3.717  0.1319  0.1790 -0.0580
16582TIP3    H171237   2.065   1.259   3.795  0.1702  0.0582 -0.0172
16582TIP3    H271238   2.076   1.182   3.665  0.7250 -0.5527  0.3859
16583TIP3   OH271239   6.708   2.234  15.931 -0.5171  0.1294 -0.3968
16583TIP3    H171240   6.774   2.303  15.932  2.0227 -2.0865  0.8726
16583TIP3    H271241   6.667   2.238  16.018 -1.5608  1.0339 -0.9158
16584TIP3   OH271242   4.088   2.094  13.817  0.4293 -0.3507  0.0497
16584TIP3    H171243   4.183   2.082  13.814  0.2291 -2.0047 -1.4977
16584TIP3    H271244   4.054   2.007  13.839 -0.7268  0.2972  0.9063
16585TIP3   OH271245   1.617   0.999  15.667 -0.2894 -0.3368  0.4624
16585TIP3    H171246   1.622   1.087  15.705  1.4970 -0.0771 -0.2438
16585TIP3    H271247   1.524   0.976  15.669 -1.0194  2.1933 -0.7298
16586TIP3   OH271248   4.497   3.534   3.326 -0.0335 -0.0128 -0.2270
16586TIP3    H171249   4.413   3.580   3.320  0.7770  1.7680  1.1416
16586TIP3    H271250   4.487   3.476   3.401 -0.2711 -0.3143 -0.4915
16587TIP3   OH271251   5.870   2.226  17.175 -0.0111 -0.3114 -0.0331
16587TIP3    H171252   5.906   2.168  17.107  1.7721 -0.7835  1.2403
16587TIP3    H271253   5.825   2.167  17.235 -1.1970  0.0563 -0.5304
16588TIP3   OH271254   1.237   4.239   4.012 -0.0916  0.1896 -0.1130
16588TIP3    H171255   1.167   4.229   3.947 -0.9441  1.0557  0.6185
16588TIP3    H271256   1.260   4.332   4.008 -0.5184  0.3737  1.1442
16589TIP3   OH271257   6.794   4.880   5.024  0.0091 -0.3916  0.0756
16589TIP3    H171258   6.869   4.847   5.073  1.2050 -1.7215 -2.4672
16589TIP3    H271259   6.760   4.803   4.977 -1.0235  0.7965 -1.2239
16590TIP3   OH271260   2.424   6.201   3.868 -0.2958  0.1483  0.0838
16590TIP3    H171261   2.375   6.176   3.789 -1.0156  2.6707 -0.3301
16590TIP3    H271262   2.359   6.242   3.925  0.4499 -0.6160  1.5409
16591TIP3   OH271263   2.512   2.456  10.744 -0.5987 -0.1680 -0.4846
16591TIP3    H171264   2.560   2.538  10.735 -0.3274 -0.2921 -0.2047
16591TIP3    H271265   2.564   2.393  10.694  0.2422 -0.5883  0.8554
16592TIP3   OH271266   4.921   4.674  12.975 -0.4026  0.0655 -0.7341
16592TIP3    H171267   4.999   4.622  12.994 -1.2045 -0.6018  0.9518
16592TIP3    H271268   4.931   4.699  12.884  1.3297 -0.7754 -0.8264
16593TIP3   OH271269   4.652   6.003   1.666 -0.1007  0.8121 -0.2299
16593TIP3    H171270   4.596   5.988   1.590  1.1173 -1.3493 -0.7799
16593TIP3    H271271   4.669   5.915   1.701  0.0592  1.6843  2.0532
16594TIP3   OH271272   2.834   6.801  16.746  0.3511 -0.0171 -0.2154
16594TIP3    H171273   2.807   6.716  16.712 -0.4341 -0.3262  1.1181
16594TIP3    H271274   2.758   6.857  16.735  0.2551  0.0115  0.5626
16595TIP3   OH271275   2.614   3.373   5.920  0.2334 -0.1553  0.3582
16595TIP3    H171276   2.592   3.427   5.996  0.5234  0.8006 -0.2127
16595TIP3    H271277   2.700   3.337   5.941 -0.3046 -1.0562  1.0829
16596TIP3   OH271278   5.357   6.457  11.881  0.2890  0.0259  0.0532
16596TIP3    H171279   5.380   6.471  11.973 -1.0036  0.0863  0.3888
16596TIP3    H271280   5.440   6.464  11.834  0.9117  0.3934  1.1694
16597TIP3   OH271281   2.534   1.575  15.056  0.0010 -0.0865 -0.2487
16597TIP3    H171282   2.459   1.535  15.012  0.4236 -0.3192 -0.7575
16597TIP3    H271283   2.523   1.669  15.041  0.5659 -0.2025 -1.5593
16598TIP3   OH271284   5.408   4.230  15.346  0.2690  0.1838 -0.1019
16598TIP3    H171285   5.417   4.262  15.436  1.3306 -0.3021 -0.0194
16598TIP3    H271286   5.411   4.310  15.292  0.7860  0.4024  0.2307
16599TIP3   OH271287   2.574   0.306  13.952  0.1911  0.2520 -0.2047
16599TIP3    H171288   2.509   0.366  13.990  0.4408 -0.9611  2.3254
16599TIP3    H271289   2.526   0.259  13.884 -1.3847 -0.0332  1.0512
16600TIP3   OH271290   2.240   4.180   3.333 -0.1718  0.1389 -1.1697
16600TIP3    H171291   2.229   4.110   3.268 -0.8878 -0.2799 -0.6131
16600TIP3    H271292   2.150   4.199   3.362  0.2091 -0.5967  0.6454
16601TIP3   OH271293   6.511   0.284  12.569 -0.2969  0.1212 -0.6169
16601TIP3    H171294   6.523   0.190  12.553 -1.3524 -0.0322 -0.5652
16601TIP3    H271295   6.600   0.317  12.585  0.2344 -0.6426 -1.8421
16602TIP3   OH271296   2.441   5.109   4.342  0.1551  0.4865 -0.0545
16602TIP3    H171297   2.463   5.133   4.432 -2.3202  1.4469  0.3583
16602TIP3    H271298   2.475   5.181   4.289  0.1990  0.7124  0.2812
16603TIP3   OH271299   5.269   6.228  15.085  0.3192  0.0260  0.3577
16603TIP3    H171300   5.221   6.306  15.115 -0.2838  0.4334 -1.5506
16603TIP3    H271301   5.212   6.189  15.019  1.4031 -1.0601  0.0313
16604TIP3   OH271302   3.247   0.506  16.395  0.0488 -0.0374 -0.3299
16604TIP3    H171303   3.270   0.520  16.303  0.2723  0.1394 -0.2451
16604TIP3    H271304   3.246   0.593  16.433  1.2387 -0.2183  0.1486
16605TIP3   OH271305   2.958   5.685  11.504  0.2523  0.5185  0.4310
16605TIP3    H171306   2.950   5.724  11.417  0.3570  0.8360  0.5621
16605TIP3    H271307   2.897   5.735  11.558  0.5286  0.6299  0.6412
16606TIP3   OH271308   3.748   2.233   0.203  0.5092 -0.0370 -0.0857
16606TIP3    H171309   3.798   2.314   0.215  0.0982  0.1420  0.5135
16606TIP3    H271310   3.807   2.164   0.233  0.0444  0.2720  1.7205
16607TIP3   OH271311   3.450   4.318  16.150  0.2842 -0.6954  0.2708
16607TIP3    H171312   3.463   4.231  16.113  0.7740 -0.9921  1.1058
16607TIP3    H271313   3.458   4.377  16.075  0.9665 -1.2944 -0.1482
16608TIP3   OH271314   1.389   2.193  12.552 -0.0227  0.9634 -0.3951
16608TIP3    H171315   1.354   2.105  12.541 -0.3296  1.2849 -2.4481
16608TIP3    H271316   1.477   2.189  12.516 -0.3211  1.6605 -1.2325
16609TIP3   OH271317   2.475   6.453  12.684 -0.3725 -0.2750  0.3057
16609TIP3    H171318   2.401   6.510  12.707 -0.6956 -0.6774  0.2802
16609TIP3    H271319   2.515   6.494  12.608 -1.8270 -1.1253 -0.9943
16610TIP3   OH271320   0.364   4.979  11.492 -0.5732  0.0494 -0.1982
16610TIP3    H171321   0.323   5.066  11.498 -0.7141 -0.0887  1.5891
16610TIP3    H271322   0.311   4.924  11.549 -0.4375 -1.2136 -1.2495
16611TIP3   OH271323   5.225   2.272   3.893 -0.1180  0.1314 -0.0089
16611TIP3    H171324   5.283   2.320   3.953 -1.3949 -0.4878  1.8204
16611TIP3    H271325   5.279   2.253   3.816  1.3086  1.8164  0.5168
16612TIP3   OH271326   4.659   1.093   2.155 -0.0669  0.0074  0.1439
16612TIP3    H171327   4.623   1.174   2.119  0.7302  1.5043  2.5155
16612TIP3    H271328   4.754   1.107   2.156  0.0573 -0.8044  0.8943
16613TIP3   OH271329   5.638   4.158  12.475  0.2848  0.1484  0.3933
16613TIP3    H171330   5.669   4.069  12.490  2.6680  0.6844 -0.8553
16613TIP3    H271331   5.606   4.187  12.560  0.7433 -1.4183  1.1343
16614TIP3   OH271332   4.357   6.792   0.176  0.7062  0.2928 -0.1858
16614TIP3    H171333   4.296   6.734   0.131  1.9462 -1.1262 -0.1166
16614TIP3    H271334   4.327   6.880   0.154 -2.1040 -0.2976  0.8879
16615TIP3   OH271335   1.538   1.609  11.948  0.3647  0.0979 -0.2964
16615TIP3    H171336   1.580   1.683  11.904 -2.6530  2.4487  0.3841
16615TIP3    H271337   1.472   1.579  11.886  0.2905 -0.7328  0.1768
16616TIP3   OH271338   6.363   2.534  12.685  0.6113 -0.9339 -0.4433
16616TIP3    H171339   6.416   2.556  12.609  0.8281  0.4880  0.1019
16616TIP3    H271340   6.288   2.487  12.648 -0.3418  1.4946 -1.8107
16617TIP3   OH271341   1.466   1.202  14.231 -0.2571  0.2534  0.1154
16617TIP3    H171342   1.453   1.284  14.280  0.1822 -1.5592  3.5435
16617TIP3    H271343   1.380   1.159  14.234 -0.5913  0.6566 -2.0138
16618TIP3   OH271344   3.975   0.799  11.725  0.6140 -0.0734 -0.2953
16618TIP3    H171345   4.053   0.835  11.683 -1.1339  2.4759 -1.5984
16618TIP3    H271346   3.909   0.795  11.655 -0.7174 -1.3066  0.9532
16619TIP3   OH271347   4.124   6.436   0.269 -0.1713  0.0355 -0.3850
16619TIP3    H171348   4.041   6.468   0.305 -1.0620  0.0610 -2.3280
16619TIP3    H271349   4.141   6.355   0.316 -2.9244 -1.6013 -1.9548
16620TIP3   OH271350   2.510   3.328   2.685  0.0162 -0.2605  0.2339
16620TIP3    H171351   2.578   3.395   2.688  0.1403 -0.2566 -1.5868
16620TIP3    H271352   2.527   3.280   2.604 -1.5942 -0.8591  0.2035
16621TIP3   OH271353   1.014   4.011  13.067 -0.1165  0.3374 -0.0824
16621TIP3    H171354   1.053   4.095  13.041  0.0075 -0.2284 -1.9150
16621TIP3    H271355   1.068   3.945  13.022 -0.9306 -0.6569  0.3530
16622TIP3   OH271356   5.544   0.278   1.447  0.0485  0.4162  0.2869
16622TIP3    H171357   5.583   0.205   1.398 -1.7809 -0.0913 -0.4940
16622TIP3    H271358   5.454   0.283   1.414 -0.4896  1.6741  1.8575
16623TIP3   OH271359   5.210   1.488  14.573 -0.6325 -0.4030  0.2833
16623TIP3    H171360   5.252   1.460  14.492 -1.3413  1.0715 -0.6248
16623TIP3    H271361   5.196   1.406  14.622 -0.2417 -1.3225 -1.0848
16624TIP3   OH271362   4.359   1.722  12.316  0.3184  0.0001 -0.3918
16624TIP3    H171363   4.422   1.772  12.264  0.3943 -0.6940 -0.9847
16624TIP3    H271364   4.410   1.653  12.357  0.4990  1.2854  1.6942
16625TIP3   OH271365   5.276   1.748   0.519 -0.2658 -0.0791 -0.3811
16625TIP3    H171366   5.268   1.695   0.598  0.6179 -2.1212 -1.5696
16625TIP3    H271367   5.367   1.778   0.519 -0.1259 -0.4879 -0.8374
16626TIP3   OH271368   2.242   1.961   5.443 -0.0016  0.2084 -0.2930
16626TIP3    H171369   2.302   2.019   5.489  0.3274 -1.7020  1.8912
16626TIP3    H271370   2.155   1.988   5.471  0.2140 -2.1810  3.4644
16627TIP3   OH271371   3.550   5.809   5.709  0.0438  0.5075 -1.0371
16627TIP3    H171372   3.632   5.808   5.660  0.2294  1.7412 -0.7716
16627TIP3    H271373   3.482   5.820   5.641  0.0034 -1.3007 -1.3370
16628TIP3   OH271374   5.414   2.745  13.088 -0.1677 -0.0093  0.7464
16628TIP3    H171375   5.371   2.802  13.023 -0.0247  0.3879  0.9968
16628TIP3    H271376   5.409   2.794  13.170  1.3037  0.3426  0.6694
16629TIP3   OH271377   0.915   1.141  15.953  0.4155  1.3553 -0.6532
16629TIP3    H171378   0.887   1.231  15.937  0.5208  1.5875  0.3739
16629TIP3    H271379   0.834   1.093  15.971  0.3540  1.2291 -1.2585
16630TIP3   OH271380   3.618   0.688   4.745  0.2150 -0.0301 -0.5724
16630TIP3    H171381   3.638   0.641   4.826 -0.5165  0.3939 -0.1349
16630TIP3    H271382   3.546   0.747   4.769  1.2490  1.4654 -1.0525
16631TIP3   OH271383   0.859   0.194  13.211  0.0905 -0.6676 -0.1719
16631TIP3    H171384   0.794   0.247  13.257  0.5474  0.3313 -0.6656
16631TIP3    H271385   0.832   0.103  13.228  0.1572 -0.3381  1.9519
16632TIP3   OH271386   2.463   6.594  11.089  0.2618 -0.0466  0.5209
16632TIP3    H171387   2.478   6.611  11.182  0.6773  1.1582  0.2430
16632TIP3    H271388   2.538   6.632  11.044  0.0645 -0.6063 -0.3173
16633TIP3   OH271389   0.377   1.444   6.026 -0.1139  0.2252 -0.3433
16633TIP3    H171390   0.426   1.510   5.976  0.1638  0.7814  0.6285
16633TIP3    H271391   0.416   1.447   6.113  1.8353 -3.2110 -0.9065
16634TIP3   OH271392   3.365   2.685   3.973 -0.6173 -0.1137 -0.1768
16634TIP3    H171393   3.284   2.674   4.023  0.0078  0.8991  1.1216
16634TIP3    H271394   3.336   2.695   3.882 -2.1250  2.1269  0.4680
16635TIP3   OH271395   4.144   3.802  15.284  0.1577 -0.6221 -0.4302
16635TIP3    H171396   4.095   3.755  15.217  1.7379 -2.2767 -0.4909
16635TIP3    H271397   4.236   3.783  15.265  0.7338  0.4989  1.0280
16636TIP3   OH271398   1.991   2.016   3.337 -0.4077 -0.5762  0.2906
16636TIP3    H171399   1.928   1.947   3.316  0.7939 -1.8564  0.7125
16636TIP3    H271400   1.952   2.096   3.301 -1.8474 -1.4620 -0.2135
16637TIP3   OH271401   0.388   1.423  15.346 -0.4713 -0.7344 -0.5191
16637TIP3    H171402   0.458   1.473  15.303 -1.0366  0.2566 -0.3044
16637TIP3    H271403   0.423   1.334  15.351  1.2719 -0.0580  0.5885
16638TIP3   OH271404   5.036   6.722  15.416 -0.2801 -0.6854 -0.4246
16638TIP3    H171405   5.092   6.668  15.361  2.3019  0.0210  1.3447
16638TIP3    H271406   5.042   6.684  15.503 -2.6796 -0.6052 -0.1443
16639TIP3   OH271407   4.027   4.234   0.089  0.3262 -0.0494  0.3053
16639TIP3    H171408   4.006   4.154   0.138  0.2553 -0.2563 -0.0617
16639TIP3    H271409   4.120   4.248   0.105  0.3254 -0.1729  0.4180
16640TIP3   OH271410   3.207   2.244  13.921  0.4585 -0.4122 -0.0788
16640TIP3    H171411   3.184   2.271  14.010 -0.9563 -0.4098 -0.4284
16640TIP3    H271412   3.278   2.304  13.897 -0.0422  0.4792  0.5662
16641TIP3   OH271413   0.557   6.022  12.449  0.3421  0.7748 -0.3446
16641TIP3    H171414   0.498   6.059  12.514 -0.7433  1.0461 -1.4399
16641TIP3    H271415   0.632   5.991  12.499 -0.0004  1.8864  0.9079
16642TIP3   OH271416   3.594   5.724  16.037 -0.1465 -0.0892 -0.3487
16642TIP3    H171417   3.560   5.635  16.047 -0.3406  0.0312  0.0747
16642TIP3    H271418   3.662   5.716  15.970  0.2637 -0.6722  0.1276
16643TIP3   OH271419   4.561   0.953  13.982  0.0484 -0.0437 -0.1564
16643TIP3    H171420   4.652   0.968  13.957  0.2064 -0.2355  0.2987
16643TIP3    H271421   4.527   1.041  14.001 -0.4928  0.3066 -2.3732
16644TIP3   OH271422   1.240   4.769  15.506  0.2295 -0.1106 -0.1967
16644TIP3    H171423   1.271   4.678  15.499  0.8350 -0.1815  2.6193
16644TIP3    H271424   1.186   4.770  15.585  0.2942  2.0338 -0.1337
16645TIP3   OH271425   3.586   4.249  15.227 -0.2472 -0.2171  0.3396
16645TIP3    H171426   3.628   4.205  15.153  2.2195  2.3196  0.0451
16645TIP3    H271427   3.517   4.302  15.188 -1.2534 -1.4471  0.3602
16646TIP3   OH271428   6.116   4.003   3.133  0.0494  0.0888  0.1404
16646TIP3    H171429   6.158   4.029   3.215 -3.3263  1.0910  1.7389
16646TIP3    H271430   6.126   4.080   3.076 -0.7060  0.8357  0.9798
16647TIP3   OH271431   4.260   5.142  15.565  0.4495 -0.5398  0.1066
16647TIP3    H171432   4.233   5.219  15.616 -0.0777 -0.9616  0.4768
16647TIP3    H271433   4.180   5.112  15.522  0.4528 -1.4054  0.6737
16648TIP3   OH271434   2.245   5.900  13.940 -0.0311  0.6153  0.3164
16648TIP3    H171435   2.292   5.835  13.887  0.0949  0.0937  1.0501
16648TIP3    H271436   2.311   5.968  13.958 -0.1022  0.8434 -0.2720
16649TIP3   OH271437   0.061   0.204   2.665  0.1310 -0.1007  0.2562
16649TIP3    H171438   0.076   0.123   2.617 -0.8550  0.0975 -0.4127
16649TIP3    H271439   0.086   0.184   2.755  2.2387 -0.4043 -0.3501
16650TIP3   OH271440   4.014   5.619   4.986 -0.8763 -0.3125 -0.4907
16650TIP3    H171441   3.952   5.670   4.933 -0.2965  0.4254 -0.4681
16650TIP3    H271442   4.074   5.684   5.023  1.4770 -1.1508 -2.5105
16651TIP3   OH271443   4.314   1.406   0.737 -0.2713 -0.2073 -0.2816
16651TIP3    H171444   4.350   1.389   0.824 -0.0836  2.0385  0.1406
16651TIP3    H271445   4.266   1.488   0.746  0.3421  0.4714 -2.4404
16652TIP3   OH271446   0.120   5.622  16.231  0.0603  0.4917  0.1091
16652TIP3    H171447   0.060   5.690  16.260 -0.4252  0.1647 -0.1172
16652TIP3    H271448   0.204   5.644  16.273 -0.5518  0.1721  1.5735
16653TIP3   OH271449   5.505   4.287  17.165  0.0920 -0.2020 -0.0378
16653TIP3    H171450   5.451   4.286  17.086  0.5915  0.1654 -0.3918
16653TIP3    H271451   5.516   4.380  17.185 -1.2241 -0.2923  1.3072
16654TIP3   OH271452   2.307   1.225  11.643 -0.3273  0.2156 -0.3282
16654TIP3    H171453   2.365   1.156  11.613  1.6186  0.8728  1.6528
16654TIP3    H271454   2.245   1.237  11.572  2.1660 -0.3007 -2.7510
16655TIP3   OH271455   1.111   1.723  14.319  0.5142 -0.1981 -0.9919
16655TIP3    H171456   1.132   1.704  14.410  0.0347  2.4321 -0.2333
16655TIP3    H271457   1.194   1.716  14.273  1.2722  0.8324  0.1545
16656TIP3   OH271458   3.622   4.555   3.415  0.1772 -0.7349 -0.6081
16656TIP3    H171459   3.683   4.490   3.379  0.9977 -0.5168  0.3454
16656TIP3    H271460   3.668   4.639   3.406 -0.4110 -0.4307 -0.8171
16657TIP3   OH271461   6.614   4.914  17.304 -0.1898  0.4141  0.3469
16657TIP3    H171462   6.662   4.849  17.355 -0.3965  0.6022  0.7867
16657TIP3    H271463   6.538   4.935  17.358 -1.3866 -0.7079 -0.8340
16658TIP3   OH271464   1.904   4.037   3.530  0.0229 -0.4312  0.7108
16658TIP3    H171465   1.822   4.066   3.490  0.0659  0.4420  1.2346
16658TIP3    H271466   1.966   4.109   3.514  0.0322 -0.0376  2.3271
16659TIP3   OH271467   3.906   6.552   6.494 -0.0643 -0.1762  0.7378
16659TIP3    H171468   3.941   6.607   6.564  2.6465 -1.8750  0.9094
16659TIP3    H271469   3.894   6.611   6.420 -1.3549  1.3431  2.0985
16660TIP3   OH271470   3.109   0.218  15.159  0.1927  0.8055 -0.0862
16660TIP3    H171471   3.181   0.267  15.119 -0.0676  0.1660 -1.4088
16660TIP3    H271472   3.139   0.127  15.160 -0.3670  0.6142 -0.1438
16661TIP3   OH271473   5.765   5.045   2.471 -0.3789 -0.0541  0.4105
16661TIP3    H171474   5.763   5.067   2.378 -0.2917  0.7953  0.6007
16661TIP3    H271475   5.851   5.005   2.485 -0.7902 -1.1336 -0.0724
16662TIP3   OH271476   6.017   3.196  16.813 -0.2248 -0.0272  0.1162
16662TIP3    H171477   6.054   3.273  16.771 -1.2734  0.5637  0.2234
16662TIP3    H271478   5.971   3.231  16.890 -1.0504 -0.6994 -0.0579
16663TIP3   OH271479   2.861   0.527  13.661 -0.3049  0.3828  0.0308
16663TIP3    H171480   2.774   0.530  13.622 -0.6149 -0.5371  0.6298
16663TIP3    H271481   2.879   0.434  13.674 -0.4103  0.6377  2.4728
16664TIP3   OH271482   2.514   0.230  13.629 -0.6977  0.1242  0.2173
16664TIP3    H171483   2.551   0.143  13.613 -0.7111 -0.2181  1.9082
16664TIP3    H271484   2.420   0.218  13.617 -0.5234  0.4664 -1.8138
16665TIP3   OH271485   0.252   4.377  13.703 -0.4309 -0.1818 -0.2251
16665TIP3    H171486   0.256   4.443  13.772 -2.3590  0.2807 -0.5160
16665TIP3    H271487   0.279   4.295  13.746  2.1010  0.7426  0.1129
16666TIP3   OH271488   2.268   3.531   3.856 -0.1379  0.3683 -0.0159
16666TIP3    H171489   2.209   3.603   3.882  1.0544  1.3322  0.1068
16666TIP3    H271490   2.343   3.575   3.817 -0.4387 -0.9209 -2.2084
16667TIP3   OH271491   5.734   5.866  16.648  0.3154 -0.5934 -0.3390
16667TIP3    H171492   5.693   5.787  16.684 -2.2560  0.8850  0.1991
16667TIP3    H271493   5.823   5.865  16.684 -0.1747 -2.3955  0.9648
16668TIP3   OH271494   3.544   0.048  15.672 -0.7264  0.0650  1.0167
16668TIP3    H171495   3.541   0.137  15.707 -2.5335 -0.2235  1.6823
16668TIP3    H271496   3.471   0.044  15.610 -0.5730 -0.9163  0.8849
16669TIP3   OH271497   4.777   0.710   3.992 -0.2973  0.4883 -0.3461
16669TIP3    H171498   4.865   0.748   3.988 -0.9846  2.1127 -0.7766
16669TIP3    H271499   4.785   0.638   4.055  0.9412  1.7136  0.9787
16670TIP3   OH271500   2.303   5.993   2.776 -0.3143 -0.0851 -0.1694
16670TIP3    H171501   2.314   6.001   2.871  1.6190 -0.9009 -0.2758
16670TIP3    H271502   2.241   6.062   2.753 -2.0609 -0.8712  1.8705
16671TIP3   OH271503   1.767   5.384  16.328 -0.1340 -0.4618 -0.1229
16671TIP3    H171504   1.731   5.445  16.392  0.1704  1.5061 -1.6878
16671TIP3    H271505   1.795   5.308  16.379 -0.9758  0.4945  1.8752
16672TIP3   OH271506   5.742   2.987   1.564 -0.6087  0.2076 -0.0211
16672TIP3    H171507   5.676   3.022   1.503 -0.6791 -2.4292 -1.6366
16672TIP3    H271508   5.709   2.901   1.588  1.4923 -0.5354  0.4051
16673TIP3   OH271509   5.914   0.399   1.666 -0.2092 -0.0921  0.3146
16673TIP3    H171510   5.905   0.463   1.596  1.9961 -0.2384 -0.1647
16673TIP3    H271511   5.841   0.338   1.653 -0.5377  0.5692 -1.1013
16674TIP3   OH271512   5.501   1.017  13.265  0.1445  0.4547 -0.0570
16674TIP3    H171513   5.578   0.999  13.212  1.0597  0.1923  1.3108
16674TIP3    H271514   5.536   1.045  13.350 -1.2503  2.4711 -0.0732
16675TIP3   OH271515   6.554   6.595  16.969 -0.1624 -0.2990  0.1495
16675TIP3    H171516   6.622   6.643  17.017 -0.0707 -0.7297  0.4556
16675TIP3    H271517   6.549   6.510  17.014 -1.7529  0.1613  0.8837
16676TIP3   OH271518   6.644   5.049   3.458  0.1510  0.0042 -0.4493
16676TIP3    H171519   6.641   4.958   3.486 -0.0377  0.1932  0.1551
16676TIP3    H271520   6.612   5.099   3.533 -0.1741  0.5356 -0.9259
16677TIP3   OH271521   4.873   0.551   0.458  0.4158  0.0655  0.2807
16677TIP3    H171522   4.779   0.536   0.471  0.4250 -0.2382  0.0154
16677TIP3    H271523   4.906   0.576   0.545  0.1657 -0.2363  0.4645
16678TIP3   OH271524   1.038   5.683  16.157 -0.3834 -0.4034 -0.5187
16678TIP3    H171525   0.977   5.626  16.202 -0.9716  0.3824 -0.2960
16678TIP3    H271526   1.072   5.741  16.225  0.9112 -1.0702 -0.5595
16679TIP3   OH271527   6.595   0.412   2.885  0.0917 -0.3860 -0.3103
16679TIP3    H171528   6.572   0.358   2.809  0.8538 -1.4391  0.1788
16679TIP3    H271529   6.674   0.458   2.859 -0.0725 -0.1635 -0.4189
16680TIP3   OH271530   3.506   6.629   1.006  0.2386  0.1870  0.1194
16680TIP3    H171531   3.448   6.556   0.984  0.5847 -0.6712  1.8853
16680TIP3    H271532   3.530   6.614   1.098  2.2982  1.1707 -0.2042
16681TIP3   OH271533   0.935   3.728   5.773 -0.1023 -0.0286  0.2057
16681TIP3    H171534   0.852   3.771   5.749  0.1765  0.9934  0.9789
16681TIP3    H271535   0.998   3.759   5.708 -0.4245 -1.2186 -0.6957
16682TIP3   OH271536   1.272   3.423   4.076 -0.3214  0.2244  0.4215
16682TIP3    H171537   1.264   3.362   4.149  1.2038  0.3433  0.7132
16682TIP3    H271538   1.183   3.457   4.063 -1.2383 -2.0959  0.1791
16683TIP3   OH271539   3.204   6.657   4.392  0.6918  0.4807 -0.8276
16683TIP3    H171540   3.152   6.663   4.311 -0.6586 -0.9708 -0.1264
16683TIP3    H271541   3.284   6.612   4.366  0.0636 -0.3982 -1.2943
16684TIP3   OH271542   2.725   2.774  11.545 -0.3870  0.2160  0.4983
16684TIP3    H171543   2.710   2.803  11.455  2.8354 -0.6916 -0.4456
16684TIP3    H271544   2.698   2.682  11.546  0.4042 -0.0246  0.1888
16685TIP3   OH271545   1.160   2.261   5.470  0.1178 -0.2047 -0.0250
16685TIP3    H171546   1.073   2.299   5.466 -0.2141 -0.9383  0.0275
16685TIP3    H271547   1.213   2.315   5.411 -0.1770  0.7268  0.5526
16686TIP3   OH271548   5.303   5.142   5.583 -0.3362  0.5811 -0.0396
16686TIP3    H171549   5.337   5.228   5.608 -0.3565  0.5962 -0.0626
16686TIP3    H271550   5.211   5.158   5.562 -0.3504  0.5456 -0.0034
16687TIP3   OH271551   0.394   4.398   3.992  0.4792  0.2949  0.0526
16687TIP3    H171552   0.455   4.410   4.065  0.7070 -0.3627 -0.0269
16687TIP3    H271553   0.315   4.362   4.032  0.4244  0.4016  0.0414
16688TIP3   OH271554   1.123   4.768  15.755  0.9428 -1.0558  0.2038
16688TIP3    H171555   1.197   4.711  15.773  1.6896  0.3344  1.8895
16688TIP3    H271556   1.115   4.823  15.833 -0.7668  0.0313 -0.6552
16689TIP3   OH271557   3.899   2.050   0.352  0.3967 -0.7656 -0.0682
16689TIP3    H171558   3.881   2.062   0.445  4.1247 -0.2886  0.7496
16689TIP3    H271559   3.927   1.959   0.344  2.5740 -0.1622 -0.1142
16690TIP3   OH271560   6.028   4.306   4.426  0.3211 -0.5233  0.3179
16690TIP3    H171561   5.962   4.286   4.493 -2.0287  1.0822 -1.3400
16690TIP3    H271562   5.977   4.338   4.352  3.0516  1.4160 -0.8808
16691TIP3   OH271563   4.339   5.750   4.048  0.2883 -0.3575  0.0758
16691TIP3    H171564   4.336   5.681   3.982  1.1266  1.3683 -1.8747
16691TIP3    H271565   4.257   5.798   4.037  0.1821 -0.3895  0.6851
16692TIP3   OH271566   0.761   6.077  10.936 -0.4687  0.2132  0.0431
16692TIP3    H171567   0.794   6.004  10.884 -1.1193  1.1902 -1.8129
16692TIP3    H271568   0.676   6.046  10.969 -1.0405  0.3395 -1.2707
16693TIP3   OH271569   1.570   1.649   4.781  0.1605 -0.0982 -0.0416
16693TIP3    H171570   1.537   1.678   4.696 -1.5985  1.0401  0.9608
16693TIP3    H271571   1.496   1.605   4.822  1.0195 -0.7384  0.8755
16694TIP3   OH271572   5.003   2.124  14.423 -0.2807 -0.4989  0.2736
16694TIP3    H171573   4.973   2.080  14.343  1.8478 -1.1544 -0.2100
16694TIP3    H271574   5.094   2.096  14.434 -0.2675  0.2168  2.5022
16695TIP3   OH271575   3.115   0.783   1.688 -0.2930 -0.0061 -0.2933
16695TIP3    H171576   3.206   0.810   1.678 -0.1320  1.1364  3.0014
16695TIP3    H271577   3.115   0.727   1.766 -2.4369  0.2314 -0.0660
16696TIP3   OH271578   0.067   4.405  16.289  0.1049  0.4648  0.2382
16696TIP3    H171579   0.011   4.444  16.355 -1.9914 -0.2471 -1.0227
16696TIP3    H271580   0.076   4.313  16.316  1.2104  0.7223  0.7701
16697TIP3   OH271581   1.991   6.103   4.409 -0.0826  0.4681 -0.2487
16697TIP3    H171582   1.986   6.100   4.504 -1.6254  0.7718 -0.2958
16697TIP3    H271583   2.033   6.187   4.389 -0.7438  0.8953  0.1409
16698TIP3   OH271584   2.813   2.986   4.360 -0.2169  0.1873 -0.2651
16698TIP3    H171585   2.876   3.038   4.409  1.3859 -2.4364  0.7161
16698TIP3    H271586   2.738   2.978   4.418  0.5350 -0.5626  0.6505
16699TIP3   OH271587   4.163   2.450   4.257  0.1684 -0.1580 -0.8030
16699TIP3    H171588   4.258   2.463   4.259 -0.0930  2.3133  1.2045
16699TIP3    H271589   4.129   2.529   4.214 -1.0377  0.3511  0.9343
16700TIP3   OH271590   4.457   3.614   2.905 -0.3789 -0.0861 -0.3095
16700TIP3    H171591   4.396   3.627   2.978  0.4190  1.4474  0.1338
16700TIP3    H271592   4.526   3.679   2.920 -0.0413  0.0539 -2.2791
16701TIP3   OH271593   4.495   4.818  13.690  0.2440  0.9013 -0.7872
16701TIP3    H171594   4.486   4.912  13.679 -0.8262  0.8860 -0.1008
16701TIP3    H271595   4.532   4.788  13.606 -1.4282  1.6583 -1.8508
16702TIP3   OH271596   5.021   2.134   0.468 -0.1168  0.0360  0.2729
16702TIP3    H171597   5.070   2.064   0.425  0.9215  0.7262  0.3030
16702TIP3    H271598   5.088   2.186   0.512 -0.7780  1.5704 -0.4793
16703TIP3   OH271599   4.229   5.758   3.093  0.0325 -0.0329 -0.6910
16703TIP3    H171600   4.281   5.824   3.138  0.7832 -0.7834 -0.4393
16703TIP3    H271601   4.218   5.793   3.004 -0.2511  0.7906 -0.3421
16704TIP3   OH271602   4.345   4.636   0.463  0.5767  0.0054  0.3107
16704TIP3    H171603   4.353   4.568   0.529 -0.8856  0.7203  1.2709
16704TIP3    H271604   4.320   4.714   0.512  2.0454  1.2218 -0.7845
16705TIP3   OH271605   6.569   3.105   5.858  0.2397  0.1287 -0.7016
16705TIP3    H171606   6.639   3.040   5.863  0.0300 -0.0722 -0.3113
16705TIP3    H271607   6.490   3.057   5.882  0.4967  1.2138  3.0755
16706TIP3   OH271608   1.964   2.706   0.904  0.0434  0.0207 -0.3238
16706TIP3    H171609   1.910   2.734   0.978 -0.8006 -2.0596 -0.0880
16706TIP3    H271610   1.989   2.616   0.926  0.8268 -0.1946 -1.9914
16707TIP3   OH271611   6.228   4.289  11.524  0.2075  0.2876 -0.0565
16707TIP3    H171612   6.143   4.244  11.522  0.0490  0.5979 -1.1827
16707TIP3    H271613   6.267   4.270  11.439  1.2781  0.1621  0.4512
16708TIP3   OH271614   6.319   5.085   2.295 -0.3767  0.3446  0.5060
16708TIP3    H171615   6.317   5.090   2.200  1.5428  0.6211  0.4425
16708TIP3    H271616   6.294   4.995   2.315 -1.1851  0.3981 -0.2232
16709TIP3   OH271617   3.332   2.117   4.630 -0.1385  0.4159  0.2121
16709TIP3    H171618   3.394   2.082   4.566 -0.4049 -0.2134  0.2954
16709TIP3    H271619   3.328   2.051   4.698 -0.5167  0.6911  0.4585
16710TIP3   OH271620   1.912   5.364   6.585  0.1703 -0.0457 -0.0383
16710TIP3    H171621   1.846   5.330   6.525  0.5722  1.6675 -1.5300
16710TIP3    H271622   1.864   5.420   6.646 -0.2873 -2.0445  1.5452
16711TIP3   OH271623   1.790   6.020   3.255  1.3029 -0.3668 -0.4398
16711TIP3    H171624   1.802   6.115   3.243  0.0308  0.0437  1.2542
16711TIP3    H271625   1.876   5.989   3.283  1.2294  0.7020  1.1405
16712TIP3   OH271626   4.497   5.136  16.935 -0.1806  0.3841 -0.1186
16712TIP3    H171627   4.586   5.115  16.906  0.0447  2.3916 -1.0246
16712TIP3    H271628   4.499   5.124  17.030  1.4827  1.7517  0.0504
16713TIP3   OH271629   6.768   1.007  13.412  0.5860  0.0303  0.1917
16713TIP3    H171630   6.863   1.014  13.407  0.6496 -1.1806 -0.7198
16713TIP3    H271631   6.749   0.918  13.383 -0.9793  0.9940 -2.1088
16714TIP3   OH271632   3.311   1.365  17.291  0.0936  0.1151  0.2482
16714TIP3    H171633   3.223   1.339  17.264 -0.7505  2.0601  0.9627
16714TIP3    H271634   3.300   1.401  17.379  1.0616  2.8187 -0.6078
16715TIP3   OH271635   3.562   6.129   5.628 -0.9667 -0.3939 -0.0043
16715TIP3    H171636   3.478   6.095   5.659 -0.7160 -1.0864 -0.0593
16715TIP3    H271637   3.562   6.111   5.534 -1.7130  1.6762 -0.4477
16716TIP3   OH271638   0.089   1.944  13.521  0.3752 -0.6107  0.0187
16716TIP3    H171639   0.147   1.896  13.579  0.6962 -0.7292 -0.3910
16716TIP3    H271640   0.130   1.936  13.435 -0.5851 -1.2484 -0.3963
16717TIP3   OH271641   6.735   5.817   5.240 -0.3879 -0.3852  0.1563
16717TIP3    H171642   6.765   5.853   5.157 -1.1608  1.0627  0.4786
16717TIP3    H271643   6.716   5.893   5.294  0.6883 -1.2907  1.9042
16718TIP3   OH271644   3.862   0.658  10.943 -0.4495 -0.2285  0.2142
16718TIP3    H171645   3.869   0.753  10.938 -0.2922 -0.2435  0.1339
16718TIP3    H271646   3.826   0.632  10.857  0.6574 -0.3441 -0.2247
16719TIP3   OH271647   2.902   4.752   5.264  0.1377  0.1865  0.1951
16719TIP3    H171648   2.887   4.803   5.185 -1.3837 -0.2659  0.1695
16719TIP3    H271649   2.948   4.812   5.323  0.0664  0.9616 -0.5263
16720TIP3   OH271650   2.301   1.252  13.790  0.9039 -0.3235 -0.1039
16720TIP3    H171651   2.273   1.261  13.699  1.1965  1.2612 -0.0792
16720TIP3    H271652   2.332   1.340  13.813 -1.3455 -0.0323  2.2387
16721TIP3   OH271653   0.810   1.102   0.357 -0.5017  0.3649 -0.3433
16721TIP3    H171654   0.740   1.054   0.402 -1.8994  0.2631 -2.4577
16721TIP3    H271655   0.769   1.185   0.331  0.7054  1.0501 -0.1390
16722TIP3   OH271656   6.201   6.197   2.762  0.0346 -0.5687 -0.2227
16722TIP3    H171657   6.146   6.128   2.725  1.0839 -0.8045 -1.4409
16722TIP3    H271658   6.162   6.278   2.730 -0.4465 -0.6657  0.1215
16723TIP3   OH271659   1.764   5.607  13.027  0.1883 -0.7521 -0.8480
16723TIP3    H171660   1.826   5.677  13.050 -0.4253 -0.8017  1.1706
16723TIP3    H271661   1.744   5.565  13.111  1.4202 -4.1629 -2.0711
16724TIP3   OH271662   4.844   3.960   3.410 -0.3040 -0.2216  0.3224
16724TIP3    H171663   4.756   3.934   3.436 -0.4552 -0.7735 -0.6548
16724TIP3    H271664   4.902   3.895   3.450 -0.4451 -0.5088  0.0632
16725TIP3   OH271665   2.043   4.600   4.025 -0.2499  0.1061 -0.5496
16725TIP3    H171666   2.027   4.592   4.119  1.6052  2.1277  0.0192
16725TIP3    H271667   2.085   4.517   4.001 -1.8668 -0.9417  0.0941
16726TIP3   OH271668   5.477   2.772   5.893 -0.3172  0.3194  0.2837
16726TIP3    H171669   5.440   2.731   5.971 -0.3285 -0.7280 -0.2642
16726TIP3    H271670   5.447   2.719   5.820 -1.2948  1.9685 -0.5799
16727TIP3   OH271671   1.527   1.218   4.283  0.0522  0.0408 -0.1324
16727TIP3    H171672   1.573   1.251   4.206 -3.0738 -1.2915 -2.8136
16727TIP3    H271673   1.499   1.297   4.330  2.4333  0.8752  0.0503
16728TIP3   OH271674   1.340   1.158   0.516 -0.0223  0.5409 -0.2924
16728TIP3    H171675   1.435   1.163   0.529 -0.1158  1.9317  0.0621
16728TIP3    H271676   1.316   1.246   0.487 -1.3945  0.6108  0.9487
16729TIP3   OH271677   1.987   5.303   4.311 -0.2642  0.6243  0.2777
16729TIP3    H171678   2.055   5.251   4.268 -0.7406  0.1223  0.1196
16729TIP3    H271679   1.962   5.252   4.388 -0.0672  1.0821  0.6573
16730TIP3   OH271680   4.987   5.810  17.086 -0.1639 -0.1750 -0.1071
16730TIP3    H171681   5.070   5.762  17.079  0.2374  0.4528  0.2248
16730TIP3    H271682   4.921   5.748  17.055  0.4711 -0.5605 -0.7298
16731TIP3   OH271683   6.708   2.232   5.264  0.5450 -0.0127 -0.0806
16731TIP3    H171684   6.705   2.162   5.330  3.3563  0.2271  0.4282
16731TIP3    H271685   6.787   2.282   5.286 -0.7853  2.7042 -1.0909
16732TIP3   OH271686   3.278   1.756  16.365 -0.0235 -0.2967 -0.3114
16732TIP3    H171687   3.306   1.665  16.367  0.1738 -0.2879 -1.5150
16732TIP3    H271688   3.317   1.795  16.443 -1.4417 -1.5763  1.1077
16733TIP3   OH271689   2.169   3.226  16.217  0.5338 -0.8150 -0.3864
16733TIP3    H171690   2.204   3.233  16.306  0.3063  1.6257 -0.4192
16733TIP3    H271691   2.243   3.247  16.160 -0.2949  2.2265 -0.5288
16734TIP3   OH271692   5.187   4.629  16.968 -0.4029  0.0187 -0.5744
16734TIP3    H171693   5.164   4.637  17.061  1.5355 -2.4508  0.2568
16734TIP3    H271694   5.211   4.717  16.942 -1.6579  0.9146  1.0491
16735TIP3   OH271695   3.118   6.767   6.180 -0.1851 -0.4924  0.1702
16735TIP3    H171696   3.171   6.833   6.135  0.7649 -2.2295 -1.3763
16735TIP3    H271697   3.127   6.789   6.273  1.4471  0.5650 -0.1932
16736TIP3   OH271698   2.963   4.184   3.967  0.0947 -0.3963 -0.1806
16736TIP3    H171699   2.983   4.272   3.997  2.0060 -0.5434 -0.8988
16736TIP3    H271700   3.046   4.137   3.971 -0.3969 -1.5254 -1.9072
16737TIP3   OH271701   0.528   4.003   3.714 -0.4898 -0.1534  0.3047
16737TIP3    H171702   0.483   4.087   3.711 -0.7974 -0.2582  1.4008
16737TIP3    H271703   0.472   3.944   3.663 -0.2344  0.3148 -0.5286
16738TIP3   OH271704   4.159   3.636   5.972  0.0333  0.2446  0.3243
16738TIP3    H171705   4.237   3.684   5.998 -0.4489  0.2831  1.8203
16738TIP3    H271706   4.099   3.704   5.939  0.8748  0.1238 -1.5276
16739TIP3   OH271707   3.896   1.511   3.777 -0.2898  0.1064 -0.4734
16739TIP3    H171708   3.830   1.576   3.752 -0.0128  0.2496 -0.8371
16739TIP3    H271709   3.979   1.551   3.753  0.1816  1.1457  2.5446
16740TIP3   OH271710   3.799   2.502   4.476 -0.7426  0.2951  0.1529
16740TIP3    H171711   3.826   2.450   4.401  0.4293  0.2238  0.5960
16740TIP3    H271712   3.709   2.527   4.458 -1.3759 -1.9556 -0.0408
16741TIP3   OH271713   0.986   2.895   5.292  0.4395 -0.2866 -0.2060
16741TIP3    H171714   0.915   2.940   5.245  1.4534  0.7168 -0.8261
16741TIP3    H271715   0.960   2.898   5.384  0.4641  1.5881 -0.2233
16742TIP3   OH271716   2.753   5.046   4.403 -0.3574 -0.7117 -0.6253
16742TIP3    H171717   2.706   5.078   4.326 -0.9465 -0.5777 -0.2129
16742TIP3    H271718   2.801   4.969   4.371  0.6171  0.2089 -1.4899
16743TIP3   OH271719   4.124   2.925   0.872  0.5780  0.5349 -0.6571
16743TIP3    H171720   4.130   2.846   0.818 -2.5335  0.4700 -1.0545
16743TIP3    H271721   4.184   2.987   0.830  1.6925 -0.9754 -1.4085
16744TIP3   OH271722   3.669   4.468   0.324  0.5270 -0.3425  0.5383
16744TIP3    H171723   3.712   4.513   0.396  0.5319 -1.6809  1.4112
16744TIP3    H271724   3.721   4.389   0.311  0.3999 -0.2200 -0.8021
16745TIP3   OH271725   6.564   4.383  17.096  0.6335  0.3233  0.5034
16745TIP3    H171726   6.538   4.403  17.006  0.8191  0.3924  0.4651
16745TIP3    H271727   6.579   4.288  17.096 -0.2131  0.1820  0.6772
16746TIP3   OH271728   2.197   6.312  11.363  0.3689 -0.1261  0.0748
16746TIP3    H171729   2.265   6.247  11.342  0.8529  0.3466  0.1396
16746TIP3    H271730   2.243   6.378  11.414 -0.1313  0.2407  0.0523
16747TIP3   OH271731   6.397   3.828  14.140  0.2968  0.2374 -0.2489
16747TIP3    H171732   6.304   3.836  14.121  0.1016 -0.2129  0.5000
16747TIP3    H271733   6.440   3.873  14.067 -0.5095  0.7470 -0.4205
16748TIP3   OH271734   1.282   3.713  12.705 -0.2660 -0.1131  0.0922
16748TIP3    H171735   1.319   3.656  12.637  0.7003  0.7925 -0.1752
16748TIP3    H271736   1.315   3.677  12.787  0.6394  0.2559 -0.1007
16749TIP3   OH271737   6.730   5.900   2.584 -0.3562  0.5730  0.2112
16749TIP3    H171738   6.686   5.968   2.635  0.0981  0.1606  1.1685
16749TIP3    H271739   6.803   5.871   2.639 -0.0937 -0.1634 -0.5009
16750TIP3   OH271740   6.295   0.017   3.657 -0.0147  0.1287  0.2036
16750TIP3    H171741   6.282  -0.047   3.587  0.3254 -0.4678  0.6731
16750TIP3    H271742   6.371   0.068   3.629  2.1736 -2.1612  1.5472
16751TIP3   OH271743   0.859   0.911  16.627  0.2632  0.3549  0.0593
16751TIP3    H171744   0.943   0.946  16.658  0.1603  0.8038 -0.1604
16751TIP3    H271745   0.811   0.889  16.707  1.1512 -1.3076  0.1903
16752TIP3   OH271746   3.643   6.347  14.920  0.0385  0.5454 -0.0564
16752TIP3    H171747   3.570   6.402  14.946 -0.3421  0.1533 -0.2739
16752TIP3    H271748   3.708   6.407  14.884  0.3687  1.0482  1.3017
16753TIP3   OH271749   1.823   0.061   4.218  0.2408 -0.0415 -0.2354
16753TIP3    H171750   1.837   0.156   4.227  2.0313 -0.2250 -0.7010
16753TIP3    H271751   1.731   0.048   4.243  0.5527  1.5102  2.0142
16754TIP3   OH271752   6.145   0.456   4.015  0.3966 -0.4961  0.6381
16754TIP3    H171753   6.222   0.510   3.999 -1.8075  3.2663  1.4432
16754TIP3    H271754   6.097   0.457   3.932  0.8271 -2.3767  0.3022
16755TIP3   OH271755   3.409   2.569  11.306 -0.6608  0.0831 -0.1519
16755TIP3    H171756   3.336   2.595  11.362 -1.1959  0.2834 -0.9300
16755TIP3    H271757   3.377   2.494  11.257  0.5530 -1.5186  1.3753
16756TIP3   OH271758   1.466   4.042  17.156 -0.0048  0.4378 -0.5624
16756TIP3    H171759   1.441   4.014  17.245  1.3986 -0.8267 -0.5259
16756TIP3    H271760   1.394   4.098  17.128 -1.0501 -0.0811  0.9304
16757TIP3   OH271761   6.554   5.600   2.666 -0.0639 -0.3911 -0.0319
16757TIP3    H171762   6.488   5.531   2.663 -1.0806  0.5239  0.5696
16757TIP3    H271763   6.621   5.572   2.604 -1.0732 -1.2817 -0.7458
16758TIP3   OH271764   0.279   5.706  15.533  0.0536 -0.4857 -0.3023
16758TIP3    H171765   0.347   5.706  15.466 -1.0161 -0.6203 -1.4198
16758TIP3    H271766   0.325   5.732  15.613  1.9779 -3.0639 -0.4118
16759TIP3   OH271767   0.362   2.075  10.745 -0.8690  0.1157 -0.1260
16759TIP3    H171768   0.433   2.013  10.763  0.1927  0.6185 -2.2823
16759TIP3    H271769   0.282   2.029  10.770 -0.0481 -1.8203 -0.9409
16760TIP3   OH271770   4.225   4.985   0.198 -0.0552 -0.0322  0.8420
16760TIP3    H171771   4.147   4.953   0.152 -0.2050  0.2881  0.8723
16760TIP3    H271772   4.293   4.921   0.177 -1.0050 -1.9060  3.0561
16761TIP3   OH271773   1.978   2.301  12.851 -0.0491  0.0617  0.3182
16761TIP3    H171774   2.072   2.317  12.843 -0.2097  0.5680 -0.8655
16761TIP3    H271775   1.943   2.328  12.766 -1.3618  0.5594  0.9986
16762TIP3   OH271776   5.750   6.645  14.718  0.0072 -0.1315  0.8209
16762TIP3    H171777   5.841   6.675  14.723 -0.1262  0.3047  0.5989
16762TIP3    H271778   5.699   6.724  14.702 -0.5281 -0.2088  2.0401
16763TIP3   OH271779   1.150   5.101   1.029  0.0623  0.8764 -0.2698
16763TIP3    H171780   1.136   5.063   0.943  1.5068  1.4785 -0.7978
16763TIP3    H271781   1.193   5.185   1.012 -2.2351  2.4107  0.8831
16764TIP3   OH271782   0.332   0.647  13.985  0.2788  0.0772 -0.1881
16764TIP3    H171783   0.374   0.718  14.034 -0.7224  1.0198 -0.6504
16764TIP3    H271784   0.382   0.642  13.903  1.8595 -1.4008  0.7837
16765TIP3   OH271785   0.355   5.928   3.342 -0.1206 -0.2926 -1.1780
16765TIP3    H171786   0.336   5.851   3.396  1.6984 -0.2488 -0.3893
16765TIP3    H271787   0.429   5.901   3.287  1.6029  1.3055  0.2126
16766TIP3   OH271788   3.664   2.321  14.452 -0.0358 -0.4446  0.5674
16766TIP3    H171789   3.704   2.325  14.539 -1.0834  1.2097  1.0217
16766TIP3    H271790   3.667   2.411  14.420 -1.6094 -0.6210 -0.1792
16767TIP3   OH271791   3.835   5.194  11.094  0.2731  0.3644 -0.5147
16767TIP3    H171792   3.762   5.256  11.089  1.7339  2.2770  0.3560
16767TIP3    H271793   3.808   5.131  11.161 -1.6661 -0.6207 -2.1234
16768TIP3   OH271794   3.961   3.200   0.468 -0.0302  0.1633  0.3473
16768TIP3    H171795   3.922   3.267   0.524 -1.6269  0.8681 -1.5065
16768TIP3    H271796   3.987   3.130   0.528  3.8645  3.2397  2.7480
16769TIP3   OH271797   2.984   4.900   1.269  0.1913  1.1178  0.2357
16769TIP3    H171798   2.953   4.924   1.356 -0.2420 -1.6986  0.9428
16769TIP3    H271799   3.065   4.950   1.258  1.1263  0.3459  2.9462
16770TIP3   OH271800   4.617   5.751  16.820 -0.1847 -0.4568  0.1723
16770TIP3    H171801   4.566   5.762  16.900  0.1770  0.0664  0.3299
16770TIP3    H271802   4.610   5.835  16.775  0.0014 -0.5971 -0.1224
16771TIP3   OH271803   1.192   4.515   3.762 -0.2258 -0.0278 -0.0590
16771TIP3    H171804   1.220   4.499   3.852  1.4897 -0.6477 -0.6497
16771TIP3    H271805   1.185   4.610   3.755 -1.6533 -0.0208  1.0521
16772TIP3   OH271806   6.066   0.760  16.502 -0.2097 -0.3405 -0.5557
16772TIP3    H171807   6.099   0.811  16.427  0.3606 -1.1129 -0.8406
16772TIP3    H271808   6.107   0.801  16.578 -1.4526  0.9901 -0.5569
16773TIP3   OH271809   2.210   4.952   2.963  0.2333 -0.2244  0.2927
16773TIP3    H171810   2.268   4.903   2.905 -1.1756 -2.8243  0.8893
16773TIP3    H271811   2.268   4.988   3.030  1.4164 -0.7833 -0.4044
16774TIP3   OH271812   0.717   1.756   4.597 -0.0919 -0.0050  0.1646
16774TIP3    H171813   0.808   1.732   4.615 -0.0998 -0.4342 -0.3590
16774TIP3    H271814   0.691   1.700   4.524 -1.2350 -0.8941  1.2246
16775TIP3   OH271815   3.993   0.430   0.675  0.0355 -0.2079  0.3958
16775TIP3    H171816   4.026   0.341   0.687 -0.0213 -0.2985 -0.1213
16775TIP3    H271817   3.995   0.468   0.763  0.6227 -0.5254  0.5272
16776TIP3   OH271818   1.149   6.582  16.772 -0.0288  0.3848  0.1153
16776TIP3    H171819   1.086   6.568  16.842  0.3353 -0.4380  0.2906
16776TIP3    H271820   1.144   6.503  16.719  0.0255  0.8101 -0.5329
16777TIP3   OH271821   0.816   4.102  11.771 -0.1051 -0.0938  0.0255
16777TIP3    H171822   0.766   4.037  11.724  0.2236 -1.3826  1.3950
16777TIP3    H271823   0.752   4.147  11.826 -0.0365 -0.5349  0.4655
16778TIP3   OH271824   4.224   3.464  17.155 -0.3170  0.3890 -0.0711
16778TIP3    H171825   4.253   3.383  17.113 -1.4420  0.2667 -0.6571
16778TIP3    H271826   4.133   3.474  17.126 -1.7118 -0.4875  3.4205
16779TIP3   OH271827   5.770   6.342   2.644 -0.1720 -0.7837 -0.6545
16779TIP3    H171828   5.735   6.343   2.555  0.6479 -1.1164 -0.9872
16779TIP3    H271829   5.778   6.250   2.666 -0.5196 -0.6994 -0.1769
16780TIP3   OH271830   0.001   6.164   3.722 -0.4548 -0.3570  0.1118
16780TIP3    H171831   0.042   6.212   3.650 -1.5615 -0.4814 -0.6275
16780TIP3    H271832  -0.060   6.226   3.761 -1.3950 -0.9236 -0.4163
16781TIP3   OH271833   1.080   3.107  15.591  0.1429  0.1117 -0.3416
16781TIP3    H171834   1.101   3.084  15.501 -0.3625 -0.7700 -0.2461
16781TIP3    H271835   1.145   3.060  15.644  0.3819  0.5529 -0.2427
16782TIP3   OH271836   0.232   1.711  13.425  0.2653  0.2682 -0.2134
16782TIP3    H171837   0.314   1.708  13.475  0.5352  0.9971 -0.5893
16782TIP3    H271838   0.251   1.772  13.353  0.0747 -1.1498 -1.5308
16783TIP3   OH271839   1.633   3.976  16.682 -0.0836 -0.4708  0.5276
16783TIP3    H171840   1.689   3.898  16.683 -0.7266 -0.9420  0.5647
16783TIP3    H271841   1.548   3.944  16.651 -0.2644  0.2823  0.2289
16784TIP3   OH271842   0.126   0.676  16.735 -0.0371 -0.2681  0.1843
16784TIP3    H171843   0.208   0.723  16.749  0.1864  0.1583 -2.1637
16784TIP3    H271844   0.086   0.719  16.660 -2.7294 -0.0998  1.6152
16785TIP3   OH271845   0.781   2.012  16.662  0.7168 -0.7234 -0.3495
16785TIP3    H171846   0.780   2.072  16.737  1.2649 -3.2979  1.8834
16785TIP3    H271847   0.707   1.953  16.678  1.5302 -2.0279 -1.1819
16786TIP3   OH271848   3.833   2.238   5.855 -0.5879 -0.1151  0.1788
16786TIP3    H171849   3.749   2.226   5.899 -1.1430 -0.0524 -0.8477
16786TIP3    H271850   3.814   2.295   5.781  0.3969  0.0383  0.0319
16787TIP3   OH271851   4.219   0.984   2.331 -0.8591 -0.2157 -0.3722
16787TIP3    H171852   4.144   1.025   2.374  0.6819 -0.1425  2.4880
16787TIP3    H271853   4.214   0.891   2.355  0.1798 -0.1238  0.3001
16788TIP3   OH271854   2.384   1.737  13.965 -0.5437  0.0959 -0.5678
16788TIP3    H171855   2.383   1.771  14.054  0.7329  0.8632 -0.8155
16788TIP3    H271856   2.333   1.799  13.914 -0.2450  0.3285 -0.5855
16789TIP3   OH271857   2.740   0.326   3.984  0.5182  0.6050 -0.0369
16789TIP3    H171858   2.780   0.261   3.928 -0.0814  1.0514 -1.0061
16789TIP3    H271859   2.813   0.382   4.012  0.9035  0.0394  0.1149
16790TIP3   OH271860   1.158   0.797   2.427 -0.6034 -0.5981  0.0332
16790TIP3    H171861   1.240   0.845   2.419 -0.6519 -0.5898 -0.3975
16790TIP3    H271862   1.182   0.714   2.467 -0.4247 -0.4956  0.1422
16791TIP3   OH271863   1.127   1.314  11.802 -0.4085 -0.1502  0.1617
16791TIP3    H171864   1.057   1.373  11.775  1.1051  1.5690 -0.2751
16791TIP3    H271865   1.125   1.315  11.897 -1.0959 -0.3045  0.1553
16792TIP3   OH271866   2.634   3.086  11.400  0.0249  0.1413 -0.2803
16792TIP3    H171867   2.616   3.174  11.365  0.4631  1.1526  1.8487
16792TIP3    H271868   2.633   3.029  11.323  0.1791  2.0754 -1.8099
16793TIP3   OH271869   0.048   0.097  16.303 -0.0026 -0.0986  0.4514
16793TIP3    H171870   0.114   0.045  16.349 -0.4543  1.1526  2.6178
16793TIP3    H271871   0.068   0.188  16.325 -1.7686  0.3789  0.2512
16794TIP3   OH271872   5.645   5.071  16.552 -0.4510  0.0244 -0.1460
16794TIP3    H171873   5.564   5.055  16.505  0.1455  0.5566 -1.4003
16794TIP3    H271874   5.699   4.994  16.534  0.9449  1.5413 -2.9657
16795TIP3   OH271875   5.930   5.499  12.299  0.1102  0.2328 -1.2131
16795TIP3    H171876   5.864   5.480  12.233 -0.1741  0.5423 -1.0246
16795TIP3    H271877   5.967   5.414  12.323  2.1007  0.2774 -3.6543
16796TIP3   OH271878   2.201   2.792   6.145  0.1213  0.5060  0.0923
16796TIP3    H171879   2.183   2.704   6.179 -0.2102  0.5415  0.0141
16796TIP3    H271880   2.295   2.792   6.126  0.2881  0.4419  0.8767
16797TIP3   OH271881   3.561   2.731   4.170  0.4807 -0.4788  0.5615
16797TIP3    H171882   3.499   2.704   4.102 -0.7390 -1.6669  2.0623
16797TIP3    H271883   3.632   2.667   4.165  2.2599  1.4956 -1.8669
16798TIP3   OH271884   0.458   4.794   3.520  0.6434 -0.2270 -0.2731
16798TIP3    H171885   0.416   4.793   3.606  0.8714 -1.9952 -0.1453
16798TIP3    H271886   0.420   4.870   3.475 -1.3471 -0.7179  0.4805
16799TIP3   OH271887   4.014   2.511  15.774  0.2555 -0.4972 -0.7995
16799TIP3    H171888   4.028   2.514  15.679 -1.4190  1.2689 -1.0680
16799TIP3    H271889   3.986   2.600  15.796 -0.9896 -1.2870  1.0690
16800TIP3   OH271890   2.986   2.522  13.892 -0.0466 -0.3035  0.2734
16800TIP3    H171891   3.074   2.487  13.878  0.5746  1.0664  0.6449
16800TIP3    H271892   2.998   2.595  13.952 -0.8781  2.4282 -2.6442
16801TIP3   OH271893   0.640   2.226   0.438  0.3473 -0.6522  0.4087
16801TIP3    H171894   0.672   2.138   0.419  0.5374 -0.6756  0.8200
16801TIP3    H271895   0.719   2.279   0.449  0.3377 -0.9959  2.7700
16802TIP3   OH271896   4.376   1.555   2.826  0.4210  0.5628 -0.2238
16802TIP3    H171897   4.414   1.468   2.831 -2.0092 -0.7728 -2.5849
16802TIP3    H271898   4.422   1.598   2.754  1.2664  1.1002  0.6100
16803TIP3   OH271899   5.428   4.925  15.768  0.0517 -0.1228 -0.4862
16803TIP3    H171900   5.476   4.925  15.685 -0.2300  0.7150 -0.6629
16803TIP3    H271901   5.485   4.971  15.829 -0.5621  1.0292 -0.7404
16804TIP3   OH271902   5.968   4.806   1.573 -0.3194  0.3711 -0.1523
16804TIP3    H171903   5.927   4.752   1.505 -1.1583 -0.6472  1.0922
16804TIP3    H271904   6.047   4.841   1.533 -1.5638  1.0466 -2.1251
16805TIP3   OH271905   4.928   4.678   4.160  0.0428  0.1424  0.9946
16805TIP3    H171906   4.951   4.662   4.252  1.2603 -1.8111  0.4099
16805TIP3    H271907   4.878   4.601   4.134  1.7324 -0.5070 -0.5841
16806TIP3   OH271908   4.658   1.200  16.505  0.0006 -0.1725 -0.2221
16806TIP3    H171909   4.736   1.151  16.530  1.2230  1.6461 -0.3229
16806TIP3    H271910   4.605   1.136  16.457  1.3663 -1.4795 -0.0850
16807TIP3   OH271911   0.979   5.618  14.145  0.6024 -0.7846 -0.1953
16807TIP3    H171912   0.907   5.626  14.208  0.7868  1.0889 -0.1695
16807TIP3    H271913   0.940   5.572  14.071 -0.5625 -0.0952 -0.0514
16808TIP3   OH271914   4.698   0.236   4.163  0.5458 -0.2825  0.1098
16808TIP3    H171915   4.744   0.203   4.240  2.8435 -0.7463 -1.3540
16808TIP3    H271916   4.721   0.175   4.093  0.9388  1.6846 -1.5844
16809TIP3   OH271917   6.659   0.684   4.520  0.3750  0.7302 -0.3290
16809TIP3    H171918   6.563   0.689   4.519  0.2864 -0.4918 -0.3353
16809TIP3    H271919   6.683   0.703   4.611  0.1434  1.2270 -0.3681
16810TIP3   OH271920   4.391   5.054  15.338  0.7756  0.1060  0.1335
16810TIP3    H171921   4.378   5.110  15.414  1.2558 -0.5190  0.6845
16810TIP3    H271922   4.315   5.071  15.282 -0.5026 -0.6881  1.5304
16811TIP3   OH271923   4.930   5.707   4.315 -0.0353 -0.2696 -0.0944
16811TIP3    H171924   4.857   5.652   4.287 -0.1419 -0.0587 -0.2310
16811TIP3    H271925   4.889   5.789   4.343  0.0503 -0.5338  0.8349
16812TIP3   OH271926   4.186   6.783  15.540 -1.0862 -0.0376 -0.3113
16812TIP3    H171927   4.158   6.791  15.631  0.4133 -0.7712  0.2681
16812TIP3    H271928   4.156   6.863  15.497 -2.2889  0.0678  0.6879
16813TIP3   OH271929   3.594   3.123   3.681 -0.1507 -0.4089  0.3584
16813TIP3    H171930   3.553   3.082   3.605 -1.2629  0.1038  0.6759
16813TIP3    H271931   3.537   3.195   3.704  1.3093  0.7854  0.3798
16814TIP3   OH271932   4.099   0.064  15.776 -0.1415  0.5455 -0.1173
16814TIP3    H171933   4.145  -0.004  15.825 -1.3864 -0.6076 -0.4871
16814TIP3    H271934   4.147   0.144  15.796  2.4242 -0.6722 -1.0114
16815TIP3   OH271935   4.233   6.751   1.315  0.0458 -0.4190  0.2633
16815TIP3    H171936   4.204   6.839   1.291 -0.6923  0.3111  3.3012
16815TIP3    H271937   4.180   6.692   1.261 -1.4011  0.9944  0.0749
16816TIP3   OH271938   2.321   6.524   4.744  0.1986 -0.4334  0.0363
16816TIP3    H171939   2.373   6.495   4.819  0.3327  2.1069  1.0517
16816TIP3    H271940   2.230   6.521   4.776  0.0374 -1.4862 -0.5013
16817TIP3   OH271941   3.212   2.679  12.570 -0.7651  0.3356  0.1193
16817TIP3    H171942   3.146   2.625  12.613 -0.5852  0.1669  0.1867
16817TIP3    H271943   3.260   2.720  12.642  0.2414 -0.7845  0.1330
16818TIP3   OH271944   5.990   1.189  11.608  0.3169  0.3743 -0.4375
16818TIP3    H171945   5.910   1.153  11.644  0.6084 -1.8697 -1.8401
16818TIP3    H271946   5.969   1.210  11.517  1.4274 -0.7813 -0.9916
16819TIP3   OH271947   5.628   4.512  15.429  0.3100 -0.4458 -0.0288
16819TIP3    H171948   5.564   4.560  15.377  0.4552  0.0654  0.2555
16819TIP3    H271949   5.596   4.518  15.519  0.2227 -1.0593 -0.0129
16820TIP3   OH271950   0.941   1.834   6.232 -0.5451 -0.6361 -0.0550
16820TIP3    H171951   1.031   1.831   6.264 -0.8856  1.8494  1.4947
16820TIP3    H271952   0.887   1.821   6.311 -1.4865  0.3528 -0.5032
16821TIP3   OH271953   4.108   1.978   0.824  0.2394 -0.1278  0.0355
16821TIP3    H171954   4.130   2.002   0.735  1.4226  2.9094  1.0297
16821TIP3    H271955   4.188   1.940   0.860 -0.3530 -1.7273 -0.2574
16822TIP3   OH271956   0.244   1.098   2.640 -0.0932  0.2737 -0.1184
16822TIP3    H171957   0.191   1.174   2.666  1.0608  0.8472  0.6238
16822TIP3    H271958   0.294   1.129   2.564 -1.6936 -0.6597 -1.6286
16823TIP3   OH271959   6.198   4.327   2.580  0.3302 -0.3690 -0.0586
16823TIP3    H171960   6.285   4.365   2.595 -0.2526  0.6863  0.7816
16823TIP3    H271961   6.162   4.316   2.668 -0.3361 -0.9403 -0.3953
16824TIP3   OH271962   1.096   5.367  14.790 -0.3355  0.6424 -0.1385
16824TIP3    H171963   1.083   5.284  14.835  1.6393 -0.0674 -0.7363
16824TIP3    H271964   1.182   5.397  14.819  0.5821  0.6479 -2.5746
16825TIP3   OH271965   3.135   3.324   2.357 -0.0878  0.2431 -0.2314
16825TIP3    H171966   3.146   3.420   2.358  2.7490 -0.0065 -0.2263
16825TIP3    H271967   3.049   3.311   2.316  0.0123  2.7679 -1.4682
16826TIP3   OH271968   3.391   1.406   4.963  0.6094  0.1718 -0.6379
16826TIP3    H171969   3.302   1.403   4.998  0.7080  0.2012 -0.3852
16826TIP3    H271970   3.389   1.348   4.887  1.2346 -2.5282  1.2667
16827TIP3   OH271971   1.378   3.282  12.306  0.4051 -0.3104  0.2191
16827TIP3    H171972   1.342   3.336  12.236 -1.3708 -0.9440  0.5828
16827TIP3    H271973   1.376   3.193  12.270  0.5795 -0.4919  0.6594
16828TIP3   OH271974   0.415   6.102   3.796  0.1224  0.0872 -0.0202
16828TIP3    H171975   0.440   6.021   3.751 -2.6680 -0.6076 -0.4898
16828TIP3    H271976   0.345   6.077   3.855  0.1504  1.9427  0.8918
16829TIP3   OH271977   2.895   6.747  11.109 -0.4192  0.3021 -0.7345
16829TIP3    H171978   2.927   6.757  11.020 -1.3252  1.3589 -0.9609
16829TIP3    H271979   2.974   6.736  11.162  0.2595  1.5472 -1.4408
16830TIP3   OH271980   6.800   5.428   1.634 -0.4254 -0.3292 -0.5670
16830TIP3    H171981   6.832   5.491   1.570 -1.8375  1.0377  0.0056
16830TIP3    H271982   6.855   5.442   1.711 -1.0232  0.5497 -0.2874
16831TIP3   OH271983   2.717   4.459   3.837  0.0154  0.0621  0.1394
16831TIP3    H171984   2.651   4.524   3.860 -1.6838 -1.8209  0.9167
16831TIP3    H271985   2.673   4.401   3.774  0.9385 -1.1828  0.5942
16832TIP3   OH271986   2.984   4.603   4.389  0.1477 -0.0493 -0.2030
16832TIP3    H171987   2.893   4.576   4.400 -0.5353  1.4096 -1.7589
16832TIP3    H271988   2.979   4.688   4.345  2.2445  0.9874  1.3521
16833TIP3   OH271989   3.185   2.193   2.761  0.2159  0.0795  0.2125
16833TIP3    H171990   3.243   2.188   2.684 -0.5389 -1.7064 -0.2909
16833TIP3    H271991   3.243   2.173   2.835  0.4998 -0.5554 -0.1646
16834TIP3   OH271992   3.725   0.811  11.579  0.2291 -0.5795 -0.4566
16834TIP3    H171993   3.658   0.842  11.640 -0.4289  0.1218 -1.5290
16834TIP3    H271994   3.713   0.862  11.500  1.4493 -1.0840 -1.0014
16835TIP3   OH271995   1.666   5.314  14.946  0.5801 -0.0077  0.4583
16835TIP3    H171996   1.599   5.266  14.996 -1.0922  0.1001 -1.5313
16835TIP3    H271997   1.624   5.397  14.924 -0.0782 -1.2321 -3.6971
16836TIP3   OH271998   3.788   6.371   3.387 -0.2399  0.1995 -0.0241
16836TIP3    H171999   3.857   6.438   3.389  1.8999 -1.8816  0.9347
16836TIP3    H272000   3.792   6.336   3.298  2.4739 -2.2012  0.8791
16837TIP3   OH272001   6.268   6.288  14.640 -0.1258  0.1930  0.6546
16837TIP3    H172002   6.326   6.212  14.631  0.5316  0.7964 -0.2233
16837TIP3    H272003   6.276   6.313  14.732 -0.2486 -0.7120  0.9230
16838TIP3   OH272004   5.880   1.410   0.171 -0.0206 -0.6306 -0.3076
16838TIP3    H172005   5.974   1.394   0.175  0.3814  1.7173  1.5762
16838TIP3    H272006   5.846   1.338   0.117  2.7201 -1.9576 -0.4359
16839TIP3   OH272007   4.950   2.098   1.378 -0.1765 -0.1114  0.1436
16839TIP3    H172008   4.893   2.030   1.416 -0.6513  0.5857  0.7197
16839TIP3    H272009   5.038   2.075   1.409 -0.6136  0.7378  2.2022
16840TIP3   OH272010   0.803   4.348   3.217  0.3603 -0.4596 -0.4434
16840TIP3    H172011   0.777   4.436   3.189 -1.2413 -0.6599  0.3077
16840TIP3    H272012   0.899   4.351   3.220  0.3278  1.2699 -0.3692
16841TIP3   OH272013   3.146   2.412  15.680  0.2801  0.3966 -0.4011
16841TIP3    H172014   3.111   2.499  15.698 -0.1192  0.2089 -0.2453
16841TIP3    H272015   3.173   2.378  15.765 -1.3352 -0.3752 -0.1623
16842TIP3   OH272016   0.425   3.149   2.146  0.1436  0.2651  0.0348
16842TIP3    H172017   0.332   3.172   2.143 -0.5187 -1.6972  2.3804
16842TIP3    H272018   0.433   3.074   2.087  0.5091  1.0788 -0.9843
16843TIP3   OH272019   2.881   0.805   0.718 -0.2621 -0.5022 -0.2698
16843TIP3    H172020   2.798   0.760   0.701 -1.3095  0.5282  1.6914
16843TIP3    H272021   2.904   0.778   0.807  0.9218  0.1161 -0.3706
16844TIP3   OH272022   2.554   0.728  14.776 -0.3188 -0.2948  0.2362
16844TIP3    H172023   2.548   0.688  14.689 -0.3636  1.4442 -0.6130
16844TIP3    H272024   2.622   0.796  14.766  1.0368 -1.2948  2.0920
16845TIP3   OH272025   0.861   5.789   5.489 -0.5170 -0.3340  0.2569
16845TIP3    H172026   0.935   5.801   5.429 -0.6307  1.2098  0.3797
16845TIP3    H272027   0.790   5.756   5.434 -0.4240  0.4295 -0.3418
16846TIP3   OH272028   0.832   2.255   3.863 -0.2734  0.3598 -0.1285
16846TIP3    H172029   0.777   2.315   3.914 -1.3942 -0.1700 -0.6912
16846TIP3    H272030   0.922   2.284   3.881 -0.7372  1.3716  0.6418
16847TIP3   OH272031   2.315   6.793   1.187 -0.7330 -0.3788  0.5024
16847TIP3    H172032   2.242   6.756   1.237 -0.7824 -1.0938 -0.0941
16847TIP3    H272033   2.359   6.718   1.149 -0.0968  0.0989  0.2844
16848TIP3   OH272034   4.158   2.025  14.352 -0.0742  0.1735 -0.0813
16848TIP3    H172035   4.090   1.967  14.318 -0.0938 -0.3959  0.8681
16848TIP3    H272036   4.227   1.965  14.380  0.0087  0.6254  0.6971
16849TIP3   OH272037   4.677   6.787   1.375 -0.7491  0.2492 -0.0589
16849TIP3    H172038   4.629   6.728   1.317 -0.7868  0.9073 -0.7107
16849TIP3    H272039   4.754   6.813   1.325 -0.5625  0.4935  0.3502
16850TIP3   OH272040   3.789   6.342  12.288  0.3707 -0.4382  0.1786
16850TIP3    H172041   3.815   6.366  12.377  3.9177 -0.6120 -0.6411
16850TIP3    H272042   3.780   6.247  12.291 -0.6938 -0.3315  0.5899
16851TIP3   OH272043   4.413   3.065  15.120  0.2081 -0.4610  0.4538
16851TIP3    H172044   4.446   3.087  15.033  1.5433  0.4145  1.1344
16851TIP3    H272045   4.331   3.113  15.128  1.3819  1.6441  0.6254
16852TIP3   OH272046   6.670   6.028   5.402 -0.4500 -0.2905  0.1381
16852TIP3    H172047   6.686   6.061   5.490 -0.2708  1.9402 -0.6536
16852TIP3    H272048   6.658   6.107   5.349 -1.5993 -1.5796 -1.6473
16853TIP3   OH272049   4.061   2.931  11.899 -0.5395 -0.2486 -0.1564
16853TIP3    H172050   4.092   2.937  11.809 -2.2061  2.6611 -0.6533
16853TIP3    H272051   4.013   2.848  11.902  1.1468 -1.3259 -1.3472
16854TIP3   OH272052   1.969   2.937   1.191 -0.0915 -0.1972 -0.5107
16854TIP3    H172053   1.945   2.847   1.214 -0.7471  0.4040  1.2976
16854TIP3    H272054   1.981   2.934   1.096 -0.8848 -2.0138 -0.6076
16855TIP3   OH272055   4.203   2.687  11.744  0.0085  0.4320  0.3233
16855TIP3    H172056   4.194   2.626  11.671  0.9414  0.3053  0.3108
16855TIP3    H272057   4.268   2.646  11.801 -1.8150 -0.2802  2.0422
16856TIP3   OH272058   2.183   4.632   2.388  0.5050  0.2015  0.4050
16856TIP3    H172059   2.106   4.639   2.445  0.5039  1.0014  0.3150
16856TIP3    H272060   2.198   4.721   2.356 -0.1971 -0.4057 -1.7765
16857TIP3   OH272061   5.770   3.484  14.201  0.6628  0.2783 -0.5091
16857TIP3    H172062   5.734   3.535  14.129  1.4203 -1.0043 -1.8554
16857TIP3    H272063   5.742   3.394  14.183 -0.3271  0.0993  1.5904
16858TIP3   OH272064   2.770   1.548  13.498 -0.5493 -0.5413 -0.2649
16858TIP3    H172065   2.767   1.504  13.583  1.4539 -1.2636 -0.5080
16858TIP3    H272066   2.779   1.478  13.434 -0.7255  0.0623 -0.9754
16859TIP3   OH272067   3.699   1.575   0.566 -0.0558  0.3609  0.2025
16859TIP3    H172068   3.793   1.593   0.558 -0.0149 -0.2644 -1.0472
16859TIP3    H272069   3.695   1.491   0.612 -0.0347  0.6739  0.7855
16860TIP3   OH272070   6.263   1.717  17.151 -0.6593 -0.1092 -0.3329
16860TIP3    H172071   6.174   1.689  17.128 -1.2111  0.3823  1.0900
16860TIP3    H272072   6.305   1.636  17.182 -0.9790 -0.1436  0.0293
16861TIP3   OH272073   5.508   0.012  15.034  0.2444 -0.1294 -0.0481
16861TIP3    H172074   5.484  -0.080  15.042 -1.1426  0.1765 -0.4347
16861TIP3    H272075   5.424   0.059  15.034  0.9125  1.1120 -0.1261
16862TIP3   OH272076   5.244   5.037   1.462  0.3392 -0.4857  0.2770
16862TIP3    H172077   5.291   5.120   1.474  0.1083 -0.2255 -0.5558
16862TIP3    H272078   5.210   5.041   1.373 -0.2200 -1.2064  0.4451
16863TIP3   OH272079   4.293   4.030  11.518  0.1153  0.4495  0.1997
16863TIP3    H172080   4.320   4.119  11.540 -1.4782  0.3579  2.9476
16863TIP3    H272081   4.258   3.994  11.600 -2.0710 -1.6623 -1.5044
16864TIP3   OH272082   6.681   2.219   2.714  0.0361 -0.1862  0.1615
16864TIP3    H172083   6.629   2.170   2.778 -0.9772  1.9202  1.0805
16864TIP3    H272084   6.770   2.217   2.750  0.0008 -1.2277  0.2281
16865TIP3   OH272085   6.086   3.555   0.545  0.1096  0.3047  0.0766
16865TIP3    H172086   5.999   3.538   0.581  0.3871  1.5827  1.4652
16865TIP3    H272087   6.147   3.516   0.608  0.5550 -0.7571 -0.9860
16866TIP3   OH272088   0.619   1.841  15.537 -0.1142  0.2490  0.1419
16866TIP3    H172089   0.659   1.777  15.595 -3.2274 -1.0731  1.0405
16866TIP3    H272090   0.691   1.872  15.482  2.2700 -1.0566  2.3226
16867TIP3   OH272091   0.912   3.891  14.558 -0.1691 -0.3550  0.0209
16867TIP3    H172092   0.986   3.860  14.610  1.0470  1.0096 -0.8156
16867TIP3    H272093   0.882   3.970  14.603 -0.4518 -0.3285 -0.2130
16868TIP3   OH272094   6.151   5.894  12.268 -0.5425 -0.0662  0.3640
16868TIP3    H172095   6.236   5.918  12.305 -0.1011 -0.2913 -0.4911
16868TIP3    H272096   6.093   5.966  12.295  0.1671  0.6467  0.0365
16869TIP3   OH272097   0.021   6.765  16.813 -0.3260 -0.0085  1.1218
16869TIP3    H172098  -0.053   6.823  16.797  1.0340  2.5074  3.2403
16869TIP3    H272099  -0.000   6.720  16.895 -0.9450 -1.9416 -0.0236
16870TIP3   OH272100   6.434   1.177   2.730  0.2621 -0.1384  0.0168
16870TIP3    H172101   6.431   1.247   2.794  2.5946 -0.4850  0.6091
16870TIP3    H272102   6.350   1.132   2.739 -0.1211  0.8230  1.6454
16871TIP3   OH272103   5.100   5.704  16.567 -0.4308 -0.7163 -0.3545
16871TIP3    H172104   5.153   5.713  16.646 -0.9227 -1.5979  0.0917
16871TIP3    H272105   5.020   5.753  16.586  0.5007  1.3044 -1.3339
16872TIP3   OH272106   2.003   5.606  12.070 -0.2403 -0.2616  0.6204
16872TIP3    H172107   2.003   5.512  12.050  2.0539  0.3151 -2.8690
16872TIP3    H272108   1.932   5.642  12.017  0.6581  0.2941 -0.2267
16873TIP3   OH272109   3.509   1.137   0.803  0.4031 -0.3168  0.4156
16873TIP3    H172110   3.430   1.177   0.839  0.7792  0.3000  0.5778
16873TIP3    H272111   3.485   1.046   0.787 -1.0541  0.3693 -1.7419
16874TIP3   OH272112   3.866   1.414  17.259  0.1745 -0.4299  0.5912
16874TIP3    H172113   3.903   1.327  17.273 -0.3442 -0.8009 -0.2727
16874TIP3    H272114   3.772   1.400  17.252 -0.1905  0.5068  2.7552
16875TIP3   OH272115   1.739   1.248   1.813  0.1697 -0.3927 -0.1979
16875TIP3    H172116   1.818   1.282   1.771 -0.9410  1.2381 -1.0992
16875TIP3    H272117   1.735   1.293   1.897 -0.1157  0.0452 -0.4367
16876TIP3   OH272118   6.332   3.852  14.870 -0.3146 -0.1764 -0.2597
16876TIP3    H172119   6.244   3.868  14.834  0.1419 -0.3867 -1.5288
16876TIP3    H272120   6.316   3.819  14.958 -1.4700  0.8909 -0.0442
16877TIP3   OH272121   3.600   1.166  16.660 -0.3096 -0.4639 -0.1521
16877TIP3    H172122   3.657   1.146  16.734 -1.4297  0.2426  0.9393
16877TIP3    H272123   3.659   1.201  16.593  0.5072  0.5258  1.0436
16878TIP3   OH272124   0.302   3.280  12.133 -0.0393 -0.5095 -0.1755
16878TIP3    H172125   0.323   3.200  12.179  1.8656 -0.3268 -0.6561
16878TIP3    H272126   0.301   3.348  12.201  1.0344 -0.5215 -0.1334
16879TIP3   OH272127   0.711   5.790  13.985  0.3590 -0.1874  0.1059
16879TIP3    H172128   0.632   5.844  13.988 -1.0302 -2.1146  2.7813
16879TIP3    H272129   0.775   5.839  14.037  0.0932  0.2095  0.0676
16880TIP3   OH272130   1.215   0.051   4.388 -0.5736 -0.1703 -0.1267
16880TIP3    H172131   1.184   0.095   4.468  1.3820 -0.3407  0.7966
16880TIP3    H272132   1.169  -0.033   4.388  0.7464 -0.9768  1.9147
16881TIP3   OH272133   2.355   6.800   2.031  0.3388 -0.0398 -0.2504
16881TIP3    H172134   2.423   6.733   2.032  3.0431  2.5178  0.5213
16881TIP3    H272135   2.347   6.826   1.940 -0.8230 -1.4061 -0.5749
16882TIP3   OH272136   2.302   1.339  13.528  0.2805  0.6025 -0.2757
16882TIP3    H172137   2.363   1.413  13.537 -0.0800  0.8080  0.4670
16882TIP3    H272138   2.283   1.336  13.434  0.6654  1.1535 -0.3785
16883TIP3   OH272139   4.418   3.537  12.551 -0.5557  0.0610  0.3076
16883TIP3    H172140   4.396   3.621  12.511 -3.1576 -0.0239  1.4137
16883TIP3    H272141   4.473   3.560  12.626 -0.3891  0.6795  0.0024
16884TIP3   OH272142   4.793   6.580  16.202  0.5748 -0.6346 -0.1308
16884TIP3    H172143   4.703   6.611  16.212  0.7235 -0.2271 -0.0146
16884TIP3    H272144   4.828   6.632  16.129  1.8185  1.8452  2.0485
16885TIP3   OH272145   2.276   6.405  16.953 -0.0209  0.1821  0.0860
16885TIP3    H172146   2.364   6.438  16.936  1.1689 -2.5957  0.3405
16885TIP3    H272147   2.243   6.380  16.866 -1.0425  2.0984 -0.1457
16886TIP3   OH272148   4.540   1.764   0.166  0.2030  0.8384  0.2449
16886TIP3    H172149   4.508   1.849   0.137 -1.3140  0.4943  0.8198
16886TIP3    H272150   4.521   1.762   0.260  1.7184  0.4938  0.5721
16887TIP3   OH272151   3.556   6.511   4.567  0.4701 -0.0862 -0.3440
16887TIP3    H172152   3.472   6.516   4.612 -1.5117 -3.5602 -3.1190
16887TIP3    H272153   3.609   6.452   4.621  0.3331  0.3474  0.2792
16888TIP3   OH272154   0.353   4.516  16.351 -0.0014  0.2868 -0.0213
16888TIP3    H172155   0.285   4.549  16.409 -0.3540 -0.1071 -0.2018
16888TIP3    H272156   0.346   4.571  16.273 -0.5542 -0.1729 -0.3021
16889TIP3   OH272157   0.305   1.214   0.333 -0.8072 -1.3953 -0.0390
16889TIP3    H172158   0.363   1.149   0.296 -0.2316 -0.5781 -0.5963
16889TIP3    H272159   0.296   1.281   0.265  0.8272  0.4969  1.4509
16890TIP3   OH272160   4.487   5.065   0.561  0.3057 -0.4407  0.2672
16890TIP3    H172161   4.419   5.082   0.496 -0.1288 -3.8562 -0.4096
16890TIP3    H272162   4.455   5.104   0.642 -0.7500  1.0038 -0.7981
16891TIP3   OH272163   5.246   3.229  15.764  1.2490 -0.2806 -0.1137
16891TIP3    H172164   5.241   3.323  15.751  0.4430 -0.3160 -0.1680
16891TIP3    H272165   5.331   3.213  15.805  1.6515  0.3982 -0.6818
16892TIP3   OH272166   6.561   3.889   3.331 -0.4377 -0.1936 -0.1430
16892TIP3    H172167   6.509   3.812   3.355 -0.0013 -0.8439 -1.2090
16892TIP3    H272168   6.573   3.882   3.236 -1.1182  1.6533 -0.4145
16893TIP3   OH272169   0.087   3.156   5.065  0.4538  0.8533 -0.1635
16893TIP3    H172170   0.141   3.141   4.986 -1.0897 -2.2032 -0.7747
16893TIP3    H272171   0.134   3.110   5.135 -1.5666 -2.6509 -0.8866
16894TIP3   OH272172   0.806   1.967   1.464 -0.5059 -0.1719  0.0769
16894TIP3    H172173   0.845   2.027   1.400 -2.0407 -0.5988 -1.3185
16894TIP3    H272174   0.787   2.022   1.539 -2.3400  1.2833 -1.3537
16895TIP3   OH272175   1.999   6.201  13.958 -0.2804 -0.3217  0.3529
16895TIP3    H172176   1.932   6.141  13.993  0.9249 -1.6799  0.3968
16895TIP3    H272177   2.036   6.243  14.036  1.2647 -2.1310  0.6548
16896TIP3   OH272178   1.840   6.116   4.854  0.1772  0.6311  0.4329
16896TIP3    H172179   1.787   6.039   4.833 -0.1039  1.1730 -1.0456
16896TIP3    H272180   1.923   6.081   4.885  0.6490 -0.3507 -1.7010
16897TIP3   OH272181   1.521   3.799   4.577  0.5735  0.0737  0.5456
16897TIP3    H172182   1.597   3.831   4.528  2.0191  0.2652  2.7692
16897TIP3    H272183   1.508   3.709   4.545  1.6276  0.0908  0.0128
16898TIP3   OH272184   5.025   3.532  11.106  0.0955  0.1766 -0.4342
16898TIP3    H172185   5.095   3.575  11.154  0.2730 -0.1222 -0.4248
16898TIP3    H272186   4.951   3.593  11.112 -0.2853 -0.3892  1.2756
16899TIP3   OH272187   4.809   0.610  15.191  0.5667 -0.2905 -0.2017
16899TIP3    H172188   4.846   0.593  15.105 -0.7722  1.8243 -1.2864
16899TIP3    H272189   4.855   0.688  15.223 -1.3835  1.1375 -0.6812
16900TIP3   OH272190   0.122   5.695  13.735  0.1890  1.2644 -0.3383
16900TIP3    H172191   0.163   5.764  13.684 -0.0521  0.7442 -1.2611
16900TIP3    H272192   0.033   5.727  13.753 -0.1410  0.9307 -1.3289
16901TIP3   OH272193   0.488   3.557  12.258 -0.1540  0.1661 -0.2886
16901TIP3    H172194   0.516   3.550  12.350  0.2983 -1.1315 -0.5077
16901TIP3    H272195   0.568   3.583  12.211 -0.2356  0.2049 -0.4063
16902TIP3   OH272196   2.919   4.693  12.187  0.6893  0.0181  0.1769
16902TIP3    H172197   2.986   4.690  12.119  0.1748 -0.6172 -0.3127
16902TIP3    H272198   2.896   4.786  12.194  2.1582  0.3619  0.9082
16903TIP3   OH272199   5.443   5.322   4.429  0.4658  0.4063 -0.3936
16903TIP3    H172200   5.514   5.385   4.418 -0.8354  1.5818 -2.8026
16903TIP3    H272201   5.365   5.368   4.398 -0.9642 -1.6032  0.0441
16904TIP3   OH272202   3.054   6.611   2.121 -0.3202 -0.1503  0.2532
16904TIP3    H172203   3.113   6.682   2.145 -2.0618  0.9834  1.4783
16904TIP3    H272204   3.098   6.531   2.149  1.3764  0.4874 -0.5016
16905TIP3   OH272205   3.789   2.101  17.198 -0.3923  0.0686 -0.0861
16905TIP3    H172206   3.772   2.033  17.264  0.0308 -0.2252 -0.2742
16905TIP3    H272207   3.709   2.103  17.145 -1.2889  1.2399  1.2256
16906TIP3   OH272208   1.127   3.894  11.932 -0.0642  0.2692  0.0132
16906TIP3    H172209   1.185   3.840  11.987 -0.4903 -0.0476  0.1534
16906TIP3    H272210   1.119   3.844  11.851 -2.8774 -1.4206  1.2110
16907TIP3   OH272211   6.295   4.131   5.079 -0.5744  0.4947  0.6325
16907TIP3    H172212   6.212   4.151   5.037 -1.7804 -2.0291  1.5852
16907TIP3    H272213   6.295   4.184   5.159 -0.0883  2.3026 -0.5035
16908TIP3   OH272214   4.613   5.393  14.501  0.1688  0.2391  1.4420
16908TIP3    H172215   4.543   5.456  14.521 -0.1761 -0.2470  1.8003
16908TIP3    H272216   4.567   5.313  14.478  0.6086  0.0592  1.1743
16909TIP3   OH272217   1.046   2.631   2.462  0.0776 -0.4021 -0.5213
16909TIP3    H172218   1.135   2.599   2.480  0.4706  0.0782 -1.5264
16909TIP3    H272219   1.055   2.681   2.382 -1.1014 -0.2688 -0.5818
16910TIP3   OH272220   0.144   6.526  14.945  0.3832 -0.0759 -0.3621
16910TIP3    H172221   0.121   6.461  15.011 -0.9237  0.5768 -0.1268
16910TIP3    H272222   0.188   6.477  14.876 -1.4379 -1.4217 -0.6635
16911TIP3   OH272223   6.060   4.642   4.475 -0.3229 -0.3312  0.3716
16911TIP3    H172224   6.007   4.562   4.484  0.3090 -0.7106  0.8142
16911TIP3    H272225   5.998   4.708   4.444 -1.4397 -0.3305  2.4566
16912TIP3   OH272226   6.503   2.538   2.165 -0.2404  0.3442  0.3604
16912TIP3    H172227   6.471   2.463   2.216  1.5002  0.8116  2.2773
16912TIP3    H272228   6.481   2.614   2.218  1.7027  0.8378  0.5565
16913TIP3   OH272229   4.763   6.448   4.711  0.3307 -0.1947 -0.0169
16913TIP3    H172230   4.847   6.402   4.715 -0.7423 -2.1845  1.5610
16913TIP3    H272231   4.706   6.389   4.662 -0.7559  0.0228  0.9410
16914TIP3   OH272232   4.154   5.396   0.956  0.1858 -0.5331 -0.0127
16914TIP3    H172233   4.152   5.483   0.998 -0.3443 -1.3134  1.6847
16914TIP3    H272234   4.220   5.404   0.888 -0.8104  1.6077 -0.8407
16915TIP3   OH272235   0.847   1.977  13.104  0.5130  0.2068 -0.5565
16915TIP3    H172236   0.942   1.966  13.108  0.4016 -0.7825 -0.3238
16915TIP3    H272237   0.815   1.896  13.064 -0.1574  0.9823 -1.6613
16916TIP3   OH272238   0.398   5.083   3.797  0.1107 -0.2314 -0.7853
16916TIP3    H172239   0.365   5.051   3.881  3.1284 -0.9676  0.2118
16916TIP3    H272240   0.329   5.061   3.735 -2.1849  0.2292  1.4256
16917TIP3   OH272241   0.268   4.754  17.163 -0.2586  0.4390  0.1560
16917TIP3    H172242   0.321   4.785  17.089 -0.3782  1.7657  0.6064
16917TIP3    H272243   0.240   4.833  17.207 -1.3323 -0.3039  0.8444
16918TIP3   OH272244   4.991   0.178  12.590  0.2726  0.2413 -0.0894
16918TIP3    H172245   5.054   0.203  12.523 -0.8040 -1.6844 -1.9549
16918TIP3    H272246   4.911   0.224  12.566 -0.3798 -1.1626 -0.7769
16919TIP3   OH272247   5.835   0.484   3.175  0.1013 -1.1462 -0.0086
16919TIP3    H172248   5.812   0.518   3.089 -2.7436  0.0962  1.1209
16919TIP3    H272249   5.913   0.532   3.200 -0.4897  0.3342 -0.8876
16920TIP3   OH272250   2.071   2.715   3.371  0.0341  0.0476  0.3333
16920TIP3    H172251   2.158   2.689   3.399 -0.5060 -3.7571 -0.9210
16920TIP3    H272252   2.084   2.756   3.286  0.6159 -0.8840 -0.0414
16921TIP3   OH272253   6.394   0.320   1.783  0.3154 -0.2719 -0.4730
16921TIP3    H172254   6.312   0.361   1.757 -1.1742 -1.7120  1.5825
16921TIP3    H272255   6.437   0.384   1.839  0.3854  0.2879 -1.1503
16922TIP3   OH272256   5.773   3.204  15.003  0.0705 -0.3001 -0.1143
16922TIP3    H172257   5.750   3.112  15.014  0.6900 -0.1905  2.9742
16922TIP3    H272258   5.693   3.252  15.023 -0.1519 -0.1303 -1.3552
16923TIP3   OH272259   0.035   3.807  13.215 -0.0505  0.2555 -0.5299
16923TIP3    H172260  -0.038   3.792  13.275 -0.7527  0.3886 -1.3305
16923TIP3    H272261   0.042   3.725  13.165 -0.1513  0.5148 -0.9753
16924TIP3   OH272262   1.442   2.850  14.940 -0.0914 -0.0954 -0.7164
16924TIP3    H172263   1.493   2.779  14.901  0.2904 -0.6355  0.7161
16924TIP3    H272264   1.354   2.840  14.901  0.3755 -0.3203 -1.7642
16925TIP3   OH272265   4.640   4.763   5.325  0.1002 -0.2755 -1.0436
16925TIP3    H172266   4.726   4.728   5.351  0.3286 -0.0365 -1.4669
16925TIP3    H272267   4.579   4.727   5.390  0.9851  2.2621  1.4154
16926TIP3   OH272268   2.195   5.519  15.506 -0.1861 -0.2428 -0.1536
16926TIP3    H172269   2.211   5.613  15.498  1.5509 -0.5585 -0.7648
16926TIP3    H272270   2.248   5.480  15.437 -1.3201 -1.6557 -0.2673
16927TIP3   OH272271   2.895   2.876  14.792  0.4265 -0.4739 -0.1927
16927TIP3    H172272   2.887   2.909  14.882  1.8559  1.0841 -0.5861
16927TIP3    H272273   2.804   2.863  14.763 -0.0588 -0.8356  1.3971
16928TIP3   OH272274   3.429   6.243  14.458 -0.0502 -0.2426 -0.0581
16928TIP3    H172275   3.512   6.209  14.492  0.7412  0.9681 -0.6779
16928TIP3    H272276   3.385   6.166  14.421  0.4230 -1.0434  0.9934
16929TIP3   OH272277   6.228   5.534  13.714 -0.5712 -0.4683 -0.4100
16929TIP3    H172278   6.191   5.532  13.626 -0.5508 -1.6819 -0.4121
16929TIP3    H272279   6.308   5.482  13.707  0.1792  0.5834  0.0220
16930TIP3   OH272280   0.328   4.228  12.098  0.2704 -0.0539 -0.0519
16930TIP3    H172281   0.342   4.163  12.168  0.2947  0.0588  0.0475
16930TIP3    H272282   0.358   4.311  12.136  0.7564 -0.0797 -0.3729
16931TIP3   OH272283   3.154   1.707  13.252  0.0316  0.3872  0.4534
16931TIP3    H172284   3.166   1.761  13.330  0.7691  1.5326 -0.4126
16931TIP3    H272285   3.237   1.715  13.205 -0.5267  0.0150 -0.6237
16932TIP3   OH272286   1.614   0.259  15.730 -0.1476  0.3866 -0.0910
16932TIP3    H172287   1.677   0.231  15.796 -0.3596 -1.3967 -0.5899
16932TIP3    H272288   1.560   0.325  15.774 -0.3176 -0.7933  1.5487
16933TIP3   OH272289   3.176   4.532  16.036  0.3833  0.1153 -0.2141
16933TIP3    H172290   3.141   4.596  15.974 -1.0117  0.0424  0.4549
16933TIP3    H272291   3.266   4.517  16.006 -0.1645  0.2370 -2.0842
16934TIP3   OH272292   6.441   2.733   6.080  0.1456  0.0099  0.0774
16934TIP3    H172293   6.535   2.729   6.099  0.5761 -0.1207 -1.9338
16934TIP3    H272294   6.414   2.642   6.071 -0.7076 -0.1041  2.7235
16935TIP3   OH272295   3.243   2.818  12.816 -0.3797  0.3636  0.5644
16935TIP3    H172296   3.210   2.900  12.780 -0.6708  0.4289  0.9823
16935TIP3    H272297   3.316   2.845  12.873 -1.0116  0.4139  1.3683
16936TIP3   OH272298   0.476   3.981   1.365 -0.0101  0.2164 -0.4538
16936TIP3    H172299   0.442   3.943   1.284 -0.4426 -1.5237  0.4829
16936TIP3    H272300   0.450   3.919   1.433 -0.0277  1.8224  1.0939
16937TIP3   OH272301   4.896   5.260   5.338  0.1647  0.0054  0.4094
16937TIP3    H172302   4.861   5.306   5.415 -0.6860  1.0138 -0.5376
16937TIP3    H272303   4.819   5.218   5.299  0.7726 -1.4180  0.6988
16938TIP3   OH272304   3.137   6.479   5.650  0.0854  0.0149 -0.1407
16938TIP3    H172305   3.203   6.482   5.580  0.1124  0.3960 -0.0998
16938TIP3    H272306   3.185   6.503   5.729 -0.0454  0.0293 -0.0660
16939TIP3   OH272307   4.320   2.026   1.634  0.3239 -0.2135  0.2847
16939TIP3    H172308   4.295   1.934   1.644  0.3940 -0.0396  2.4978
16939TIP3    H272309   4.409   2.031   1.670 -0.1097  0.9110  1.2601
16940TIP3   OH272310   0.988   3.254  15.116  0.3342  0.4855 -0.1028
16940TIP3    H172311   0.898   3.229  15.096  0.3719 -1.5605  1.8696
16940TIP3    H272312   0.981   3.307  15.195  0.9655 -3.1578  2.6726
16941TIP3   OH272313   2.512   1.499  14.553  0.0139  0.0513  0.2676
16941TIP3    H172314   2.497   1.510  14.647  1.0933 -2.2027  0.7777
16941TIP3    H272315   2.494   1.406  14.537 -1.2401  0.6147 -2.0130
16942TIP3   OH272316   4.347   6.584   3.201  0.3101  0.3646 -0.1673
16942TIP3    H172317   4.275   6.647   3.198 -0.4460 -0.4513  0.4823
16942TIP3    H272318   4.426   6.638   3.199 -0.2078  1.2180 -3.6254
16943TIP3   OH272319   0.573   0.696   0.632 -0.3284  0.4818 -0.0015
16943TIP3    H172320   0.505   0.670   0.694 -1.8795  1.2066 -1.3173
16943TIP3    H272321   0.619   0.614   0.611 -1.2981 -0.1665  0.3267
16944TIP3   OH272322   6.680   1.268   0.783 -0.2199  0.0514  0.2075
16944TIP3    H172323   6.693   1.334   0.716  0.0480 -0.7904 -0.5966
16944TIP3    H272324   6.763   1.220   0.786 -0.6229 -0.6695  0.2947
16945TIP3   OH272325   0.441   3.517  12.764 -0.4981  0.0660  0.4399
16945TIP3    H172326   0.362   3.551  12.722  0.3273  0.6255 -0.6848
16945TIP3    H272327   0.474   3.591  12.815 -0.0347  0.1962 -0.0549
16946TIP3   OH272328   5.138   2.599  13.203 -0.3326 -0.4443 -0.0965
16946TIP3    H172329   5.089   2.663  13.254 -1.8099 -0.9579 -0.8291
16946TIP3    H272330   5.223   2.640  13.188 -0.8010  0.7943  0.5482
16947TIP3   OH272331   6.485   2.537  16.725 -0.0756 -0.1834 -0.5012
16947TIP3    H172332   6.462   2.516  16.815 -1.0157 -1.0982 -0.9362
16947TIP3    H272333   6.412   2.589  16.692  1.9429  3.5243  0.3643
16948TIP3   OH272334   5.766   5.294   5.741  0.1807  0.0407 -0.6558
16948TIP3    H172335   5.839   5.280   5.681  0.5838  1.8042 -0.6434
16948TIP3    H272336   5.806   5.332   5.820 -0.5387 -0.6945  0.0933
16949TIP3   OH272337   5.913   2.667  13.387  0.4549 -0.2547  0.5800
16949TIP3    H172338   5.820   2.646  13.380  0.1472  0.5883  1.7534
16949TIP3    H272339   5.951   2.641  13.303 -1.3715  2.0687 -1.0897
16950TIP3   OH272340   3.653   4.063  10.592  0.1554  0.4406 -0.0264
16950TIP3    H172341   3.742   4.096  10.577  0.0926  1.2036  1.1328
16950TIP3    H272342   3.599   4.142  10.594 -0.3850  0.0645  0.3131
16951TIP3   OH272343   4.421   5.706   5.521 -0.1042  0.5474 -0.0493
16951TIP3    H172344   4.368   5.739   5.593  0.7347 -0.4377  1.0637
16951TIP3    H272345   4.511   5.716   5.551  0.2259 -0.8367 -0.4985
16952TIP3   OH272346   0.557   1.973  15.818  0.5778  0.2172  0.1219
16952TIP3    H172347   0.625   2.031  15.783  0.1856  0.5809 -0.0484
16952TIP3    H272348   0.532   1.918  15.745  1.4711 -0.6824  0.4757
16953TIP3   OH272349   5.240   6.021  13.100  0.0311 -0.6069  0.0294
16953TIP3    H172350   5.181   5.952  13.074 -0.0256 -0.7818  0.6152
16953TIP3    H272351   5.195   6.067  13.171 -0.5138  0.8621 -1.1892
16954TIP3   OH272352   0.807   0.816   0.753 -0.4548 -0.2564  0.6050
16954TIP3    H172353   0.853   0.732   0.744 -1.1834 -0.7540  1.3648
16954TIP3    H272354   0.731   0.808   0.695  0.3053  0.5176 -0.5540
16955TIP3   OH272355   4.866   5.069   2.968  0.0345  0.1297 -0.2010
16955TIP3    H172356   4.949   5.117   2.971  0.3983 -0.5398  1.0270
16955TIP3    H272357   4.854   5.048   2.875 -0.0390  2.3894 -0.7464
16956TIP3   OH272358   0.298   6.377  11.647 -0.4762  0.1276  0.3701
16956TIP3    H172359   0.225   6.339  11.598  0.1676  0.8214 -1.1687
16956TIP3    H272360   0.288   6.342  11.736 -1.1864 -1.8312 -0.4418
16957TIP3   OH272361   4.046   1.589   2.590 -0.7271 -0.4248  0.0719
16957TIP3    H172362   4.101   1.667   2.592  0.4657 -1.2505  1.4503
16957TIP3    H272363   4.107   1.516   2.599 -1.8221 -1.5343 -1.0795
16958TIP3   OH272364   2.209   0.459  12.740  0.0157  0.4218  0.0942
16958TIP3    H172365   2.246   0.538  12.700 -1.8477 -0.0285 -2.8576
16958TIP3    H272366   2.117   0.481  12.757 -0.6456 -1.1364 -1.1365
16959TIP3   OH272367   6.076   5.952   3.988  0.2741 -0.2845  0.0937
16959TIP3    H172368   6.149   5.897   3.959 -1.2028 -2.2886 -0.0986
16959TIP3    H272369   6.084   5.954   4.083 -0.2295 -1.7937  0.1991
16960TIP3   OH272370   1.107   0.842  11.316 -0.5351  0.0647  0.2395
16960TIP3    H172371   1.040   0.910  11.311 -0.7413 -0.0496  1.2257
16960TIP3    H272372   1.129   0.838  11.409 -0.3984 -1.0893  0.1637
16961TIP3   OH272373   2.772   0.143   1.532  0.2401  0.8989  0.6300
16961TIP3    H172374   2.798   0.152   1.624  1.4144  1.2226  0.2894
16961TIP3    H272375   2.855   0.138   1.484 -0.3559  0.2930 -0.3762
16962TIP3   OH272376   4.068   0.092   0.937  0.1315 -0.6755  0.5085
16962TIP3    H172377   4.120   0.161   0.895  1.2163 -2.1579 -0.6489
16962TIP3    H272378   3.980   0.130   0.944  0.8559  1.0983  0.6132
16963TIP3   OH272379   5.419   6.266   0.455 -0.0305  0.1305  0.0631
16963TIP3    H172380   5.414   6.272   0.360 -0.1328 -0.3787  0.0348
16963TIP3    H272381   5.329   6.272   0.485  0.1568  3.5662  0.3597
16964TIP3   OH272382   5.242   2.641  16.386 -0.4664 -0.3120  0.4192
16964TIP3    H172383   5.327   2.684  16.392 -0.5567 -0.0432 -0.2142
16964TIP3    H272384   5.263   2.547  16.394 -0.2011 -0.2038  1.0857
16965TIP3   OH272385   3.768   5.188   4.852 -0.0560 -1.1012 -0.2133
16965TIP3    H172386   3.676   5.162   4.852 -0.1754 -0.7810  1.2259
16965TIP3    H272387   3.769   5.272   4.898  0.8487 -0.6324 -1.0515
16966TIP3   OH272388   3.944   1.698  10.560 -0.4174 -0.0897  0.1399
16966TIP3    H172389   3.906   1.740  10.636 -1.8260  0.3872 -0.7813
16966TIP3    H272390   3.873   1.645  10.524  1.2015 -3.2692  1.1645
16967TIP3   OH272391   3.885   2.645   5.373  0.2243 -0.0815  0.0790
16967TIP3    H172392   3.921   2.607   5.454  0.0808 -0.4991 -0.0491
16967TIP3    H272393   3.792   2.622   5.376 -0.1218  1.3083  0.5895
16968TIP3   OH272394   1.825   3.597  14.180 -0.0037  0.5708 -0.7523
16968TIP3    H172395   1.810   3.596  14.275 -0.5520  0.1472 -0.8352
16968TIP3    H272396   1.793   3.683  14.152 -1.0642  0.2060 -0.7254
16969TIP3   OH272397   3.990   1.462   0.566  0.0932 -0.5020 -0.2057
16969TIP3    H172398   4.013   1.548   0.601  0.6467 -0.6132 -0.2866
16969TIP3    H272399   3.980   1.476   0.472  1.4207 -0.7643 -0.4045
16970TIP3   OH272400   2.339   5.812  15.206  0.2270  0.3656 -0.4116
16970TIP3    H172401   2.320   5.723  15.237  0.3398  0.1188 -1.0538
16970TIP3    H272402   2.381   5.800  15.121  0.3664  1.0304 -0.4401
16971TIP3   OH272403   3.938   1.355  10.358 -0.3329 -0.0104 -1.0573
16971TIP3    H172404   3.857   1.403  10.372  0.4143  0.9476  0.1927
16971TIP3    H272405   3.919   1.266  10.388 -0.6912  0.4229  0.0407
16972TIP3   OH272406   1.357   5.403   1.559  0.0187 -0.0027  0.0554
16972TIP3    H172407   1.338   5.425   1.651 -1.1158  0.5466 -0.2835
16972TIP3    H272408   1.311   5.470   1.509 -0.3610 -0.9811 -0.9460
16973TIP3   OH272409   6.615   3.093  16.586  0.0333 -0.2244 -0.2705
16973TIP3    H172410   6.696   3.043  16.594 -0.5929 -1.0452  1.4403
16973TIP3    H272411   6.545   3.029  16.599 -0.8143  0.9113  1.0588
16974TIP3   OH272412   5.380   6.523  16.373 -0.3715 -0.3920 -0.5677
16974TIP3    H172413   5.380   6.493  16.282  1.8802 -0.7523 -0.4936
16974TIP3    H272414   5.312   6.471  16.415 -1.3414 -0.3339 -1.9907
16975TIP3   OH272415   2.861   4.485  14.346  0.2199  0.1615 -0.3991
16975TIP3    H172416   2.851   4.528  14.431  0.5305  1.7822 -1.1464
16975TIP3    H272417   2.956   4.472  14.337  0.4913  2.5852 -1.6739
16976TIP3   OH272418   3.034   4.738  11.915  0.2862 -0.0447 -0.0929
16976TIP3    H172419   2.956   4.786  11.887  1.2008  0.2005 -2.5026
16976TIP3    H272420   3.032   4.657  11.866  2.0934  0.4712 -1.1442
16977TIP3   OH272421   4.810   4.894  16.353  0.0208  0.3956  0.3460
16977TIP3    H172422   4.892   4.893  16.402  0.5473  1.3855 -0.4815
16977TIP3    H272423   4.795   4.987  16.333 -1.6749  0.3176  1.0884
16978TIP3   OH272424   5.805   5.423   5.110  0.8699  0.4650 -0.5376
16978TIP3    H172425   5.770   5.338   5.136  1.7950 -0.5650 -2.4277
16978TIP3    H272426   5.900   5.411   5.112  0.9982  0.8557 -2.5181
16979TIP3   OH272427   1.394   3.393   3.000 -0.0911 -0.4328  0.3787
16979TIP3    H172428   1.390   3.354   2.913  1.1525 -0.7890  0.4710
16979TIP3    H272429   1.431   3.480   2.986 -1.3038  0.1194  0.3882
16980TIP3   OH272430   4.365   4.199   1.922 -0.4477 -0.0761  0.4549
16980TIP3    H172431   4.417   4.280   1.927  0.3775 -0.6381  1.2773
16980TIP3    H272432   4.406   4.149   1.851 -1.3200  0.4561 -0.4476
16981TIP3   OH272433   5.897   6.266   0.553  0.4001  1.0246  0.2442
16981TIP3    H172434   5.814   6.310   0.572 -0.2053 -0.9980  2.8478
16981TIP3    H272435   5.958   6.303   0.618  1.3589  1.8674 -1.0862
16982TIP3   OH272436   0.974   0.676   5.179  0.6585  0.2970 -0.5901
16982TIP3    H172437   0.931   0.761   5.195  1.2607  0.6408 -0.7997
16982TIP3    H272438   0.949   0.653   5.090  1.7718  1.0125 -1.0994
16983TIP3   OH272439   4.731   5.729   2.441 -0.0617 -0.3827 -0.1661
16983TIP3    H172440   4.789   5.792   2.399  2.5279 -2.3133  0.2822
16983TIP3    H272441   4.723   5.658   2.378 -1.9324 -0.2185 -0.1695
16984TIP3   OH272442   6.634   1.982   0.799 -0.2159  0.0376  1.0660
16984TIP3    H172443   6.707   2.044   0.790  1.5139 -2.0292 -0.0987
16984TIP3    H272444   6.575   2.005   0.728  1.0202 -0.3468 -0.1406
16985TIP3   OH272445   6.796   0.959  11.503 -0.5374  0.3460  0.0662
16985TIP3    H172446   6.722   0.944  11.445 -1.0963  1.5949  0.4331
16985TIP3    H272447   6.846   1.029  11.460 -0.8187  1.1039  0.9612
16986TIP3   OH272448   5.464   5.873  14.380  0.7065 -0.6483  0.2674
16986TIP3    H172449   5.411   5.899  14.304  0.3670 -1.5766  0.1796
16986TIP3    H272450   5.552   5.861  14.344  0.0133 -4.0099 -0.6757
16987TIP3   OH272451   6.090   6.207  14.437  0.1576 -0.0863  0.5186
16987TIP3    H172452   6.003   6.206  14.475  0.3262 -0.5877  0.9078
16987TIP3    H272453   6.147   6.235  14.509  0.1419  1.7653 -0.1487
16988TIP3   OH272454   4.307   6.091   2.664  0.1289 -0.4307  0.4035
16988TIP3    H172455   4.324   6.111   2.757 -0.5651  0.5990  0.3235
16988TIP3    H272456   4.386   6.045   2.635 -0.2187 -2.0569  1.8527
16989TIP3   OH272457   2.004   6.071  12.913 -0.6208 -0.0763 -0.0584
16989TIP3    H172458   1.994   6.119  12.830  0.7872  3.9230  1.8378
16989TIP3    H272459   2.044   6.134  12.972 -0.9259 -2.9653  3.5555
16990TIP3   OH272460   6.524   3.185  14.656 -0.2167 -0.2075 -0.1857
16990TIP3    H172461   6.546   3.173  14.748 -0.9263  2.4734  0.4100
16990TIP3    H272462   6.441   3.233  14.657  1.1065  2.3350 -2.1208
16991TIP3   OH272463   5.740   5.426  12.121 -0.2082 -0.3064 -0.0663
16991TIP3    H172464   5.659   5.476  12.109 -0.8636 -1.4161 -0.4122
16991TIP3    H272465   5.751   5.377  12.040  1.2064  0.3602 -0.3002
16992TIP3   OH272466   1.807   6.615   4.096  0.1585  0.2161 -0.1582
16992TIP3    H172467   1.891   6.593   4.055  0.8459  0.4886  1.0354
16992TIP3    H272468   1.813   6.708   4.115 -0.8133  0.4454 -0.9018
16993TIP3   OH272469   2.650   4.194  15.004 -0.2275  0.6246  0.1095
16993TIP3    H172470   2.568   4.173  14.960  0.0575  0.4398 -0.3367
16993TIP3    H272471   2.702   4.240  14.939  0.2795  0.1666  0.1805
16994TIP3   OH272472   0.452   6.680   1.548  0.2783 -0.1928  0.6041
16994TIP3    H172473   0.388   6.613   1.571  0.2282 -0.6689 -0.8184
16994TIP3    H272474   0.511   6.638   1.486  0.5842  0.9125  0.1101
16995TIP3   OH272475   2.999   4.934   5.445 -0.2247 -0.1262  0.0865
16995TIP3    H172476   2.979   4.961   5.535  0.9992  0.2490  0.2662
16995TIP3    H272477   3.095   4.932   5.441 -0.2662 -0.7873 -1.0237
16996TIP3   OH272478   5.256   1.118   2.422  0.2518  0.2322 -0.2506
16996TIP3    H172479   5.189   1.114   2.490 -0.0468  1.5177 -0.4405
16996TIP3    H272480   5.286   1.027   2.412  0.1013 -0.0256  1.3734
16997TIP3   OH272481   2.128   1.983   5.811  0.0647 -0.1627  0.1007
16997TIP3    H172482   2.115   1.912   5.748 -1.7123 -0.3091  0.5819
16997TIP3    H272483   2.218   2.011   5.797  0.4333 -1.7197 -0.9163
16998TIP3   OH272484   1.294   1.945  15.741  0.5989 -0.5589  0.0721
16998TIP3    H172485   1.326   1.936  15.652  0.5673  0.0791 -0.0085
16998TIP3    H272486   1.366   1.912  15.796  1.7129  1.4661 -0.0743
16999TIP3   OH272487   3.700   1.367  12.927 -0.5280  0.0813 -0.0781
16999TIP3    H172488   3.787   1.365  12.885  0.5129  1.9456  1.8075
16999TIP3    H272489   3.694   1.283  12.973 -1.3149 -1.6170 -3.0335
17000TIP3   OH272490   1.059   5.824  11.655 -0.2736  0.0211 -0.2595
17000TIP3    H172491   1.046   5.827  11.560 -1.5314 -0.1426 -0.1064
17000TIP3    H272492   1.011   5.900  11.688  0.8093  0.5338  0.1902
17001TIP3   OH272493   2.999   3.042  14.115  0.4833  0.2396 -0.1431
17001TIP3    H172494   3.084   3.087  14.110  0.8595 -0.2602  1.2108
17001TIP3    H272495   2.962   3.051  14.027  0.9687  2.3249 -0.2048
17002TIP3   OH272496   2.823   5.323  12.645  0.0542  0.0637 -0.2764
17002TIP3    H172497   2.729   5.309  12.658  0.5988 -1.5867  2.8026
17002TIP3    H272498   2.843   5.401  12.697  0.3805  0.5911 -1.1703
17003TIP3   OH272499   2.900   5.398  15.770  0.0694 -0.3169  0.1065
17003TIP3    H172500   2.845   5.374  15.844 -2.0445  2.4094 -0.4305
17003TIP3    H272501   2.845   5.385  15.693 -0.0211  2.6284 -0.4426
17004TIP3   OH272502   1.608   6.122   5.002 -0.2378 -0.4008 -0.3264
17004TIP3    H172503   1.582   6.211   5.023  0.9933 -0.0256 -0.2981
17004TIP3    H272504   1.697   6.131   4.967 -0.1995 -1.5860 -0.5736
17005TIP3   OH272505   1.098   2.121  10.717 -0.4220 -0.0071 -0.0101
17005TIP3    H172506   1.032   2.110  10.649 -0.6441  0.6204  0.0957
17005TIP3    H272507   1.066   2.194  10.770  0.2960  0.2175  0.1232
17006TIP3   OH272508   1.997   6.121  12.583 -0.5032 -1.0201  0.0181
17006TIP3    H172509   2.077   6.173  12.578 -1.2507  0.1830  0.1234
17006TIP3    H272510   1.931   6.174  12.537 -1.4907 -1.4741  0.8782
17007TIP3   OH272511   1.622   4.551   1.652  0.5292 -0.3258  0.0316
17007TIP3    H172512   1.667   4.631   1.679 -0.5432  0.3897 -0.2204
17007TIP3    H272513   1.629   4.552   1.556  1.0590 -0.8761  0.0598
17008TIP3   OH272514   0.043   0.934   2.530  0.0775  0.1818  0.0738
17008TIP3    H172515   0.125   0.972   2.562  1.3138 -0.2266 -2.3570
17008TIP3    H272516  -0.018   1.008   2.529  0.0052  0.2603  2.9405
17009TIP3   OH272517   6.025   1.677   6.015  0.7407  0.4471  0.3593
17009TIP3    H172518   6.051   1.629   6.094  0.7052  0.6073  0.4689
17009TIP3    H272519   5.930   1.682   6.021  0.5594 -1.1070 -0.5980
17010TIP3   OH272520   5.808   3.343  16.967 -0.5997 -0.2246  0.6901
17010TIP3    H172521   5.747   3.406  16.927  0.0509  0.2063  0.3658
17010TIP3    H272522   5.871   3.397  17.013  1.5616 -0.4403 -1.7901
17011TIP3   OH272523   1.970   0.223  14.598  0.4669  0.0094 -0.1857
17011TIP3    H172524   1.909   0.155  14.628  1.6408 -0.8745  0.2968
17011TIP3    H272525   1.923   0.305  14.610 -0.4254 -0.6068  0.6883
17012TIP3   OH272526   2.932   1.027   0.951  0.8044 -1.2219  0.2575
17012TIP3    H172527   2.955   1.106   0.999 -2.9256  0.0846  0.2350
17012TIP3    H272528   2.911   0.962   1.018 -1.4450 -0.3498  0.4913
17013TIP3   OH272529   1.388   1.595   1.753 -0.0373 -0.0695  0.7179
17013TIP3    H172530   1.470   1.597   1.704  1.2787  0.3420  2.8074
17013TIP3    H272531   1.325   1.637   1.695  1.0425 -0.9515 -1.2119
17014TIP3   OH272532   3.608   4.803   6.017 -0.8429  0.0934 -0.3058
17014TIP3    H172533   3.618   4.745   5.942 -0.3110  1.8956 -1.6969
17014TIP3    H272534   3.654   4.759   6.088 -0.9733 -1.4444 -1.1408
17015TIP3   OH272535   4.470   1.089   6.250  0.9940 -0.0398  0.1023
17015TIP3    H172536   4.535   1.158   6.242  0.8861  0.1439  0.6941
17015TIP3    H272537   4.389   1.135   6.274  0.8644 -0.3434  0.2643
17016TIP3   OH272538   4.750   1.083   6.838  0.0452  0.2213  0.0593
17016TIP3    H172539   4.798   1.165   6.844  0.6758 -0.0028 -1.4941
17016TIP3    H272540   4.814   1.020   6.805 -1.1644 -0.1597 -1.7386
17017TIP3   OH272541   5.186   1.129   3.121  0.1490  0.3398  0.8793
17017TIP3    H172542   5.281   1.141   3.131 -0.0292  1.2614  1.6408
17017TIP3    H272543   5.163   1.185   3.047  0.4991 -1.5631 -0.7519
17018TIP3   OH272544   4.148   4.123   2.351 -0.7442 -0.3857  0.2748
17018TIP3    H172545   4.170   4.211   2.324  1.1397 -1.2777 -1.2985
17018TIP3    H272546   4.144   4.127   2.447  2.0452  0.8370  0.4110
17019TIP3   OH272547   1.647   5.364   1.592  0.0350  0.4525  0.1496
17019TIP3    H172548   1.650   5.451   1.550 -1.1710  0.4311 -0.0348
17019TIP3    H272549   1.560   5.330   1.569  0.6611 -1.0050 -0.1604
17020TIP3   OH272550   0.212   1.001  13.905  0.3140 -0.2944 -0.1701
17020TIP3    H172551   0.141   0.965  13.958  0.4597  0.0179  0.2455
17020TIP3    H272552   0.196   0.968  13.817  0.1839 -0.9952  0.1066
17021TIP3   OH272553   3.965   4.405   1.226  0.0990  0.6082 -0.2721
17021TIP3    H172554   3.911   4.415   1.304 -0.3688 -0.2471 -0.4684
17021TIP3    H272555   3.990   4.313   1.226  2.5087  1.2021  0.4083
17022TIP3   OH272556   0.413   4.438  11.445 -0.1173  0.3266  0.0191
17022TIP3    H172557   0.459   4.469  11.367  0.1587 -1.0752 -0.4038
17022TIP3    H272558   0.414   4.343  11.437  0.0545  0.1518  1.8208
17023TIP3   OH272559   4.916   1.926  16.402 -0.1280  0.0239 -0.7773
17023TIP3    H172560   4.863   1.855  16.367  0.9275 -0.6390 -1.0880
17023TIP3    H272561   4.856   1.978  16.454 -1.3693  0.0400 -2.1663
17024TIP3   OH272562   0.429   4.243   1.969  0.6429  0.6434  0.3251
17024TIP3    H172563   0.366   4.310   1.995 -0.7385 -0.9974  1.3851
17024TIP3    H272564   0.475   4.221   2.050  0.2127 -0.5286  0.2763
17025TIP3   OH272565   4.642   2.552  15.789 -0.2395  0.1936 -0.3293
17025TIP3    H172566   4.636   2.646  15.772 -0.3331  0.4455  0.9459
17025TIP3    H272567   4.728   2.527  15.755  1.2373  1.4612  2.1697
17026TIP3   OH272568   2.628   0.752  14.094 -0.4189  0.3472 -0.2877
17026TIP3    H172569   2.535   0.742  14.075  0.0796 -1.2543 -2.2500
17026TIP3    H272570   2.671   0.750  14.008  1.6928 -2.5695  0.6633
17027TIP3   OH272571   1.301   1.725   5.430  0.1876  0.7459 -0.1825
17027TIP3    H172572   1.261   1.640   5.415  0.7045  0.6508 -1.1131
17027TIP3    H272573   1.367   1.710   5.498  1.9769 -0.1552 -2.0136
17028TIP3   OH272574   2.113   3.305   3.403  0.0852 -0.0543  0.0502
17028TIP3    H172575   2.054   3.233   3.381  0.1072 -0.0558 -0.0042
17028TIP3    H272576   2.063   3.384   3.382 -0.6772  0.0107  1.9031
17029TIP3   OH272577   6.599   2.739  11.979  0.7144  0.1555  0.1892
17029TIP3    H172578   6.548   2.696  11.910 -0.7229  2.0029  0.0319
17029TIP3    H272579   6.535   2.758  12.047  1.8392 -0.2814  1.4010
17030TIP3   OH272580   6.463   2.616   3.156 -0.2615 -0.2074 -0.0233
17030TIP3    H172581   6.537   2.675   3.171 -0.6118 -0.2323  2.0027
17030TIP3    H272582   6.391   2.653   3.206 -0.9254 -1.5010  0.0328
17031TIP3   OH272583   1.039   6.686  10.866 -0.5968  0.0961 -0.0478
17031TIP3    H172584   1.030   6.690  10.961 -0.1337  0.2227 -0.0057
17031TIP3    H272585   1.019   6.775  10.837 -0.4155  0.1400 -0.0388
17032TIP3   OH272586   5.067   1.664   5.052  0.6308  0.1498  0.0251
17032TIP3    H172587   5.062   1.647   4.958 -0.9327 -0.1589  0.1382
17032TIP3    H272588   4.981   1.701   5.074  1.2054  0.8053  1.2193
17033TIP3   OH272589   1.072   5.523   2.898  0.5150  0.4210 -0.2290
17033TIP3    H172590   1.164   5.519   2.873  0.7177  1.1156  0.3616
17033TIP3    H272591   1.071   5.492   2.989 -0.0051 -0.6868 -0.5948
17034TIP3   OH272592   1.721   2.579  13.412  0.3768 -0.3987  0.1593
17034TIP3    H172593   1.687   2.608  13.327 -0.0664 -0.9806  0.1303
17034TIP3    H272594   1.664   2.622  13.476  0.9275  0.3195  0.1851
17035TIP3   OH272595   1.747   5.304  16.890  0.5323  0.3254  0.0919
17035TIP3    H172596   1.703   5.227  16.924  0.5056  0.2714 -0.0644
17035TIP3    H272597   1.727   5.374  16.952  0.0067  0.3643 -0.1221
17036TIP3   OH272598   1.276   5.046   5.450  0.3073 -0.6154 -0.5135
17036TIP3    H172599   1.290   5.097   5.530 -0.6629  1.3293 -1.5267
17036TIP3    H272600   1.326   4.966   5.464  1.0824  0.1662  1.5657
17037TIP3   OH272601   4.859   4.771   1.908 -0.1336  0.0111 -0.6188
17037TIP3    H172602   4.876   4.682   1.939 -3.5106 -0.8924 -0.9862
17037TIP3    H272603   4.843   4.822   1.987 -0.4878 -0.2919 -0.4923
17038TIP3   OH272604   0.307   4.828  13.331 -0.1210  0.2907 -0.1880
17038TIP3    H172605   0.216   4.805  13.313 -0.9251  1.4261  2.0077
17038TIP3    H272606   0.301   4.894  13.400  2.3095  1.7721 -1.2634
17039TIP3   OH272607   0.105   4.263   3.294 -0.0369 -0.5959 -0.3500
17039TIP3    H172608   0.078   4.196   3.232  2.1667 -2.2129  0.3277
17039TIP3    H272609   0.039   4.260   3.363  1.2198 -3.9225  0.9223
17040TIP3   OH272610   2.429   1.798   0.255 -0.2216 -0.6526  0.4833
17040TIP3    H172611   2.489   1.724   0.243 -1.0478 -1.0075 -2.1135
17040TIP3    H272612   2.484   1.875   0.243  0.5449 -0.7732  2.7159
17041TIP3   OH272613   6.236   1.101   1.594 -0.4166 -0.0868 -0.3524
17041TIP3    H172614   6.242   1.096   1.498 -2.3193  0.3295 -0.5542
17041TIP3    H272615   6.171   1.170   1.609  0.3419  0.3042  1.2729
17042TIP3   OH272616   5.076   3.011  14.349  0.1097  0.1902  0.2106
17042TIP3    H172617   4.987   3.033  14.321  0.5332  1.8668  0.0619
17042TIP3    H272618   5.091   2.922  14.316 -1.4201 -0.0293  0.0576
17043TIP3   OH272619   1.714   2.444   5.650  0.0384  0.0910  0.1148
17043TIP3    H172620   1.687   2.458   5.741 -0.5450 -0.8214  0.0939
17043TIP3    H272621   1.639   2.473   5.598 -0.8508 -2.1168  0.0427
17044TIP3   OH272622   5.977   0.143   6.271  0.2630 -0.2341 -0.0772
17044TIP3    H172623   5.972   0.239   6.274  0.1643 -0.2210 -0.6204
17044TIP3    H272624   5.927   0.119   6.194  1.1346 -0.6660 -0.5166
17045TIP3   OH272625   2.257   1.757  11.705 -0.0268  0.6253 -0.4643
17045TIP3    H172626   2.214   1.781  11.787  1.1049  2.3207 -0.3095
17045TIP3    H272627   2.190   1.711  11.655 -1.9902  3.0130 -0.1911
17046TIP3   OH272628   2.985   3.249   6.455 -0.2924  0.3539  0.9206
17046TIP3    H172629   2.891   3.233   6.455 -0.2257 -0.1309  1.9872
17046TIP3    H272630   2.997   3.327   6.509 -0.1292  0.8709  0.1691
17047TIP3   OH272631   4.094   0.651  16.717 -0.6676 -0.0306 -0.1697
17047TIP3    H172632   4.134   0.638  16.631 -2.0162 -0.0077 -0.8299
17047TIP3    H272633   4.042   0.572  16.731 -1.7174  0.6552 -0.1159
17048TIP3   OH272634   1.163   5.860  15.680  0.2688 -0.4197  0.3667
17048TIP3    H172635   1.109   5.933  15.650 -2.0503 -1.5534  1.5718
17048TIP3    H272636   1.194   5.887  15.766 -1.0368 -1.0471  1.0467
17049TIP3   OH272637   1.096   5.596  15.049  0.0379  0.3065 -0.3902
17049TIP3    H172638   1.103   5.641  14.965 -1.5755  2.2774  0.4478
17049TIP3    H272639   1.063   5.509  15.027  0.0246  0.6458 -1.8146
17050TIP3   OH272640   0.026   5.126  10.407  0.7166  0.6534 -0.9276
17050TIP3    H172641   0.000   5.157  10.320  0.1723  1.8120 -0.3723
17050TIP3    H272642   0.002   5.197  10.466 -1.6933 -1.2465  0.5797
17051TIP3   OH272643   0.112   3.936   2.334 -0.4909 -0.6089  0.0275
17051TIP3    H172644   0.143   3.860   2.383  1.2355  0.2585  0.3532
17051TIP3    H272645   0.142   3.920   2.244 -2.4679 -1.5440 -0.5306
17052TIP3   OH272646   5.738   3.747  15.273  0.3785 -0.7937 -0.2199
17052TIP3    H172647   5.776   3.823  15.316 -0.7613  0.5482 -1.4464
17052TIP3    H272648   5.679   3.709  15.338 -1.3877  1.2453 -0.5067
17053TIP3   OH272649   6.489   6.189  13.278  0.1407  0.2186 -0.3914
17053TIP3    H172650   6.548   6.134  13.226  2.1319  2.4847 -0.6719
17053TIP3    H272651   6.413   6.202  13.222  0.1666 -1.2087 -0.8055
17054TIP3   OH272652   1.057   6.295  16.774  0.2074 -0.1721 -0.4653
17054TIP3    H172653   0.978   6.261  16.731 -0.2434 -0.8130  0.8274
17054TIP3    H272654   1.086   6.223  16.830  1.5263  0.1849 -0.6683
17055TIP3   OH272655   5.436   5.801   5.274 -0.0159  0.3544 -0.2370
17055TIP3    H172656   5.429   5.856   5.196 -0.1521 -0.7851 -1.0437
17055TIP3    H272657   5.525   5.767   5.272  0.2752  1.0230  0.6081
17056TIP3   OH272658   3.179   5.460   5.395  0.0057  0.0074 -0.1205
17056TIP3    H172659   3.185   5.368   5.424 -1.4519  0.2285  1.0217
17056TIP3    H272660   3.141   5.455   5.308 -2.3749 -0.4450  0.8568
17057TIP3   OH272661   6.541   4.234   2.748 -0.3924 -0.5467 -0.2663
17057TIP3    H172662   6.577   4.250   2.661  0.0186 -0.6011 -0.1091
17057TIP3    H272663   6.519   4.322   2.780 -4.3895 -0.7110 -1.9945
17058TIP3   OH272664   6.582   6.297  15.001  0.5183 -0.2302  0.3032
17058TIP3    H172665   6.575   6.209  14.965  0.8616  0.3765 -1.3413
17058TIP3    H272666   6.588   6.284  15.096 -0.4150 -1.9070  0.1699
17059TIP3   OH272667   2.189   3.395   0.290 -0.1286  0.1680  0.2123
17059TIP3    H172668   2.183   3.363   0.381 -1.4874 -0.0751  0.0624
17059TIP3    H272669   2.244   3.330   0.246 -1.5118 -1.1334  0.3017
17060TIP3   OH272670   2.345   6.483  13.539  0.0373  0.7909 -0.0987
17060TIP3    H172671   2.431   6.446  13.555  0.2161  0.9848 -0.5952
17060TIP3    H272672   2.287   6.406  13.534 -0.1161  0.7348  1.8678
17061TIP3   OH272673   5.705   1.575  14.553 -0.5251 -0.5241 -0.5771
17061TIP3    H172674   5.719   1.646  14.615  1.1706 -0.9708 -0.4018
17061TIP3    H272675   5.768   1.591  14.482 -2.9268  0.4152 -2.6715
17062TIP3   OH272676   1.115   3.601  13.232 -0.1886  0.1201  0.6563
17062TIP3    H172677   1.158   3.529  13.187 -1.4956  1.0752 -2.3672
17062TIP3    H272678   1.171   3.677  13.214  0.0457  0.2787  1.9731
17063TIP3   OH272679   2.787   1.435  11.974 -0.4036  0.0160 -0.6219
17063TIP3    H172680   2.759   1.385  12.050  1.0718  0.5124  0.3049
17063TIP3    H272681   2.821   1.370  11.912  1.7531 -0.1859  0.6788
17064TIP3   OH272682   3.187   1.148   6.152 -0.1061 -0.2261 -0.2420
17064TIP3    H172683   3.153   1.086   6.217  0.0247  0.1243  0.1664
17064TIP3    H272684   3.281   1.133   6.151  0.4039  2.0573  2.1662
17065TIP3   OH272685   2.260   0.755   3.576  0.0385  0.3614 -0.4407
17065TIP3    H172686   2.241   0.662   3.578 -0.1744  0.4098 -0.0437
17065TIP3    H272687   2.290   0.772   3.487  2.7667 -0.6113  0.2115
17066TIP3   OH272688   3.480   3.304   4.992  0.1685  0.5984 -0.6005
17066TIP3    H172689   3.554   3.357   5.018  0.2901  0.2068 -0.1368
17066TIP3    H272690   3.468   3.241   5.064 -1.5788  1.6389  0.0842
17067TIP3   OH272691   1.742   3.672  15.175  0.9419 -0.2951 -0.5670
17067TIP3    H172692   1.705   3.664  15.263  0.1050  1.3151 -0.7288
17067TIP3    H272693   1.737   3.584  15.139  1.2660 -0.9839  0.9729
17068TIP3   OH272694   2.681   1.261  16.672 -0.3473 -0.3552 -0.0584
17068TIP3    H172695   2.685   1.171  16.706 -0.7865 -0.2723  0.2112
17068TIP3    H272696   2.733   1.258  16.592 -1.3929 -1.1563 -0.7330
17069TIP3   OH272697   2.587   2.493   1.969 -0.2786 -1.0929 -0.1701
17069TIP3    H172698   2.511   2.542   1.999 -0.0456 -1.3539  0.8847
17069TIP3    H272699   2.654   2.508   2.036  1.2000  0.5068 -1.9155
17070TIP3   OH272700   4.843   5.705  13.282  0.2601  0.3527 -0.3243
17070TIP3    H172701   4.879   5.721  13.369  0.5854 -0.4725 -0.3020
17070TIP3    H272702   4.882   5.622  13.254 -1.0486 -0.2047 -0.5982
17071TIP3   OH272703   1.872   1.688  11.242  0.2102  0.2765 -0.1152
17071TIP3    H172704   1.897   1.598  11.220  1.3890  0.2932  1.0566
17071TIP3    H272705   1.780   1.694  11.215 -0.1215 -1.5229  0.4647
17072TIP3   OH272706   0.014   6.334   2.617  0.4361  0.2523 -0.5975
17072TIP3    H172707  -0.041   6.300   2.688  1.0843  0.6978  0.1390
17072TIP3    H272708   0.010   6.266   2.549  2.1546 -1.6504  1.0464
17073TIP3   OH272709   1.837   4.461   6.253 -0.1056 -0.6677  0.5688
17073TIP3    H172710   1.779   4.499   6.187 -0.6135 -1.5554  0.4960
17073TIP3    H272711   1.803   4.494   6.336  1.3150  1.5078  0.3550
17074TIP3   OH272712   5.877   3.271   6.077  0.3799 -0.4701 -0.2858
17074TIP3    H172713   5.877   3.185   6.034  2.4066 -0.5772 -0.1383
17074TIP3    H272714   5.967   3.283   6.107  0.1511  1.7499 -0.3486
17075TIP3   OH272715   2.701   1.308   0.343 -0.0078  0.3298  0.6815
17075TIP3    H172716   2.746   1.393   0.337  0.0425  0.2064 -0.9610
17075TIP3    H272717   2.616   1.323   0.301 -0.0032 -0.4308  0.3892
17076TIP3   OH272718   4.067   1.457  13.696 -0.0468 -0.0877 -0.4078
17076TIP3    H172719   4.152   1.415  13.682  1.3410  1.5132  2.3423
17076TIP3    H272720   4.064   1.527  13.631  1.0897  0.2909 -0.0733
17077TIP3   OH272721   4.520   1.438  11.291  0.1153  0.2542 -0.2072
17077TIP3    H172722   4.486   1.398  11.371  0.3139 -0.6149 -0.5483
17077TIP3    H272723   4.495   1.530  11.298  2.5677  0.8865  2.2415
17078TIP3   OH272724   4.049   5.989   4.793 -0.5725 -0.3172 -0.2080
17078TIP3    H172725   3.972   5.985   4.851 -0.4470  2.0318  0.1976
17078TIP3    H272726   4.106   6.055   4.833  1.3927 -1.5188 -0.8652
17079TIP3   OH272727   5.086   1.633  12.800 -0.0356  0.3066 -0.3156
17079TIP3    H172728   5.023   1.693  12.839  0.5404 -0.4518  1.9061
17079TIP3    H272729   5.069   1.549  12.841  2.1969  0.0156  0.1742
17080TIP3   OH272730   3.552   2.226  15.911 -0.3159 -0.1502 -0.3684
17080TIP3    H172731   3.546   2.137  15.875  0.5514 -0.6629  0.6684
17080TIP3    H272732   3.627   2.264  15.867 -0.6894  0.0792 -0.8144
17081TIP3   OH272733   4.300   5.938  16.392  0.1888  0.2228  0.6946
17081TIP3    H172734   4.285   5.896  16.477 -1.4183  0.8212  0.7448
17081TIP3    H272735   4.293   6.032  16.411  0.9560  0.4108  0.0886
17082TIP3   OH272736   1.926   2.748   3.596 -0.7832 -0.0083 -0.4326
17082TIP3    H172737   1.971   2.740   3.513 -0.9403  0.9518 -0.6291
17082TIP3    H272738   1.837   2.777   3.573 -1.0262 -0.3602  0.0340
17083TIP3   OH272739   3.099   0.142  10.642  0.8979  0.5439  0.0329
17083TIP3    H172740   3.097   0.052  10.611 -0.0594  0.8015 -0.7132
17083TIP3    H272741   3.098   0.195  10.562  1.2087  1.2152  0.4602
17084TIP3   OH272742   1.559   3.624   2.576  0.7793  0.2971 -0.2376
17084TIP3    H172743   1.528   3.693   2.634 -2.9302 -1.4561  0.1730
17084TIP3    H272744   1.520   3.645   2.491  0.5894 -0.6293 -0.3937
17085TIP3   OH272745   4.141   5.300   1.260 -0.2114  0.0977 -0.3002
17085TIP3    H172746   4.151   5.223   1.316 -0.2361 -0.1935 -0.6921
17085TIP3    H272747   4.132   5.264   1.171  0.5639  0.5769 -0.5870
17086TIP3   OH272748   5.722   3.344  12.743 -0.6297 -0.0123  0.2689
17086TIP3    H172749   5.723   3.249  12.756  1.7207 -0.0224  0.4929
17086TIP3    H272750   5.715   3.380  12.831  0.7255 -0.0301  0.4114
17087TIP3   OH272751   3.461   6.680  14.999  0.6956  0.1518 -0.9430
17087TIP3    H172752   3.542   6.731  14.994  0.4513  1.1260  2.5370
17087TIP3    H272753   3.483   6.605  15.055 -0.5392 -0.1626 -0.8496
17088TIP3   OH272754   4.306   2.555   1.291  0.0629 -0.4008  0.7213
17088TIP3    H172755   4.309   2.460   1.288 -0.2100 -0.3959 -0.5447
17088TIP3    H272756   4.214   2.577   1.282  0.1217 -0.0120  1.0288
17089TIP3   OH272757   4.271   2.213  15.917  0.3032 -0.6875  0.1034
17089TIP3    H172758   4.344   2.222  15.855 -1.3990 -1.4578 -2.1633
17089TIP3    H272759   4.291   2.134  15.966  1.6088 -0.1729  0.4502
17090TIP3   OH272760   3.102   0.545   5.028 -0.2777  0.0136  0.0771
17090TIP3    H172761   3.188   0.511   5.003 -0.6579 -0.7263 -0.2619
17090TIP3    H272762   3.105   0.638   5.008  1.0660  0.3764  1.7491
17091TIP3   OH272763   4.702   3.794   1.816 -0.3238  0.4944  0.7453
17091TIP3    H172764   4.758   3.851   1.868 -0.0044  0.2705  0.6529
17091TIP3    H272765   4.677   3.847   1.741  1.1016  0.0908 -0.0593
17092TIP3   OH272766   1.212   1.090  14.660 -0.1534  0.2014  0.4751
17092TIP3    H172767   1.229   0.999  14.685 -0.9418  0.1655  0.8997
17092TIP3    H272768   1.295   1.135  14.676 -0.2880 -0.0611  2.0992
17093TIP3   OH272769   4.213   5.655   2.612  0.2455 -0.4819 -0.8287
17093TIP3    H172770   4.118   5.663   2.605  0.2585  0.3596 -0.2237
17093TIP3    H272771   4.227   5.580   2.669 -0.1328  0.8875  1.1562
17094TIP3   OH272772   6.624   6.714   5.004 -0.1870  0.3545 -0.5502
17094TIP3    H172773   6.590   6.689   5.090 -1.2512 -0.3830 -1.1596
17094TIP3    H272774   6.669   6.797   5.019 -0.1891  0.1420  0.7494
17095TIP3   OH272775   5.846   5.417  14.687  0.1991  0.7087 -0.2594
17095TIP3    H172776   5.915   5.437  14.623  0.7742  2.0546  0.7435
17095TIP3    H272777   5.833   5.499  14.735 -1.3372  0.1637  0.3129
17096TIP3   OH272778   6.598   0.199   0.637  0.5274 -0.4363  0.0754
17096TIP3    H172779   6.686   0.161   0.647  0.7447 -0.0372 -0.3257
17096TIP3    H272780   6.541   0.123   0.626  0.7363 -0.7304  0.9469
17097TIP3   OH272781   0.262   6.052   0.612  0.8028 -0.7032  0.6175
17097TIP3    H172782   0.200   5.987   0.577  1.7370 -0.9927 -0.5422
17097TIP3    H272783   0.348   6.013   0.598  1.3228  0.2374  1.0902
17098TIP3   OH272784   4.440   6.522  10.573  0.0305  0.1555  0.2573
17098TIP3    H172785   4.407   6.527  10.484  0.8309  0.3994 -0.0408
17098TIP3    H272786   4.411   6.604  10.614  1.7604  1.2275 -0.5541
17099TIP3   OH272787   3.739   5.368   2.520 -0.0842 -0.2741  0.0894
17099TIP3    H172788   3.831   5.392   2.505 -0.6792  1.9478 -0.4780
17099TIP3    H272789   3.702   5.362   2.432 -0.4219 -1.5473  0.3042
17100TIP3   OH272790   1.715   3.670  12.487 -0.7651  0.6035  0.3826
17100TIP3    H172791   1.676   3.595  12.531 -1.0384 -0.2727 -1.3059
17100TIP3    H272792   1.681   3.746  12.535 -0.6364 -0.3057  1.9921
17101TIP3   OH272793   2.081   5.559   2.166  0.0275 -0.1310 -0.0242
17101TIP3    H172794   2.026   5.488   2.132 -0.1272 -0.6582  1.2597
17101TIP3    H272795   2.019   5.628   2.189  0.0388 -0.1645  0.1056
17102TIP3   OH272796   0.429   4.048  16.287  0.0631  0.3580 -0.1571
17102TIP3    H172797   0.377   4.025  16.210  2.6775  1.4206 -2.4306
17102TIP3    H272798   0.457   3.963  16.322 -0.3120 -0.1514 -1.0378
17103TIP3   OH272799   6.290   1.460  11.715  0.6370 -0.0594  0.0544
17103TIP3    H172800   6.385   1.451  11.710  0.4956 -1.1469 -1.6646
17103TIP3    H272801   6.261   1.452  11.624 -1.0830  0.6500  0.4991
17104TIP3   OH272802   0.748   6.761   4.470 -0.3228 -0.3084  0.4085
17104TIP3    H172803   0.837   6.729   4.485 -1.0444 -1.8420  1.7460
17104TIP3    H272804   0.701   6.741   4.552 -1.5751  1.6387  0.2192
17105TIP3   OH272805   1.103   6.176  14.905 -0.3368  0.3806 -0.9593
17105TIP3    H172806   1.105   6.254  14.850 -1.9625  1.5112  0.4684
17105TIP3    H272807   1.167   6.194  14.975 -3.0174  2.0496  1.2622
17106TIP3   OH272808   4.065   3.537   0.253 -0.2590 -0.2277  0.3365
17106TIP3    H172809   4.000   3.477   0.219  0.6945 -0.4404 -1.2197
17106TIP3    H272810   4.025   3.624   0.244 -0.4414 -0.3782 -0.3238
17107TIP3   OH272811   0.697   4.256   4.667 -0.4160 -0.0164 -0.0753
17107TIP3    H172812   0.782   4.259   4.711 -0.2884  2.1260 -0.3621
17107TIP3    H272813   0.651   4.182   4.708  0.7905  0.0904  1.5654
17108TIP3   OH272814   2.165   6.313  15.008 -0.2361  0.5603 -0.0432
17108TIP3    H172815   2.253   6.349  14.994 -0.5104  1.0857 -0.4383
17108TIP3    H272816   2.148   6.326  15.101  0.1612  0.3199  0.0669
17109TIP3   OH272817   2.163   4.170   2.381  0.2909 -0.3311  0.2768
17109TIP3    H172818   2.221   4.114   2.330  1.3506 -1.3472  2.4740
17109TIP3    H272819   2.081   4.122   2.386 -0.3722  0.4832 -1.6731
17110TIP3   OH272820   1.628   6.268  15.234  0.1808  0.2713 -0.1044
17110TIP3    H172821   1.638   6.314  15.317  1.3793 -0.8970  0.4435
17110TIP3    H272822   1.683   6.190  15.243 -0.4543 -0.3973 -1.6228
17111TIP3   OH272823   2.415   1.041   3.491 -0.4378 -0.0266  0.0260
17111TIP3    H172824   2.470   0.974   3.533 -1.0601 -0.6273 -0.0946
17111TIP3    H272825   2.416   1.114   3.552  0.2293 -0.1484  0.1764
17112TIP3   OH272826   0.717   0.413   4.189 -0.0105 -0.1986 -0.9417
17112TIP3    H172827   0.811   0.412   4.204 -0.0367  1.1780 -0.5372
17112TIP3    H272828   0.678   0.384   4.272  0.0112  2.1036 -0.0369
17113TIP3   OH272829   2.262   1.974  11.386 -0.0162 -0.4825  0.0720
17113TIP3    H172830   2.292   2.030  11.457  0.6595  0.0810 -0.6331
17113TIP3    H272831   2.341   1.951  11.338 -0.4714 -0.7212 -0.5903
17114TIP3   OH272832   0.202   6.774  11.907  0.3092  0.4706  0.3482
17114TIP3    H172833   0.253   6.721  11.845 -0.2314  0.3309  0.0093
17114TIP3    H272834   0.221   6.736  11.993  0.8395  0.4778  0.2360
17115TIP3   OH272835   3.875   2.470  14.859 -0.3070  0.5069  0.4505
17115TIP3    H172836   3.914   2.503  14.939 -0.5494  1.8763  0.0174
17115TIP3    H272837   3.804   2.530  14.840 -0.3472  0.1129 -0.7176
17116TIP3   OH272838   5.172   0.188  13.807  0.5331 -0.6330  0.1122
17116TIP3    H172839   5.091   0.238  13.809 -1.3673 -3.5314  0.8846
17116TIP3    H272840   5.212   0.209  13.722 -0.7944  1.1253 -0.1201
17117TIP3   OH272841   6.600   2.007   4.533 -0.2432 -0.8194  0.7612
17117TIP3    H172842   6.556   2.018   4.617 -1.4070 -0.5683  0.1257
17117TIP3    H272843   6.578   1.918   4.505 -0.6557 -0.5641  0.2666
17118TIP3   OH272844   1.998   0.974  15.669  0.0989 -0.5273  0.1046
17118TIP3    H172845   2.033   0.913  15.604 -0.3158 -2.9038  1.9660
17118TIP3    H272846   2.075   1.017  15.704  0.6273 -1.4589  0.1346
17119TIP3   OH272847   3.244   1.692   4.980 -0.4529 -0.1248  0.4739
17119TIP3    H172848   3.294   1.635   5.039 -0.6480 -1.1886 -0.3692
17119TIP3    H272849   3.155   1.691   5.016 -0.2492  0.4493  1.0205
17120TIP3   OH272850   0.872   3.193  17.000  0.0578 -0.6477 -0.4331
17120TIP3    H172851   0.899   3.256  16.933  0.3687 -2.3422 -1.9850
17120TIP3    H272852   0.781   3.173  16.978  0.9567 -3.2878 -2.1604
17121TIP3   OH272853   5.219   2.763   3.597  0.4108 -0.1304 -0.1645
17121TIP3    H172854   5.267   2.767   3.679  1.2325  0.7786 -0.6699
17121TIP3    H272855   5.155   2.834   3.603 -0.4077 -0.8809  0.2076
17122TIP3   OH272856   1.644   4.866   3.435 -0.4347  0.1837  0.2100
17122TIP3    H172857   1.559   4.863   3.480 -0.9448  1.6560 -0.5744
17122TIP3    H272858   1.649   4.782   3.389 -3.6918  1.6640 -3.4439
17123TIP3   OH272859   4.443   2.854   4.873 -0.1008  0.5076 -0.1384
17123TIP3    H172860   4.358   2.836   4.833 -0.8567  0.9770  1.1888
17123TIP3    H272861   4.436   2.945   4.903  1.3197  0.9602 -1.0714
17124TIP3   OH272862   5.634   1.683  12.743 -0.3132 -0.0681 -0.3748
17124TIP3    H172863   5.563   1.666  12.681  0.1904  2.8124 -1.8627
17124TIP3    H272864   5.646   1.778  12.742  1.5007 -0.1426  2.2078
17125TIP3   OH272865   2.191   1.211  11.257 -0.4743  0.3347  0.9065
17125TIP3    H172866   2.216   1.287  11.205 -0.2062 -0.6706 -0.5216
17125TIP3    H272867   2.171   1.245  11.343 -0.3074  2.0064  0.3107
17126TIP3   OH272868   0.366   4.914  16.436 -0.2110  0.4346 -0.1458
17126TIP3    H172869   0.446   4.904  16.384 -0.1135 -0.9098  0.2322
17126TIP3    H272870   0.298   4.933  16.372  0.2924  0.9527 -0.5397
17127TIP3   OH272871   0.594   2.328  15.936 -0.4509  0.0492 -0.6842
17127TIP3    H172872   0.618   2.269  15.865 -0.2855 -1.0695  0.2708
17127TIP3    H272873   0.671   2.383  15.948 -0.6195  0.5113 -1.6049
17128TIP3   OH272874   5.826   0.648   4.720 -0.3439  0.5086 -0.0248
17128TIP3    H172875   5.901   0.670   4.664  0.8745 -2.5950  0.1875
17128TIP3    H272876   5.847   0.689   4.804 -0.0248  1.5346 -0.5743
17129TIP3   OH272877   1.901   2.550  15.309  0.0821 -0.0209 -0.0268
17129TIP3    H172878   1.844   2.611  15.262  2.1154  0.5163 -2.0050
17129TIP3    H272879   1.904   2.584  15.399 -0.6331  1.4604 -0.5260
17130TIP3   OH272880   0.411   1.920   4.437 -0.1416 -0.4236  0.2021
17130TIP3    H172881   0.343   1.889   4.377 -0.0843  0.0251 -0.0979
17130TIP3    H272882   0.383   1.888   4.523 -1.4198  0.8179  0.2889
17131TIP3   OH272883   1.376   4.681   5.119 -0.2522 -0.0525  0.0128
17131TIP3    H172884   1.368   4.776   5.121 -0.3844 -0.0571 -0.2698
17131TIP3    H272885   1.419   4.659   5.202 -0.3359  0.2424  0.1361
17132TIP3   OH272886   0.365   4.269  16.046  0.1661 -0.0783  0.9497
17132TIP3    H172887   0.340   4.320  15.969 -0.7712 -1.3222  0.3844
17132TIP3    H272888   0.381   4.334  16.114  0.0937  1.0029 -0.0366
17133TIP3   OH272889   6.502   4.984  13.147 -0.5534  0.0031  0.0523
17133TIP3    H172890   6.551   4.908  13.116 -0.4173  0.1934 -0.2015
17133TIP3    H272891   6.547   5.059  13.109 -1.3991  0.1575 -0.6698
17134TIP3   OH272892   4.620   3.646   1.216  0.0798 -0.2905 -0.2282
17134TIP3    H172893   4.572   3.703   1.156  1.5548 -1.0678 -2.2894
17134TIP3    H272894   4.706   3.687   1.223  1.1828 -2.1450 -1.7776
17135TIP3   OH272895   0.353   6.749   4.051 -0.1132  0.3146 -0.3709
17135TIP3    H172896   0.430   6.723   4.000 -1.1156  1.7832 -2.8264
17135TIP3    H272897   0.380   6.827   4.098 -0.3263  1.5043 -2.1185
17136TIP3   OH272898   6.648   0.391   2.248  0.6125  0.5682 -0.3541
17136TIP3    H172899   6.557   0.403   2.274  0.0119 -0.2083 -1.9586
17136TIP3    H272900   6.650   0.411   2.154  2.2020  1.0473 -0.2572
17137TIP3   OH272901   1.144   1.223  12.825  0.9606 -0.1112  0.8116
17137TIP3    H172902   1.155   1.199  12.734 -1.2245  3.2293 -0.5441
17137TIP3    H272903   1.130   1.141  12.871  0.4947 -1.7800 -2.1163
17138TIP3   OH272904   5.279   4.576   1.058 -0.3235 -0.0408 -0.4930
17138TIP3    H172905   5.351   4.514   1.058  0.9489  1.3496  0.9562
17138TIP3    H272906   5.296   4.633   0.983  0.5265  0.7221  0.2557
17139TIP3   OH272907   1.221   4.042   1.320  0.4787 -0.1112  0.3698
17139TIP3    H172908   1.175   4.036   1.237  0.0060 -1.0558  0.6811
17139TIP3    H272909   1.314   4.050   1.297  0.2706  0.4904 -0.2503
17140TIP3   OH272910   0.609   4.918   0.570  0.0015 -0.0134 -0.3930
17140TIP3    H172911   0.617   4.975   0.493  2.9291 -0.9241 -0.8784
17140TIP3    H272912   0.532   4.865   0.552  0.9760 -0.6974 -3.1031
17141TIP3   OH272913   0.120   4.578  14.147 -0.6461  0.1562  0.5477
17141TIP3    H172914   0.110   4.648  14.212  1.2609  1.0793 -0.0883
17141TIP3    H272915   0.183   4.612  14.084 -1.7459 -1.0751 -1.3249
17142TIP3   OH272916   6.222   2.145  15.780 -0.4195 -0.4128 -0.1757
17142TIP3    H172917   6.166   2.135  15.703 -1.2357  1.9228  0.0479
17142TIP3    H272918   6.310   2.121  15.750 -0.8974 -0.5265 -1.5462
17143TIP3   OH272919   6.706   1.686   4.687  0.5082 -0.4088  0.1551
17143TIP3    H172920   6.740   1.772   4.712  1.5945 -0.9199  0.4639
17143TIP3    H272921   6.709   1.686   4.591  0.7622 -0.2039  0.1618
17144TIP3   OH272922   4.235   1.479   3.733 -0.4933  0.2883  0.0057
17144TIP3    H172923   4.242   1.554   3.673 -0.6429  0.6036  0.3776
17144TIP3    H272924   4.316   1.430   3.718 -0.4702  0.4347 -0.3630
17145TIP3   OH272925   5.616   0.625   1.334  0.2745  0.1584  0.2230
17145TIP3    H172926   5.618   0.544   1.386  0.2354  0.1215  0.1669
17145TIP3    H272927   5.526   0.631   1.302 -0.0694  0.8881  1.2788
17146TIP3   OH272928   0.436   2.762   0.485  0.0284  0.9948  0.0608
17146TIP3    H172929   0.499   2.725   0.548  1.1910  0.6881 -1.2447
17146TIP3    H272930   0.367   2.696   0.480  0.3685  0.6074  0.3558
17147TIP3   OH272931   6.264   6.375  16.622  0.4713  0.2476  0.3952
17147TIP3    H172932   6.358   6.359  16.630  0.5533 -0.0430 -0.9507
17147TIP3    H272933   6.241   6.342  16.535 -0.8251  0.5734  0.5901
17148TIP3   OH272934   4.725   5.754   4.076 -0.0045  0.2024 -0.1874
17148TIP3    H172935   4.721   5.778   3.983 -0.7186  0.2700 -0.1503
17148TIP3    H272936   4.661   5.812   4.118  0.6547  0.4923  0.4225
17149TIP3   OH272937   5.177   2.898   4.603  0.2762  0.4508 -0.2099
17149TIP3    H172938   5.126   2.969   4.566  0.7771  0.8503 -0.1477
17149TIP3    H272939   5.204   2.929   4.690 -2.8797 -1.3912  1.6034
17150TIP3   OH272940   5.094   2.695   5.806 -0.0476  0.0625  0.4132
17150TIP3    H172941   5.177   2.650   5.791  1.2218  2.3775 -0.0421
17150TIP3    H272942   5.113   2.757   5.877 -0.5680  2.3857 -1.3438
17151TIP3   OH272943   3.162   5.905   2.644  0.9100  0.1903 -0.2621
17151TIP3    H172944   3.245   5.942   2.673  0.8502  0.1404 -0.0200
17151TIP3    H272945   3.180   5.812   2.629  0.5670 -0.1409  1.2021
17152TIP3   OH272946   3.867   0.265   3.942  0.6739  0.5608  0.0998
17152TIP3    H172947   3.863   0.272   3.847 -0.4243  2.3526  0.2474
17152TIP3    H272948   3.927   0.191   3.958 -1.1921 -1.5436 -1.9851
17153TIP3   OH272949   1.562   5.410  11.307 -0.5410 -0.2191  0.6380
17153TIP3    H172950   1.543   5.489  11.357  0.6289  0.0226  0.7044
17153TIP3    H272951   1.566   5.440  11.216  0.6501 -0.0494  0.7328
17154TIP3   OH272952   1.749   3.005   2.849  0.1441  0.0644  0.3097
17154TIP3    H172953   1.728   3.053   2.769  2.2683  1.4315  0.4846
17154TIP3    H272954   1.724   3.065   2.920  1.1377  0.1623  0.5828
17155TIP3   OH272955   1.074   3.376  13.610  0.8639 -0.3109  0.3050
17155TIP3    H172956   1.140   3.395  13.676  0.8395  0.8628  0.0221
17155TIP3    H272957   1.048   3.285  13.626  1.9467 -0.5219  0.9329
17156TIP3   OH272958   4.121   3.130  10.479  0.5656 -0.6904 -0.0598
17156TIP3    H172959   4.154   3.099  10.394 -0.5688 -1.4176 -0.2597
17156TIP3    H272960   4.181   3.200  10.504  0.9614 -0.5046 -1.4317
17157TIP3   OH272961   0.939   5.365  13.436 -0.1507  0.5345  0.0599
17157TIP3    H172962   0.976   5.284  13.401 -1.1132  0.5905 -1.2150
17157TIP3    H272963   0.948   5.428  13.364 -2.1873  0.6713 -0.1559
17158TIP3   OH272964   5.683   2.919  15.858  0.2458 -0.2753  0.2350
17158TIP3    H172965   5.705   2.828  15.837  1.5710  0.0588  0.1022
17158TIP3    H272966   5.680   2.963  15.774  0.4949 -0.0144  0.3599
17159TIP3   OH272967   5.227   1.941   6.222  0.1093 -0.2618 -0.3481
17159TIP3    H172968   5.233   1.987   6.139  0.5011 -1.7313 -1.1789
17159TIP3    H272969   5.274   1.858   6.207 -1.6224 -1.4959  0.6500
17160TIP3   OH272970   4.592   6.710  17.131  0.7071  0.4448 -0.1337
17160TIP3    H172971   4.681   6.717  17.098  1.4556  1.2602  1.8748
17160TIP3    H272972   4.580   6.788  17.186 -1.7960  1.1506 -1.5297
17161TIP3   OH272973   6.538   2.920  17.168 -0.2596 -0.0743 -0.1017
17161TIP3    H172974   6.503   2.950  17.252 -0.5964  1.0649 -0.6181
17161TIP3    H272975   6.604   2.986  17.145  0.7849 -1.1027 -0.1040
17162TIP3   OH272976   1.812   1.918   1.452 -0.4796 -0.0020 -0.8278
17162TIP3    H172977   1.828   1.947   1.362  1.1414  0.6506 -0.3680
17162TIP3    H272978   1.841   1.991   1.506  0.5242 -1.1621  0.2768
17163TIP3   OH272979   1.651   5.493   0.961  0.5044 -0.0886  0.3592
17163TIP3    H172980   1.599   5.470   0.884  0.9508 -1.7647  0.5172
17163TIP3    H272981   1.644   5.588   0.967  0.1743  0.0467 -1.5410
17164TIP3   OH272982   6.131   1.125   3.271 -0.3406 -0.1278 -0.1620
17164TIP3    H172983   6.117   1.062   3.342  1.8276  3.0758  3.4624
17164TIP3    H272984   6.050   1.176   3.268 -0.5882 -0.5186 -0.3883
17165TIP3   OH272985   0.602   0.835  11.398 -0.8028  0.2104  0.2956
17165TIP3    H172986   0.536   0.781  11.442 -1.5886  0.6551 -0.3155
17165TIP3    H272987   0.665   0.856  11.467 -1.8721  0.6735  1.1655
17166TIP3   OH272988   1.767   6.188  12.029 -0.2288 -0.2808 -0.6097
17166TIP3    H172989   1.791   6.251  11.961  0.0209 -0.1573 -0.4080
17166TIP3    H272990   1.747   6.108  11.981  0.7887 -0.4525 -0.7733
17167TIP3   OH272991   6.098   3.893  16.993 -0.4021  0.3486 -0.0782
17167TIP3    H172992   6.169   3.855  16.942 -1.6299 -2.1702 -0.0805
17167TIP3    H272993   6.038   3.930  16.927 -0.2031  0.4010 -0.2288
17168TIP3   OH272994   0.313   6.676  14.135  0.4176  0.0201  0.1739
17168TIP3    H172995   0.237   6.624  14.163  1.2594 -1.0935  0.4348
17168TIP3    H272996   0.285   6.767  14.147 -0.3605 -0.3867  1.6951
17169TIP3   OH272997   6.408   0.005   0.574 -0.0466  0.1914  0.0512
17169TIP3    H172998   6.358  -0.074   0.554  2.9361 -1.4314 -1.8005
17169TIP3    H272999   6.352   0.077   0.544 -1.3074 -1.4757 -1.8865
17170TIP3   OH273000   3.448   3.532   5.866  0.0864  0.0412  0.1766
17170TIP3    H173001   3.433   3.545   5.959 -1.5893 -2.1963  0.2991
17170TIP3    H273002   3.467   3.619   5.832 -0.1918  1.0432  2.4224
17171TIP3   OH273003   0.282   2.156  12.955 -0.1042  0.4965 -0.0013
17171TIP3    H173004   0.328   2.109  12.886 -1.2003 -1.6402  0.6394
17171TIP3    H273005   0.197   2.112  12.962  0.4635 -0.3706  3.6068
17172TIP3   OH273006   5.572   5.596   3.964  0.1278 -0.7251  0.3908
17172TIP3    H173007   5.505   5.529   3.975 -0.1278 -0.3014  1.5448
17172TIP3    H273008   5.537   5.673   4.007  0.4960  0.1143 -0.7672
17173TIP3   OH273009   2.841   1.812   2.173  0.4272 -0.4015  0.1604
17173TIP3    H173010   2.930   1.795   2.205 -0.1545 -2.3581  0.8835
17173TIP3    H273011   2.784   1.782   2.244 -0.8367  0.1035 -0.6010
17174TIP3   OH273012   1.022   1.194   1.099  0.2284  0.2356  0.9934
17174TIP3    H173013   0.943   1.185   1.046  0.3109 -0.3691  0.9623
17174TIP3    H273014   0.990   1.213   1.187  0.0863  1.0975  0.7688
17175TIP3   OH273015   5.487   0.984   4.719  0.3816 -0.4115  0.7423
17175TIP3    H173016   5.516   0.951   4.634  3.5350  1.3346  0.9822
17175TIP3    H273017   5.443   1.067   4.699 -0.0967 -0.6598  0.7450
17176TIP3   OH273018   1.977   2.122   5.426 -0.0167 -0.2172  0.5567
17176TIP3    H173019   1.937   2.159   5.505 -0.2823 -0.0976  0.3681
17176TIP3    H273020   1.903   2.095   5.372  0.1752 -1.1635  0.7539
17177TIP3   OH273021   1.865   6.059  14.249 -0.2553 -0.2977 -0.1350
17177TIP3    H173022   1.811   5.997  14.298 -0.8607  0.1452 -0.2309
17177TIP3    H273023   1.902   6.006  14.178 -0.7111 -0.5681 -0.1769
17178TIP3   OH273024   6.656   5.349  15.849 -0.2660 -0.1567  0.0044
17178TIP3    H173025   6.715   5.358  15.924 -1.3776  0.4607  0.8334
17178TIP3    H273026   6.649   5.438  15.814  0.1967 -0.4327 -0.7970
17179TIP3   OH273027   0.258   1.489   4.844  0.3895 -0.0429 -0.0016
17179TIP3    H173028   0.186   1.547   4.822  1.1562  1.4985  1.3290
17179TIP3    H273029   0.216   1.414   4.887 -0.4731  0.3905 -0.0654
17180TIP3   OH273030   2.298   1.154   3.918 -0.1207  0.3445  0.0547
17180TIP3    H173031   2.388   1.181   3.933 -0.0980  0.2006  0.1795
17180TIP3    H273032   2.272   1.199   3.837 -0.4224  1.5703  0.7924
17181TIP3   OH273033   0.480   5.704  11.387 -0.6756 -0.4575 -0.0083
17181TIP3    H173034   0.495   5.634  11.451 -1.1013 -0.1862  0.4037
17181TIP3    H273035   0.385   5.708  11.379 -0.8008  1.3557  1.4733
17182TIP3   OH273036   0.737   4.675  16.119 -0.2143 -0.3480 -0.5967
17182TIP3    H173037   0.652   4.641  16.091 -0.7516  0.5268 -0.0839
17182TIP3    H273038   0.778   4.603  16.167 -1.5330 -0.1608  0.8904
17183TIP3   OH273039   1.997   3.965  15.575  0.1539 -0.4754 -0.5913
17183TIP3    H173040   2.000   3.872  15.596 -0.4859 -0.8592 -2.0628
17183TIP3    H273041   2.070   4.004  15.624 -0.4757 -1.4792  1.2294
17184TIP3   OH273042   5.607   5.896   1.283  0.0924 -0.4688 -0.7602
17184TIP3    H173043   5.564   5.968   1.330  0.7547 -1.0787  0.8287
17184TIP3    H273044   5.596   5.919   1.190 -1.4769  0.6342 -0.3439
17185TIP3   OH273045   2.317   6.164   3.524 -0.1240 -0.9134  0.3532
17185TIP3    H173046   2.256   6.211   3.468 -0.4117  0.7599  1.9454
17185TIP3    H273047   2.400   6.167   3.478 -0.6106 -0.6434 -0.5215
17186TIP3   OH273048   1.084   2.354  13.307  0.6134  0.1252 -0.7289
17186TIP3    H173049   1.087   2.441  13.266 -0.0564  0.8175  0.6258
17186TIP3    H273050   1.034   2.367  13.387  2.0538 -1.1438  0.4262
17187TIP3   OH273051   1.118   0.977  16.677  0.5727 -0.6104  0.5070
17187TIP3    H173052   1.168   0.898  16.660 -1.5289 -1.4039 -3.0632
17187TIP3    H273053   1.165   1.046  16.629 -0.5310 -0.9170 -1.0640
17188TIP3   OH273054   3.133   1.349   5.122 -0.0526 -0.1466  0.1566
17188TIP3    H173055   3.151   1.307   5.207 -0.6186 -0.2730  0.2191
17188TIP3    H273056   3.049   1.392   5.134  0.1469  0.3431 -0.1611
17189TIP3   OH273057   6.472   5.649  15.234  0.1837  0.0170  0.1295
17189TIP3    H173058   6.431   5.638  15.319  0.0178 -2.5298 -0.2108
17189TIP3    H273059   6.566   5.654  15.253  0.4043 -3.0734  0.4278
17190TIP3   OH273060   3.351   3.103  15.048 -0.3302 -0.2468 -0.2343
17190TIP3    H173061   3.275   3.124  14.994 -0.3012  1.5895  0.3828
17190TIP3    H273062   3.316   3.090  15.136 -0.1066 -0.9983 -0.2478
17191TIP3   OH273063   5.279   3.757   0.587  0.1341 -0.6941 -0.2247
17191TIP3    H173064   5.322   3.834   0.552  2.3316 -2.3446 -1.4172
17191TIP3    H273065   5.286   3.691   0.517 -1.8132 -1.9401  0.6587
17192TIP3   OH273066   3.329   1.686   2.496 -0.2816 -0.0856  0.0814
17192TIP3    H173067   3.425   1.687   2.489 -0.1468  1.7404  1.3240
17192TIP3    H273068   3.300   1.751   2.432 -0.8961 -2.0148 -1.7089
17193TIP3   OH273069   4.809   1.108  10.735  0.1607 -0.2308  0.0330
17193TIP3    H173070   4.804   1.012  10.737  1.6630 -0.3272  1.0905
17193TIP3    H273071   4.892   1.127  10.692 -0.2949  0.6201 -0.4968
17194TIP3   OH273072   3.301   3.299  13.818 -0.0929  0.6221 -0.3094
17194TIP3    H173073   3.345   3.315  13.735  0.2039  0.3401 -0.2089
17194TIP3    H273074   3.249   3.221  13.803 -1.5098  1.6174 -0.7843
17195TIP3   OH273075   3.536   2.889   5.471 -0.0142 -0.1077 -0.3601
17195TIP3    H173076   3.457   2.835   5.468  0.3345 -0.5978 -1.1902
17195TIP3    H273077   3.545   2.924   5.383  1.8221 -1.7633 -0.9294
17196TIP3   OH273078   0.523   6.538  15.033  0.1385  0.3841  0.2017
17196TIP3    H173079   0.608   6.547  15.075  1.0289 -0.7830 -1.2345
17196TIP3    H273080   0.534   6.581  14.948 -0.9088  0.7914  0.2611
17197TIP3   OH273081   6.136   4.967  12.774 -0.3723  0.0307 -0.7045
17197TIP3    H173082   6.192   4.933  12.704  1.1611 -0.2778  0.5897
17197TIP3    H273083   6.151   5.061  12.773 -0.3500  0.0256 -0.8153
17198TIP3   OH273084   1.947   2.498   4.993 -0.0764 -0.1470  0.1677
17198TIP3    H173085   1.902   2.573   5.031 -1.2643 -0.6897 -0.1506
17198TIP3    H273086   1.904   2.483   4.909  0.6098 -0.7676 -0.0872
17199TIP3   OH273087   0.114   2.478  14.340  0.0474 -0.0462  0.0027
17199TIP3    H173088   0.054   2.501  14.411  0.6906 -1.4587  1.0585
17199TIP3    H273089   0.198   2.464  14.383  0.4083 -1.1537 -0.9949
17200TIP3   OH273090   5.604   3.504  15.461 -0.2267  0.1115  0.6799
17200TIP3    H173091   5.523   3.456  15.448 -0.8062  0.9777  0.9998
17200TIP3    H273092   5.673   3.440  15.446 -0.8044  0.2301 -3.7650
17201TIP3   OH273093   5.904   2.173  14.211 -0.4313  0.0390 -0.3371
17201TIP3    H173094   5.957   2.252  14.208 -0.4172  0.0308 -0.3014
17201TIP3    H273095   5.956   2.107  14.165  0.6199 -0.5872  1.6152
17202TIP3   OH273096   0.623   3.601   5.777  0.1056  0.1834  0.0628
17202TIP3    H173097   0.579   3.659   5.715  0.3682  1.3675  0.9357
17202TIP3    H273098   0.650   3.659   5.848  2.1161 -0.6624  0.0657
17203TIP3   OH273099   6.389   0.665  10.447 -0.8994  0.0177 -0.4250
17203TIP3    H173100   6.475   0.637  10.415  1.3713  5.2034  0.0723
17203TIP3    H273101   6.383   0.630  10.536  0.6634 -0.5717 -0.5296
17204TIP3   OH273102   1.883   1.869  17.277  0.1164 -0.1431 -0.1126
17204TIP3    H173103   1.866   1.775  17.271 -0.9563 -0.0693  1.1498
17204TIP3    H273104   1.834   1.907  17.204  0.3718 -0.5402 -0.4973
17205TIP3   OH273105   5.161   5.141  11.082 -0.3104  0.2055 -0.1269
17205TIP3    H173106   5.185   5.091  11.161  2.3094  0.9406 -0.3730
17205TIP3    H273107   5.115   5.218  11.116 -0.5171 -0.2046  0.5501
17206TIP3   OH273108   2.086   5.837   5.581 -0.1728  0.3570  0.4144
17206TIP3    H173109   2.076   5.852   5.675  0.4256 -1.1883  0.7551
17206TIP3    H273110   2.085   5.925   5.542 -3.0965  0.9365  1.5548
17207TIP3   OH273111   4.440   0.810   4.379  0.0356 -0.0772 -0.1616
17207TIP3    H173112   4.508   0.852   4.433  0.0946 -0.2428 -0.1075
17207TIP3    H273113   4.472   0.821   4.289  0.5596 -0.9057 -0.0849
17208TIP3   OH273114   6.553   4.587   5.922  0.3722 -0.5428  0.2253
17208TIP3    H173115   6.644   4.585   5.893  0.7061 -3.4058  1.2292
17208TIP3    H273116   6.502   4.583   5.840  1.2251 -1.9527 -0.2779
17209TIP3   OH273117   2.120   0.935  11.154  0.2359  0.0875  0.5172
17209TIP3    H173118   2.199   0.939  11.101  0.2472  0.9927  0.6010
17209TIP3    H273119   2.121   1.015  11.206  0.2707 -0.8114  1.9477
17210TIP3   OH273120   0.272   0.791  16.063 -0.0583 -0.0859  1.1522
17210TIP3    H173121   0.356   0.786  16.108 -0.1045 -0.3125  1.2130
17210TIP3    H273122   0.284   0.739  15.984 -0.0067  0.2345  0.9501
17211TIP3   OH273123   6.301   5.562   5.439 -0.0278 -0.1968  0.0584
17211TIP3    H173124   6.313   5.655   5.458 -0.5565 -0.0909 -0.1057
17211TIP3    H273125   6.375   5.539   5.383  0.3391  0.0186  0.4479
17212TIP3   OH273126   2.872   0.562  15.248  1.0888  0.3049  0.0290
17212TIP3    H173127   2.948   0.617  15.266  1.9590 -0.6203 -0.7473
17212TIP3    H273128   2.890   0.522  15.163  0.3614 -0.9625  0.4433
17213TIP3   OH273129   5.147   3.253   2.921  0.1897  0.6624  0.3968
17213TIP3    H173130   5.205   3.283   2.851 -0.6714 -0.9846 -1.1272
17213TIP3    H273131   5.066   3.303   2.908  0.8468  2.1873  1.8563
17214TIP3   OH273132   2.783   2.830  15.970  0.5678  0.8409  0.5340
17214TIP3    H173133   2.828   2.869  15.895 -0.1335 -0.1656 -0.4437
17214TIP3    H273134   2.690   2.840  15.951  0.3811 -0.3108  0.7669
17215TIP3   OH273135   0.506   6.097  13.091 -0.0974 -0.4584 -0.2145
17215TIP3    H173136   0.445   6.087  13.019  0.8847  0.1567 -1.1655
17215TIP3    H273137   0.458   6.066  13.168 -0.8162 -2.1410 -1.2842
17216TIP3   OH273138   6.750   1.076  10.562 -0.1628 -0.2337  0.0086
17216TIP3    H173139   6.678   1.090  10.624  0.3948 -0.7444  0.7894
17216TIP3    H273140   6.740   1.147  10.498 -2.1233 -1.0499 -0.6553
17217TIP3   OH273141   1.978   4.378   5.221 -0.4225 -0.1378 -0.1940
17217TIP3    H173142   2.009   4.289   5.209 -0.9117 -0.5140  1.1672
17217TIP3    H273143   2.056   4.427   5.247 -0.3978 -0.4425  0.3092
17218TIP3   OH273144   2.793   5.215   3.025  0.5417 -0.3596  0.0457
17218TIP3    H173145   2.867   5.169   2.985  1.0252  1.6449 -1.5319
17218TIP3    H273146   2.831   5.291   3.068 -0.1823 -1.5692  3.0945
17219TIP3   OH273147   4.765   2.257   0.439  0.6509  0.0639  0.0708
17219TIP3    H173148   4.782   2.338   0.488  0.3534 -0.3384  0.8627
17219TIP3    H273149   4.835   2.198   0.466  0.9719  0.1065 -0.6453
17220TIP3   OH273150   1.710   1.822  16.703 -0.3704  1.0160 -0.3750
17220TIP3    H173151   1.775   1.815  16.773  1.3756  0.5997 -1.9743
17220TIP3    H273152   1.688   1.915  16.700  0.1675  1.1700  0.1909
17221TIP3   OH273153   4.736   4.899   4.496  0.3510 -0.1335  0.0804
17221TIP3    H173154   4.665   4.947   4.539 -0.1764  0.4961 -1.4588
17221TIP3    H273155   4.796   4.967   4.466  1.1629 -0.6175  0.5713
17222TIP3   OH273156   6.421   3.805   0.792 -0.4274 -0.7243  0.4929
17222TIP3    H173157   6.374   3.736   0.838 -1.4214 -1.0478 -0.9506
17222TIP3    H273158   6.467   3.759   0.722  1.1193 -0.2523  1.1501
17223TIP3   OH273159   6.690   2.703   0.917 -0.5160  0.3453 -0.2576
17223TIP3    H173160   6.719   2.775   0.862 -0.4362  0.8573  0.4414
17223TIP3    H273161   6.767   2.681   0.971  0.7843 -2.8132 -3.0051
17224TIP3   OH273162   1.979   4.156  11.939 -0.3140 -0.1738 -0.0540
17224TIP3    H173163   2.071   4.132  11.954  0.1474  1.0514 -0.7939
17224TIP3    H273164   1.929   4.090  11.987  0.7760 -3.6414 -3.2573
17225TIP3   OH273165   5.151   3.338  11.455  0.1598 -0.8622 -0.0618
17225TIP3    H173166   5.120   3.428  11.447 -1.2323 -1.4251 -1.5305
17225TIP3    H273167   5.222   3.331  11.391 -0.5626 -1.1385 -0.8386
17226TIP3   OH273168   3.178   0.238  13.868  0.3223 -0.3559  0.2926
17226TIP3    H173169   3.223   0.214  13.950 -0.5920  0.7584  1.1513
17226TIP3    H273170   3.086   0.250  13.894 -0.0364 -0.2986 -0.9655
17227TIP3   OH273171   1.122   1.353  16.250  0.0817 -0.3348  0.5077
17227TIP3    H173172   1.115   1.414  16.176  1.9336 -0.7126 -0.0185
17227TIP3    H273173   1.191   1.292  16.225 -0.8884 -1.9353  1.5496
17228TIP3   OH273174   3.144   2.650   0.458 -0.0829  0.0654 -0.3028
17228TIP3    H173175   3.056   2.659   0.493  1.0174  0.4837  2.7203
17228TIP3    H273176   3.140   2.575   0.398 -2.6311  0.6612 -0.9533
17229TIP3   OH273177   1.687   5.156   3.447 -0.2601  0.1230 -0.1996
17229TIP3    H173178   1.613   5.205   3.412 -1.3173 -1.1200  0.2255
17229TIP3    H273179   1.681   5.070   3.406  0.1091 -0.4458  0.8989
17230TIP3   OH273180   4.789   4.195   3.689 -0.4538  0.2235 -0.3855
17230TIP3    H173181   4.863   4.255   3.696 -0.2551 -0.2160  2.0764
17230TIP3    H273182   4.725   4.243   3.637  1.2360  0.8912 -1.9918
17231TIP3   OH273183   0.054   3.969  14.991 -0.3599  0.3731  0.2900
17231TIP3    H173184   0.008   4.052  15.004  0.6909  1.1298 -0.6332
17231TIP3    H273185   0.014   3.909  15.054 -0.7250  1.7435  1.4160
17232TIP3   OH273186   5.416   0.827  15.020 -0.2670  0.4392  0.1457
17232TIP3    H173187   5.442   0.917  15.000 -0.7145  0.5087 -0.1271
17232TIP3    H273188   5.345   0.836  15.083  2.1013  0.2081  3.0541
17233TIP3   OH273189   2.967   0.133   2.200  0.6128 -0.3568  0.0890
17233TIP3    H173190   2.905   0.064   2.224  2.1348 -0.8733  2.9133
17233TIP3    H273191   3.042   0.086   2.164  1.1176 -0.1185  0.7999
17234TIP3   OH273192   5.315   3.181  14.176  0.1789  0.1854 -0.0020
17234TIP3    H173193   5.338   3.130  14.253 -1.9851 -0.6300  0.1599
17234TIP3    H273194   5.291   3.116  14.110 -0.3220  0.9426 -0.5820
17235TIP3   OH273195   4.100   2.502  13.340  0.8412  0.0547 -0.1040
17235TIP3    H173196   4.127   2.465  13.424  1.2180 -0.0767 -0.2784
17235TIP3    H273197   4.052   2.581  13.362 -5.4407 -3.3184  0.7796
17236TIP3   OH273198   2.484   2.546  11.015 -0.1856  0.0445  0.4368
17236TIP3    H173199   2.506   2.632  10.980 -1.0431  0.6747  1.3902
17236TIP3    H273200   2.463   2.493  10.938  2.5090 -0.0114 -0.3607
17237TIP3   OH273201   1.869   1.065  14.481 -0.4080 -0.2191 -0.6849
17237TIP3    H173202   1.944   1.026  14.437 -0.0770  1.7984 -2.0637
17237TIP3    H273203   1.797   1.056  14.419 -0.9342 -0.7295 -0.0231
17238TIP3   OH273204   3.848   2.679   0.959  0.5038  0.2393 -0.0599
17238TIP3    H173205   3.803   2.753   1.000 -0.2168  0.9651 -2.0223
17238TIP3    H273206   3.777   2.621   0.931  0.8933  0.3036 -1.2241
17239TIP3   OH273207   5.394   0.577  15.435  0.1189 -0.2180 -0.3817
17239TIP3    H173208   5.450   0.654  15.440  0.5247 -0.4997 -0.5294
17239TIP3    H273209   5.326   0.592  15.500  1.5680 -0.8149  1.3632
17240TIP3   OH273210   1.952   6.750  13.525 -0.0855  0.1391  0.0580
17240TIP3    H173211   2.045   6.735  13.506 -0.0598  0.1890  0.1440
17240TIP3    H273212   1.936   6.699  13.604 -0.7014 -1.7628 -1.2467
17241TIP3   OH273213   1.837   5.991   0.525  0.2034 -0.1900  0.5845
17241TIP3    H173214   1.890   5.927   0.478  0.2592 -0.7406  1.3637
17241TIP3    H273215   1.900   6.055   0.559  0.1664  0.1858 -0.0451
17242TIP3   OH273216   3.221   6.654  14.000  0.3789  0.4136 -0.6020
17242TIP3    H173217   3.311   6.685  13.989 -0.0885  2.2089  0.1945
17242TIP3    H273218   3.215   6.630  14.093 -0.3971  1.9909 -0.2066
17243TIP3   OH273219   6.114   3.122  15.413  0.3558  0.3262  0.3782
17243TIP3    H173220   6.207   3.131  15.395  0.1075 -0.1595 -1.3023
17243TIP3    H273221   6.071   3.137  15.329 -0.7947 -3.7219  0.0121
17244TIP3   OH273222   2.272   0.337   4.491  0.1099 -0.0883 -0.1131
17244TIP3    H173223   2.256   0.243   4.496 -3.2322  0.2795 -1.2209
17244TIP3    H273224   2.208   0.369   4.427 -1.1347  3.3666  2.5102
17245TIP3   OH273225   3.196   5.163  12.968 -0.0201  0.0401 -1.1049
17245TIP3    H173226   3.168   5.107  13.040 -1.6838 -1.1485 -2.6032
17245TIP3    H273227   3.178   5.252  12.999  0.9181 -0.3133  0.5799
17246TIP3   OH273228   6.754   0.450   5.508 -0.2171  0.8121  0.8419
17246TIP3    H173229   6.717   0.537   5.519 -1.3146  0.2516  1.7574
17246TIP3    H273230   6.709   0.396   5.573  0.0811 -0.5472 -0.0298
17247TIP3   OH273231   4.624   1.663  14.248  0.6071  0.5489 -0.4132
17247TIP3    H173232   4.620   1.715  14.328  0.0852  2.5257 -1.6584
17247TIP3    H273233   4.669   1.582  14.273  0.5573  1.1714  1.8174
17248TIP3   OH273234   1.874   3.188  12.988  0.4129  0.4504  0.5805
17248TIP3    H173235   1.946   3.156  13.041  0.9330  0.5921 -0.0275
17248TIP3    H273236   1.864   3.123  12.918 -0.9593 -0.2958  1.4145
17249TIP3   OH273237   5.804   3.029  12.303  0.7873 -0.5898 -0.2844
17249TIP3    H173238   5.727   2.975  12.322 -0.5288  1.1303 -0.4548
17249TIP3    H273239   5.865   2.970  12.260 -1.0993 -1.6662 -1.6346
17250TIP3   OH273240   4.666   3.003   1.585 -0.0034  0.0492  0.2383
17250TIP3    H173241   4.667   2.998   1.680 -0.0505 -1.5503  0.1790
17250TIP3    H273242   4.601   3.070   1.565 -0.2039  0.1902  1.3111
17251TIP3   OH273243   3.469   0.954   1.408 -0.4661 -0.3081 -0.3006
17251TIP3    H173244   3.406   1.025   1.392  1.1601  1.3088  0.1205
17251TIP3    H273245   3.528   0.958   1.333  0.1889 -0.5935  0.1986
17252TIP3   OH273246   1.664   2.344  12.712 -0.0384 -0.3199 -0.6840
17252TIP3    H173247   1.636   2.259  12.676  1.9297 -1.3943  0.1367
17252TIP3    H273248   1.735   2.372  12.654 -1.7973  1.7193 -1.9932
17253TIP3   OH273249   3.992   1.178   0.044 -0.2355 -0.3189 -0.8154
17253TIP3    H173250   4.079   1.194   0.008  0.2540 -0.5271  0.2438
17253TIP3    H273251   4.008   1.134   0.128 -1.2695  1.9643  0.6579
17254TIP3   OH273252   6.099   1.487   1.261  0.1114  0.0139  0.7860
17254TIP3    H173253   6.160   1.417   1.239 -1.0822 -0.9624  0.4357
17254TIP3    H273254   6.051   1.503   1.179  0.6985  1.5986  0.7272
17255TIP3   OH273255   1.811   1.746  15.095  0.1917 -0.3106  0.2002
17255TIP3    H173256   1.723   1.777  15.070  0.2212  0.7285  1.3046
17255TIP3    H273257   1.822   1.776  15.185  1.1056 -1.7375  0.5904
17256TIP3   OH273258   3.810   5.416   5.016 -0.2797  0.2489 -0.2744
17256TIP3    H173259   3.735   5.469   5.043 -0.5014 -0.3674  0.3619
17256TIP3    H273260   3.883   5.478   5.009 -0.1139  0.4185  2.1638
17257TIP3   OH273261   0.727   4.430   5.293 -0.3158  0.7518 -0.2847
17257TIP3    H173262   0.684   4.433   5.378  1.0868 -0.8807  0.5528
17257TIP3    H273263   0.786   4.505   5.293 -1.5329  1.7513 -0.5675
17258TIP3   OH273264   1.751   0.478   5.366 -0.2552  0.4933 -0.1067
17258TIP3    H173265   1.723   0.470   5.275 -0.3341 -0.0654 -0.0355
17258TIP3    H273266   1.685   0.430   5.416  0.4168 -0.1968  0.1293
17259TIP3   OH273267   3.833   0.150   3.189 -0.2387 -0.5269 -0.3234
17259TIP3    H173268   3.915   0.195   3.171  1.2382 -3.3743 -1.2684
17259TIP3    H273269   3.849   0.099   3.268 -1.9314  0.6619  0.8636
17260TIP3   OH273270   0.114   2.279   4.537 -0.0051  0.4910 -0.3528
17260TIP3    H173271   0.137   2.354   4.593 -0.8962 -1.5380  3.0756
17260TIP3    H273272   0.019   2.281   4.532 -0.0246 -0.2499 -0.4355
17261TIP3   OH273273   5.656   2.034   2.385  0.0522  0.2492 -0.3689
17261TIP3    H173274   5.628   1.968   2.322 -1.2347  0.4483 -0.0303
17261TIP3    H273275   5.678   1.984   2.464 -3.4440  0.2745  0.8204
17262TIP3   OH273276   4.497   5.852   2.980  0.7536  0.7282 -0.3183
17262TIP3    H173277   4.565   5.911   2.948 -0.5916  2.3998 -0.2593
17262TIP3    H273278   4.495   5.866   3.075  1.7573 -0.9435 -0.0123
17263TIP3   OH273279   0.615   2.573  12.853 -0.4512 -0.4905  0.3467
17263TIP3    H173280   0.627   2.667  12.868 -0.1312 -0.3630 -0.6858
17263TIP3    H273281   0.693   2.533  12.891  0.0338 -0.2251 -0.3628
17264TIP3   OH273282   1.736   2.435  13.986  0.1069  0.4342 -0.1374
17264TIP3    H173283   1.730   2.505  13.921  1.2097 -0.2187 -0.9850
17264TIP3    H273284   1.771   2.478  14.065 -0.8696  1.1516 -0.0756
17265TIP3   OH273285   4.237   0.177  11.599 -0.0322 -0.7017  1.1075
17265TIP3    H173286   4.162   0.214  11.645  0.6192  1.4294  0.5684
17265TIP3    H273287   4.201   0.137  11.520 -0.4010  4.1087 -1.4946
17266TIP3   OH273288   0.209   5.764  12.294 -0.5477 -0.3561  0.0113
17266TIP3    H173289   0.227   5.760  12.388  0.3422  1.1238 -0.0712
17266TIP3    H273290   0.142   5.831  12.285  0.9466  1.1102 -0.5837
17267TIP3   OH273291   4.815   6.796   4.368  0.4921 -0.4697 -0.2653
17267TIP3    H173292   4.909   6.815   4.364  0.9405 -2.3532  0.6480
17267TIP3    H273293   4.800   6.735   4.296  0.2519 -1.2674  0.4537
17268TIP3   OH273294   2.746   5.508   3.535 -0.4662  0.4232 -0.0474
17268TIP3    H173295   2.755   5.538   3.625  0.9696  1.6682 -0.5613
17268TIP3    H273296   2.667   5.552   3.502 -0.3884  0.8115  0.2834
17269TIP3   OH273297   2.703   0.116  14.728 -0.1061  0.1925 -0.8038
17269TIP3    H173298   2.611   0.098  14.750  0.2922  0.0284  0.9249
17269TIP3    H273299   2.752   0.082  14.803  1.2664  1.4991 -1.0672
17270TIP3   OH273300   5.384   6.101  14.523  0.8064 -0.2366 -0.4875
17270TIP3    H173301   5.437   6.030  14.487  0.5472 -0.6430 -0.0740
17270TIP3    H273302   5.299   6.092  14.480  0.6434 -0.4333 -0.1279
17271TIP3   OH273303   5.318   0.816   2.518  0.0476 -0.0032  0.1902
17271TIP3    H173304   5.242   0.786   2.567  0.2240 -1.1170 -0.1886
17271TIP3    H273305   5.344   0.741   2.465 -0.4009  1.2639 -1.9721
17272TIP3   OH273306   1.080   2.218  12.804  0.0845  0.2468 -0.0407
17272TIP3    H173307   1.075   2.203  12.898  1.1780 -1.9156 -0.2557
17272TIP3    H273308   1.166   2.258  12.791 -0.3091  1.0881 -0.0705
17273TIP3   OH273309   5.402   2.181   0.897  0.0873  0.1309  0.2179
17273TIP3    H173310   5.439   2.108   0.946  0.1613  0.9319  1.3847
17273TIP3    H273311   5.310   2.157   0.883  0.2854 -0.4981 -0.0447
17274TIP3   OH273312   5.917   3.957   3.485  0.3340  0.0005  0.2533
17274TIP3    H173313   5.894   3.970   3.393 -0.1356  0.4762  0.4309
17274TIP3    H273314   5.902   4.043   3.526 -2.5459 -0.9233  1.4114
17275TIP3   OH273315   0.998   3.873  13.322  0.3692 -0.3709 -0.1215
17275TIP3    H173316   1.093   3.861  13.325  0.6815  1.7746 -0.1759
17275TIP3    H273317   0.982   3.921  13.241 -0.7981 -0.8162 -0.1828
17276TIP3   OH273318   5.556   2.909   4.117  0.2331 -0.8479  0.2739
17276TIP3    H173319   5.559   2.842   4.050  1.6374 -0.2256 -0.3265
17276TIP3    H273320   5.643   2.950   4.115 -0.9481  1.8643 -0.2997
17277TIP3   OH273321   5.399   4.331   6.140 -0.5811  0.1781  0.4208
17277TIP3    H173322   5.427   4.294   6.056  0.1180 -2.9309  1.8767
17277TIP3    H273323   5.303   4.327   6.136 -0.5628  0.2508 -0.3077
17278TIP3   OH273324   3.461   0.869  11.762  0.2736 -0.0833  0.1740
17278TIP3    H173325   3.383   0.891  11.813  2.4808  1.6077  3.1667
17278TIP3    H273326   3.468   0.939  11.697 -1.0478 -0.6450 -0.5933
17279TIP3   OH273327   4.130   4.572   4.965 -0.2179  0.3034 -0.2236
17279TIP3    H173328   4.080   4.539   5.040 -2.2671  2.6323 -0.4412
17279TIP3    H273329   4.183   4.643   5.002  0.4600  0.0033 -0.6065
17280TIP3   OH273330   5.839   5.008  15.902 -0.3851  0.1383 -0.3124
17280TIP3    H173331   5.851   5.103  15.907  0.2661  0.0025  1.4364
17280TIP3    H273332   5.907   4.979  15.841  0.3867  0.6704  0.2633
17281TIP3   OH273333   0.671   0.308  16.911 -0.2847  0.1852  0.2410
17281TIP3    H173334   0.678   0.285  16.818 -1.0466 -0.3374  0.3108
17281TIP3    H273335   0.762   0.311  16.941 -0.0982 -1.2831 -0.1222
17282TIP3   OH273336   0.400   4.756   6.839 -0.1096 -0.0460  0.0860
17282TIP3    H173337   0.487   4.729   6.812 -0.6037  0.2700 -1.9682
17282TIP3    H273338   0.415   4.812   6.916  1.5946  0.7875 -0.8032
17283TIP3   OH273339   0.991   4.247  17.082 -0.8460  0.7499 -0.2519
17283TIP3    H173340   0.954   4.333  17.101 -1.5135  0.2937  0.5445
17283TIP3    H273341   0.957   4.190  17.150  0.7147  0.1326  0.0598
17284TIP3   OH273342   4.730   0.882   1.817  0.5109 -0.0818  0.0472
17284TIP3    H173343   4.648   0.882   1.767 -0.6678  0.5396  1.8853
17284TIP3    H273344   4.764   0.971   1.808 -1.6859  1.2820  3.2577
17285TIP3   OH273345   3.702   5.011   3.876 -0.0311  0.4321  0.1476
17285TIP3    H173346   3.715   5.084   3.937  4.1653 -1.9321  2.5390
17285TIP3    H273347   3.762   5.030   3.803 -0.1778  0.1805 -0.0406
17286TIP3   OH273348   2.892   2.287   5.875  0.2852 -0.2527 -0.3504
17286TIP3    H173349   2.896   2.358   5.939  0.8701 -0.0260 -0.6291
17286TIP3    H273350   2.879   2.208   5.928 -2.0180  0.1945 -0.1375
17287TIP3   OH273351   3.727   6.019  15.500  0.9547  0.4358 -0.3427
17287TIP3    H173352   3.786   6.025  15.576 -1.3780  0.8880  1.5438
17287TIP3    H273353   3.683   6.103  15.497 -0.2425 -0.1986 -1.1374
17288TIP3   OH273354   1.811   1.322  15.046  0.1871  0.1385  0.4458
17288TIP3    H173355   1.783   1.308  15.137 -1.3990  1.3019  0.1697
17288TIP3    H273356   1.877   1.391  15.052 -0.3838  0.6778  0.6761
17289TIP3   OH273357   2.738   3.970  17.059  0.3391  0.1976  0.2242
17289TIP3    H173358   2.642   3.974  17.049  0.1755 -1.2494  0.9748
17289TIP3    H273359   2.752   3.957  17.153  1.3567  1.7034  0.3218
17290TIP3   OH273360   6.594   2.316  16.178  0.1331 -0.1551  0.2266
17290TIP3    H173361   6.545   2.314  16.261  2.0835 -1.7912  1.4388
17290TIP3    H273362   6.644   2.397  16.182  2.1946 -1.3790  2.0079
17291TIP3   OH273363   6.684   5.956  12.931 -0.0126  0.0672  0.3606
17291TIP3    H173364   6.704   5.904  12.853 -0.6572  0.3225  0.0222
17291TIP3    H273365   6.623   5.901  12.981 -0.2582  0.2610  0.2741
17292TIP3   OH273366   0.065   3.275  15.114  0.4570 -0.2410  0.2033
17292TIP3    H173367   0.026   3.252  15.030 -1.8829  0.3685  1.0352
17292TIP3    H273368   0.089   3.368  15.105  0.6326 -0.2985  0.0728
17293TIP3   OH273369   2.023   6.050   0.278 -0.4045 -0.3870 -0.0133
17293TIP3    H173370   1.986   6.131   0.242  0.7334 -0.7042 -2.0290
17293TIP3    H273371   2.057   6.076   0.363 -2.2804  0.6496  0.4989
17294TIP3   OH273372   1.905   2.395   0.781 -0.2010  0.5633 -0.5581
17294TIP3    H173373   1.977   2.401   0.719 -0.2363  0.2495 -0.6319
17294TIP3    H273374   1.932   2.450   0.855  0.1512  0.3786 -0.5480
17295TIP3   OH273375   4.827   5.861   3.044  0.6582 -0.0672 -0.2752
17295TIP3    H173376   4.776   5.932   3.005  0.5127 -0.5441 -0.9874
17295TIP3    H273377   4.766   5.787   3.044  0.0992  0.3043  2.3799
17296TIP3   OH273378   0.446   4.738  11.923 -0.2870  0.4838 -0.0590
17296TIP3    H173379   0.405   4.818  11.888 -0.7301 -0.4919 -1.8936
17296TIP3    H273380   0.472   4.689  11.845 -0.8760 -1.6084  0.9873
17297TIP3   OH273381   1.591   4.633  13.261 -0.5234  0.1588 -0.0002
17297TIP3    H173382   1.512   4.647  13.208 -0.8202 -1.3796  0.0061
17297TIP3    H273383   1.662   4.626  13.197 -0.4484  0.9922 -0.0306
17298TIP3   OH273384   3.365   0.151  17.069 -0.1194  0.0601  0.1262
17298TIP3    H173385   3.289   0.136  17.125 -0.1769  0.4545  0.1542
17298TIP3    H273386   3.359   0.083  17.002 -1.4461  1.1381 -0.8959
17299TIP3   OH273387   0.707   5.465   0.264 -0.3831 -0.1070 -0.4626
17299TIP3    H173388   0.749   5.549   0.280 -1.1006  0.2799 -0.6176
17299TIP3    H273389   0.768   5.401   0.302 -0.7203  0.5971  1.3786
17300TIP3   OH273390   5.933   4.715  13.227 -0.7573  0.4009  0.4956
17300TIP3    H173391   6.014   4.664  13.230 -1.3916 -0.5792  1.2656
17300TIP3    H273392   5.935   4.756  13.140 -0.3471 -1.1212 -0.2457
17301TIP3   OH273393   2.329   5.297  16.000 -0.3958  0.4601  0.3030
17301TIP3    H173394   2.255   5.279  16.058 -0.3182 -1.1726 -0.0327
17301TIP3    H273395   2.288   5.333  15.921 -0.9307 -0.8598 -0.0601
17302TIP3   OH273396   0.595   0.172  16.176 -0.4205 -0.2049 -0.6364
17302TIP3    H173397   0.525   0.147  16.236 -0.0085 -0.6308 -0.3397
17302TIP3    H273398   0.561   0.150  16.089 -0.4440 -0.8940 -0.4509
17303TIP3   OH273399   3.131   5.057   3.992 -0.1092 -0.3991 -0.1469
17303TIP3    H173400   3.103   5.149   3.990 -1.1619 -0.7151 -0.4376
17303TIP3    H273401   3.219   5.060   4.030 -0.1418  0.7253 -0.1224
17304TIP3   OH273402   0.633   3.170  15.616  0.4818  0.0372  0.3388
17304TIP3    H173403   0.539   3.166  15.632  0.5128  0.7954  0.7273
17304TIP3    H273404   0.664   3.244  15.668  1.2954 -0.1998  0.2111
17305TIP3   OH273405   0.653   5.457   3.168  0.2102  0.3273 -0.1991
17305TIP3    H173406   0.602   5.382   3.199  0.8075 -0.3260 -0.7444
17305TIP3    H273407   0.668   5.440   3.075 -0.1346  1.4218 -0.4666
17306TIP3   OH273408   0.371   2.896   4.192  0.4948 -0.0402  0.1937
17306TIP3    H173409   0.425   2.831   4.148  1.2070  0.7157 -0.0712
17306TIP3    H273410   0.312   2.928   4.123  0.4589 -0.0661  0.2121
17307TIP3   OH273411   6.662   5.338   5.840 -0.0146  0.3242 -1.0508
17307TIP3    H173412   6.692   5.328   5.930  0.3617 -0.1364 -1.2256
17307TIP3    H273413   6.623   5.425   5.838 -2.5675 -0.6714  0.2920
17308TIP3   OH273414   4.900   3.540   4.337  0.0099 -0.1381 -0.3845
17308TIP3    H173415   4.846   3.589   4.399  1.7020 -0.3444  1.3377
17308TIP3    H273416   4.853   3.458   4.324 -0.3834 -0.0938  0.6562
17309TIP3   OH273417   4.045   2.675  12.287  0.4906 -0.3830  0.4279
17309TIP3    H173418   4.025   2.602  12.346 -0.2609 -1.9106 -1.5917
17309TIP3    H273419   3.961   2.719  12.274  0.6313 -0.1236  0.3883
17310TIP3   OH273420   0.564   3.515  12.508  0.1029  0.0558 -0.7709
17310TIP3    H173421   0.508   3.482  12.578  0.3982  1.2353  0.0554
17310TIP3    H273422   0.648   3.473  12.523  0.4792  1.1336  0.2789
17311TIP3   OH273423   6.503   2.135  10.870  0.4090  0.1201 -0.6643
17311TIP3    H173424   6.595   2.108  10.873  0.5038  0.5481  0.4155
17311TIP3    H273425   6.505   2.230  10.878 -0.1347  0.1380 -0.6888
17312TIP3   OH273426   2.635   3.628  10.870 -0.5222  0.2583 -0.7325
17312TIP3    H173427   2.604   3.646  10.958  1.6912 -1.3873  0.4776
17312TIP3    H273428   2.651   3.714  10.832 -3.7248  1.0850 -0.4802
17313TIP3   OH273429   6.031   1.028   3.565 -0.7491 -0.5412 -0.2542
17313TIP3    H173430   6.004   1.093   3.629 -3.3092  0.4338 -2.1495
17313TIP3    H273431   6.021   0.944   3.609 -1.6599  0.1324  0.8583
17314TIP3   OH273432   3.996   0.554  16.476 -0.1279 -0.1131  0.1131
17314TIP3    H173433   3.944   0.482  16.511  1.4111 -1.0802  0.5060
17314TIP3    H273434   4.029   0.521  16.392  0.0327  0.3997 -0.0293
17315TIP3   OH273435   0.141   1.467  16.050  0.7339  0.0933 -0.1441
17315TIP3    H173436   0.095   1.388  16.020 -1.1244  1.0752 -0.0243
17315TIP3    H273437   0.161   1.515  15.969  0.1352  0.4081 -0.1071
17316TIP3   OH273438   0.124   3.890  11.984  0.2622  0.4150 -0.0092
17316TIP3    H173439   0.040   3.933  11.999  1.1632  2.4223 -0.3087
17316TIP3    H273440   0.181   3.925  12.052  0.6008 -1.8441  0.9601
17317TIP3   OH273441   1.854   5.194  11.321  0.3779  0.7788 -0.0989
17317TIP3    H173442   1.818   5.109  11.297 -0.7587  1.2118  0.0114
17317TIP3    H273443   1.945   5.191  11.291  0.4215 -0.5535  0.1141
17318TIP3   OH273444   1.257   3.744  11.010  0.6411 -0.5662  0.0126
17318TIP3    H173445   1.288   3.699  10.932  1.6491 -4.5088  2.4329
17318TIP3    H273446   1.335   3.786  11.046 -0.1182  2.7350 -1.7075
17319TIP3   OH273447   1.713   1.980  11.082 -0.0661  0.2176 -0.8409
17319TIP3    H173448   1.671   1.972  10.997 -0.7907 -0.5108 -0.4340
17319TIP3    H273449   1.642   1.970  11.145  0.4655  0.6842 -0.1458
17320TIP3   OH273450   4.832   3.503  13.860 -0.4359 -0.1893  0.5990
17320TIP3    H173451   4.917   3.466  13.884 -0.2639  0.2605  0.6778
17320TIP3    H273452   4.778   3.490  13.938  0.0283  0.9719  1.1357
17321TIP3   OH273453   1.206   2.640  11.123  0.0390  0.4737 -0.4240
17321TIP3    H173454   1.208   2.696  11.045  1.1945  0.2297 -0.5845
17321TIP3    H273455   1.180   2.699  11.194 -0.2182  0.8804 -0.8477
17322TIP3   OH273456   6.384   0.040  12.517  0.6409  0.6138  0.6405
17322TIP3    H173457   6.376  -0.000  12.604 -0.3598  0.8174  0.6500
17322TIP3    H273458   6.478   0.036  12.498  0.7230 -0.5822  1.1836
17323TIP3   OH273459   5.233   6.801  14.877 -0.1186  0.2693  0.0271
17323TIP3    H173460   5.207   6.711  14.862 -0.4898  0.6183 -1.5369
17323TIP3    H273461   5.211   6.817  14.969 -0.0214 -1.2182  0.3311
17324TIP3   OH273462   4.769   6.030   5.284  0.2436  0.0009 -0.4038
17324TIP3    H173463   4.739   5.941   5.303 -0.4465 -0.0190 -1.4858
17324TIP3    H273464   4.768   6.074   5.368  0.7126 -1.0458  0.1751
17325TIP3   OH273465   6.402   0.582  12.217  0.6703 -0.1537  0.3560
17325TIP3    H173466   6.350   0.557  12.140 -0.2040  2.6867 -0.0663
17325TIP3    H273467   6.474   0.519  12.217 -0.4411 -1.5479 -1.5480
17326TIP3   OH273468   4.607   0.762   6.138  0.0014 -0.5145  0.4065
17326TIP3    H173469   4.702   0.750   6.144  0.1055 -0.3750 -0.6394
17326TIP3    H273470   4.571   0.676   6.158  0.3744 -0.6743  0.4138
17327TIP3   OH273471   0.888   5.243   4.106  0.1355  0.4411 -1.0550
17327TIP3    H173472   0.818   5.267   4.045 -1.2790 -1.4490 -0.2726
17327TIP3    H273473   0.958   5.211   4.049  0.2882  2.0525 -1.8355
17328TIP3   OH273474   2.529   1.927   3.551 -0.6915  0.1264  0.4346
17328TIP3    H173475   2.584   1.905   3.477 -1.8401  0.1919 -0.4715
17328TIP3    H273476   2.493   2.014   3.529  0.8474  1.2954  2.2058
17329TIP3   OH273477   4.145   4.709  11.434 -0.0510 -0.5191 -0.4699
17329TIP3    H173478   4.184   4.681  11.517 -2.5426  0.8570  1.3123
17329TIP3    H273479   4.121   4.627  11.391 -2.1748 -1.4020  2.0557
17330TIP3   OH273480   3.996   2.459   3.938 -0.3531  0.7000  0.2406
17330TIP3    H173481   3.995   2.415   3.853 -2.2683 -0.6774  0.9126
17330TIP3    H273482   4.089   2.465   3.961  0.0818 -0.8107 -0.9991
17331TIP3   OH273483   0.242   5.613  13.404 -0.5725 -0.0795 -0.0597
17331TIP3    H173484   0.335   5.624  13.427 -0.8098  2.5640  0.0127
17331TIP3    H273485   0.229   5.670  13.328 -2.6749  1.8815  1.6249
17332TIP3   OH273486   6.410   0.560  12.655 -0.1647 -0.1813  0.0089
17332TIP3    H173487   6.409   0.475  12.700 -2.3414 -1.4647 -2.1658
17332TIP3    H273488   6.319   0.572  12.625  0.2416  2.6095 -0.3407
17333TIP3   OH273489   4.622   2.179   5.764  0.2446 -0.1349 -0.3532
17333TIP3    H173490   4.706   2.180   5.810 -0.4161 -0.1289  0.9054
17333TIP3    H273491   4.563   2.228   5.821 -1.0846 -1.7530 -0.2548
17334TIP3   OH273492   2.745   1.307   2.995  0.0616  0.1236  0.2009
17334TIP3    H173493   2.682   1.358   2.944 -1.1471 -1.0526  0.4647
17334TIP3    H273494   2.830   1.339   2.966 -0.6334  1.5243 -0.4182
17335TIP3   OH273495   1.524   5.497   0.396  0.0119 -0.2403  0.1741
17335TIP3    H173496   1.578   5.418   0.401  0.5765  0.0832 -0.6467
17335TIP3    H273497   1.511   5.511   0.302  0.5141  1.0377  0.2742
17336TIP3   OH273498   5.023   4.831   2.648  0.1494  0.2246  0.4927
17336TIP3    H173499   5.101   4.791   2.611  0.3245  1.6727 -0.8130
17336TIP3    H273500   4.962   4.836   2.575 -1.0197 -0.4765  1.3925
17337TIP3   OH273501   3.235   2.035  13.066  0.2687 -0.1952  0.2561
17337TIP3    H173502   3.193   2.096  13.126 -1.0603 -1.0232  0.2189
17337TIP3    H273503   3.214   2.068  12.978  1.0961  0.2908  0.2363
17338TIP3   OH273504   0.858   6.419   1.226 -0.7285 -0.4553  0.2727
17338TIP3    H173505   0.949   6.407   1.201 -0.5357 -0.3813  0.9440
17338TIP3    H273506   0.840   6.348   1.288 -0.8680  0.0675  0.8313
17339TIP3   OH273507   5.320   0.980   3.674 -0.4026  0.4779 -0.0029
17339TIP3    H173508   5.254   0.922   3.634 -0.0291 -0.3185  0.5115
17339TIP3    H273509   5.332   0.945   3.762 -1.2819  2.2656  0.8669
17340TIP3   OH273510   0.992   2.306   1.103 -0.1309 -0.1012 -0.4275
17340TIP3    H173511   1.070   2.293   1.157 -1.1496 -0.3019  1.0435
17340TIP3    H273512   1.026   2.309   1.014  1.2474 -3.6297 -0.2051
17341TIP3   OH273513   1.371   0.036   3.679  0.1529 -0.2002  0.2397
17341TIP3    H173514   1.393   0.046   3.587  0.6159  2.2671  0.5556
17341TIP3    H273515   1.275   0.027   3.681  0.0313  0.8106 -0.4424
17342TIP3   OH273516   6.548   6.679   3.738  0.0164  0.1091  0.7832
17342TIP3    H173517   6.601   6.745   3.693 -0.1452  1.4022  2.3821
17342TIP3    H273518   6.609   6.609   3.758  0.4666  0.2904  0.1079
17343TIP3   OH273519   1.124   3.337  14.396 -0.0748  0.5391 -0.4056
17343TIP3    H173520   1.110   3.268  14.461  0.3095  1.1715  0.3642
17343TIP3    H273521   1.196   3.389  14.432 -0.8222  1.7541 -0.6243
17344TIP3   OH273522   3.138   1.518  12.522  0.2806  0.4397  0.1736
17344TIP3    H173523   3.071   1.470  12.572  0.7087 -1.6413 -1.1453
17344TIP3    H273524   3.088   1.568  12.458 -0.0972 -0.1359  0.0059
17345TIP3   OH273525   6.675   3.551  13.026  0.0695  0.2744 -0.2717
17345TIP3    H173526   6.729   3.560  13.105 -0.6045  1.8972  0.0510
17345TIP3    H273527   6.688   3.461  12.998 -0.6580 -0.7875  2.4356
17346TIP3   OH273528   2.115   2.301   2.259  0.2494 -0.5632 -0.4019
17346TIP3    H173529   2.137   2.261   2.344  0.6466  0.0427 -0.2117
17346TIP3    H273530   2.090   2.227   2.204 -0.6025 -0.9106  0.4190
17347TIP3   OH273531   5.892   1.884   3.765 -0.7493  0.4719  0.3622
17347TIP3    H173532   5.945   1.930   3.700 -1.3059  0.5083 -0.0721
17347TIP3    H273533   5.866   1.953   3.827 -3.0214  1.1368 -1.2219
17348TIP3   OH273534   4.252   5.613  15.045  0.2213 -0.2488  0.3076
17348TIP3    H173535   4.228   5.526  15.013 -1.0452  0.2254 -0.1098
17348TIP3    H273536   4.329   5.598  15.100 -0.0324 -1.6395  0.3272
17349TIP3   OH273537   5.615   6.390   3.351 -0.6139 -0.3669  0.2606
17349TIP3    H173538   5.631   6.462   3.291 -1.6071 -1.5304 -1.4849
17349TIP3    H273539   5.692   6.334   3.343 -1.3611 -1.2518 -1.0809
17350TIP3   OH273540   1.566   2.127   2.662 -0.0239 -0.6338 -0.3065
17350TIP3    H173541   1.536   2.037   2.649 -1.0294 -0.5083  0.9294
17350TIP3    H273542   1.594   2.130   2.754  1.2053  0.0007 -0.6744
17351TIP3   OH273543   1.173   1.304  16.985 -0.6681 -0.3903  0.1357
17351TIP3    H173544   1.221   1.348  16.915 -2.6480  0.6616 -0.6161
17351TIP3    H273545   1.221   1.327  17.065 -0.7132  1.8143 -0.4118
17352TIP3   OH273546   0.429   2.214  16.216  0.3312  0.0137 -0.5345
17352TIP3    H173547   0.408   2.212  16.309 -1.7124  1.4364 -0.8846
17352TIP3    H273548   0.441   2.123  16.192 -0.4066 -0.4933  0.8759
17353TIP3   OH273549   1.334   2.413  16.010 -0.3881 -0.3278 -0.4540
17353TIP3    H173550   1.356   2.325  15.978  0.8307 -0.2616  0.1621
17353TIP3    H273551   1.240   2.422  15.992 -0.4278 -1.5664 -0.9602
17354TIP3   OH273552   0.541   3.232  16.159 -0.1023  0.0071 -0.3094
17354TIP3    H173553   0.561   3.203  16.070 -0.5705 -0.1615 -0.3608
17354TIP3    H273554   0.584   3.167  16.215 -0.6686 -0.4766 -0.4219
17355TIP3   OH273555   0.889   5.690   3.788 -0.0266  0.2786 -0.3614
17355TIP3    H173556   0.948   5.630   3.834  0.8061  0.2746 -1.3941
17355TIP3    H273557   0.922   5.777   3.810 -0.5541  0.3284  0.2476
17356TIP3   OH273558   4.228   0.127  10.955  0.0176  0.0020 -0.3441
17356TIP3    H173559   4.190   0.215  10.951  0.6005  0.3631  1.1534
17356TIP3    H273560   4.303   0.137  11.014 -0.2363 -1.6063  0.2890
17357TIP3   OH273561   2.549   3.137  12.009 -0.3457  0.0388  0.4631
17357TIP3    H173562   2.608   3.184  12.068  0.7253  0.1290 -0.6279
17357TIP3    H273563   2.581   3.047  12.010  0.1041  0.1690 -0.4340
17358TIP3   OH273564   4.156   2.713   0.074  0.1224  0.6934 -0.0649
17358TIP3    H173565   4.197   2.697  -0.011 -1.1074 -0.4838 -0.4713
17358TIP3    H273566   4.062   2.710   0.057 -0.2712 -2.5181  1.7436
17359TIP3   OH273567   1.215   0.466   3.095 -0.0557 -0.6775  0.2112
17359TIP3    H173568   1.261   0.535   3.143 -0.8231 -0.4494  0.6554
17359TIP3    H273569   1.165   0.513   3.028 -0.8983 -0.7446  0.7758
17360TIP3   OH273570   4.604   2.329  11.620 -0.5780 -0.2596  1.0808
17360TIP3    H173571   4.544   2.254  11.617 -1.0345 -0.0067  2.7978
17360TIP3    H273572   4.679   2.301  11.567 -0.4914 -2.1755  2.0992
17361TIP3   OH273573   1.942   6.067  10.839  0.1075 -0.2997 -0.7855
17361TIP3    H173574   2.024   6.087  10.793 -0.0850 -2.5466 -2.2445
17361TIP3    H273575   1.907   6.153  10.864  1.7040  0.8391 -2.2457
17362TIP3   OH273576   3.525   5.426   1.455  0.3961 -0.4174 -0.4862
17362TIP3    H173577   3.578   5.362   1.407  1.6457  0.7898 -0.7754
17362TIP3    H273578   3.556   5.419   1.545  0.5666 -0.1956 -0.5268
17363TIP3   OH273579   2.465   4.827  17.203 -0.0290 -0.4478  0.1089
17363TIP3    H173580   2.485   4.735  17.187 -0.0135 -0.1758 -1.5818
17363TIP3    H273581   2.546   4.862  17.241  0.0217 -1.0823  0.6077
17364TIP3   OH273582   1.502   0.936   4.687  0.9345 -0.0844 -0.8037
17364TIP3    H173583   1.460   0.968   4.607 -0.2582  0.9657  0.1953
17364TIP3    H273584   1.430   0.899   4.738  1.0696  1.9696  1.0533
17365TIP3   OH273585   2.503   2.194  13.843 -0.1194  0.0871 -0.5986
17365TIP3    H173586   2.421   2.218  13.887 -1.2842 -2.4344 -1.2397
17365TIP3    H273587   2.491   2.224  13.753 -0.4681 -0.5426 -0.7635
17366TIP3   OH273588   6.137   6.768   0.074 -0.4882 -0.1637 -0.0426
17366TIP3    H173589   6.104   6.704   0.011 -1.3223  0.1516  0.0680
17366TIP3    H273590   6.089   6.749   0.155  0.8010 -0.7821  0.6148
17367TIP3   OH273591   4.668   6.615  13.552 -0.4330 -0.3417  0.0663
17367TIP3    H173592   4.602   6.653  13.610  0.4235 -0.7612  1.3763
17367TIP3    H273593   4.751   6.651  13.584  0.0103 -0.0690 -1.3381
17368TIP3   OH273594   5.131   5.963   2.973 -0.1698  0.5581 -0.0920
17368TIP3    H173595   5.052   5.927   3.013  0.3407 -1.1720 -0.5448
17368TIP3    H273596   5.198   5.956   3.041  0.7346 -2.5191 -1.1558
17369TIP3   OH273597   2.492   6.169  16.531 -0.6721 -0.4042 -0.0550
17369TIP3    H173598   2.569   6.207  16.488 -2.5121  0.9303 -2.5044
17369TIP3    H273599   2.526   6.125  16.608  2.3534  1.3412 -0.2281
17370TIP3   OH273600   4.643   6.446  17.138 -0.1131 -0.5353 -0.1089
17370TIP3    H173601   4.724   6.440  17.189  0.2377  1.0837 -0.4019
17370TIP3    H273602   4.627   6.540  17.130 -1.2969 -0.7994 -1.2087
17371TIP3   OH273603   0.423   6.342   0.617 -0.6934  0.1749  0.7839
17371TIP3    H173604   0.370   6.268   0.648 -0.1098 -0.5265  0.1259
17371TIP3    H273605   0.451   6.386   0.697  0.0420 -1.0906  1.2452
17372TIP3   OH273606   1.755   5.499  17.071  0.4362 -0.2529 -0.0142
17372TIP3    H173607   1.845   5.532  17.067  0.5259 -0.0550  2.0933
17372TIP3    H273608   1.748   5.463  17.160 -1.3840 -0.8092 -0.3608
17373TIP3   OH273609   5.160   4.577   0.245  0.2753 -0.3388  0.3603
17373TIP3    H173610   5.130   4.628   0.320 -0.3680 -0.3204  0.1056
17373TIP3    H273611   5.152   4.486   0.273  0.9925 -0.3153  0.6575
17374TIP3   OH273612   2.666   1.975   6.071 -0.0013  0.1643  0.3537
17374TIP3    H173613   2.631   1.941   6.154  1.3904 -1.3404  0.3777
17374TIP3    H273614   2.733   2.038   6.098 -1.9295  2.3439  0.3093
17375TIP3   OH273615   4.854   2.346  11.483 -0.1090 -0.1169 -0.2464
17375TIP3    H173616   4.849   2.372  11.391  0.6141  1.3713  0.1074
17375TIP3    H273617   4.943   2.366  11.510 -0.1936 -0.8951  0.6946
17376TIP3   OH273618   2.317   5.462   0.527  0.1131 -0.0402  0.0745
17376TIP3    H173619   2.277   5.524   0.466 -0.3891 -1.9469 -1.6425
17376TIP3    H273620   2.246   5.438   0.587  0.3224  1.0302  0.7769
17377TIP3   OH273621   0.307   0.835  15.676 -0.3511  0.3064 -0.3682
17377TIP3    H173622   0.334   0.743  15.679 -0.0127  0.1729 -3.4633
17377TIP3    H273623   0.216   0.835  15.704 -0.1977 -0.8876  0.1936
17378TIP3   OH273624   6.272   5.774   6.064  0.7803  0.4311 -0.1294
17378TIP3    H173625   6.294   5.685   6.090  0.1077  0.7958  1.9102
17378TIP3    H273626   6.250   5.768   5.971  1.3935 -1.3895 -0.1832
17379TIP3   OH273627   2.241   3.222  12.607 -0.0801 -0.2506  0.9724
17379TIP3    H173628   2.265   3.303  12.561 -1.4232  2.0866  3.9943
17379TIP3    H273629   2.168   3.248  12.663 -1.9815 -4.1487  0.6310
17380TIP3   OH273630   3.999   0.880  15.412  0.5723  0.0092  0.0212
17380TIP3    H173631   4.048   0.962  15.399 -0.1600  0.6628  1.2477
17380TIP3    H273632   4.063   0.820  15.451  0.7064  0.5062  0.5847
17381TIP3   OH273633   3.857   2.651  12.965 -0.0362 -0.4072  0.9867
17381TIP3    H173634   3.774   2.671  12.922  0.2014  0.4686  0.9175
17381TIP3    H273635   3.856   2.556  12.977 -0.2136 -0.6607 -0.7482
17382TIP3   OH273636   2.136   5.584   0.346  0.0222 -0.1526 -0.1565
17382TIP3    H173637   2.071   5.641   0.387 -0.1649 -0.7041  0.3264
17382TIP3    H273638   2.180   5.640   0.282  0.4874  0.7981  0.9551
17383TIP3   OH273639   3.877   4.964   2.466  0.2885 -0.2167  0.1990
17383TIP3    H173640   3.937   4.930   2.533 -0.0260 -1.7214 -0.2350
17383TIP3    H273641   3.932   4.985   2.392  0.4924  0.2441  0.4784
17384TIP3   OH273642   2.577   6.696   3.139 -0.0892  0.2232  0.1710
17384TIP3    H173643   2.667   6.695   3.172 -0.8172 -0.1504  2.3473
17384TIP3    H273644   2.526   6.730   3.213 -1.7700  0.1488 -0.9188
17385TIP3   OH273645   0.432   5.159  16.009  0.0482  0.2973  0.4133
17385TIP3    H173646   0.384   5.083  15.975  0.3335  0.4883 -0.4402
17385TIP3    H273647   0.367   5.229  16.014  0.0874  0.3683 -0.0893
17386TIP3   OH273648   3.465   0.077  12.328 -0.3125  0.5251  0.3659
17386TIP3    H173649   3.494   0.117  12.246 -0.4826  2.6263  1.2678
17386TIP3    H273650   3.370   0.090  12.328 -0.3332  0.3689  0.7997
17387TIP3   OH273651   2.060   3.674   4.747 -0.0839 -0.3249 -0.4673
17387TIP3    H173652   2.074   3.673   4.841 -1.9737 -1.1853 -0.1528
17387TIP3    H273653   2.068   3.766   4.722 -1.9299  0.2679  0.9532
17388TIP3   OH273654   1.331   0.728  16.174  0.4085 -0.2487  0.4861
17388TIP3    H173655   1.426   0.725  16.183  0.3033 -0.9830  1.4141
17388TIP3    H273656   1.301   0.776  16.251 -0.0152 -0.4586  0.4522
17389TIP3   OH273657   3.124   4.799   2.747  0.0329  0.4474 -0.8230
17389TIP3    H173658   3.083   4.755   2.673  0.6665 -2.1339  0.2681
17389TIP3    H273659   3.195   4.850   2.708  0.3874 -0.9078 -2.0203
17390TIP3   OH273660   2.209   1.982  13.017 -0.2222 -0.4954  0.3611
17390TIP3    H173661   2.291   1.938  12.996  0.0899  0.3839 -0.3303
17390TIP3    H273662   2.234   2.073  13.033 -0.9086 -0.4714  1.3662
17391TIP3   OH273663   3.648   1.977   3.490 -0.0411  0.0285 -0.6049
17391TIP3    H173664   3.706   1.924   3.435  1.3245 -0.5819  1.3049
17391TIP3    H273665   3.590   1.914   3.532 -1.2565  0.5173 -1.4882
17392TIP3   OH273666   2.699   1.140   0.827 -0.9773 -0.2734  0.2189
17392TIP3    H173667   2.777   1.090   0.852  1.5030  3.2599  0.3768
17392TIP3    H273668   2.650   1.149   0.909 -0.3755 -0.6429  0.6299
17393TIP3   OH273669   6.152   4.842   1.076 -0.2275  0.0422 -0.0415
17393TIP3    H173670   6.069   4.889   1.068 -0.8968 -1.1176 -0.0249
17393TIP3    H273671   6.129   4.750   1.069  0.9911 -0.3286  0.5310
17394TIP3   OH273672   2.161   2.076   2.092  0.3894  0.3453 -0.0641
17394TIP3    H173673   2.155   2.030   2.176 -0.3695  1.6737  0.6293
17394TIP3    H273674   2.205   2.013   2.035  0.0212 -0.9808  1.0350
17395TIP3   OH273675   2.098   3.817  12.476 -0.1064  0.2680 -0.6027
17395TIP3    H173676   2.175   3.810  12.419  1.5436  0.0263  1.5372
17395TIP3    H273677   2.047   3.738  12.456  1.9599 -1.3977  0.3149
17396TIP3   OH273678   1.944   2.672  16.886 -0.2067 -0.2652  0.2314
17396TIP3    H173679   2.006   2.680  16.958  0.2134 -0.1340 -0.1408
17396TIP3    H273680   1.904   2.759  16.880  1.9183  0.6845 -1.6094
17397TIP3   OH273681   4.100   2.726   4.167 -0.2510  0.2845  0.1762
17397TIP3    H173682   4.168   2.778   4.126 -0.6050 -0.2619 -1.1681
17397TIP3    H273683   4.018   2.768   4.141 -0.4768  0.1356  0.6269
17398TIP3   OH273684   3.738   5.839   0.906  0.3702  0.1646  0.4688
17398TIP3    H173685   3.705   5.754   0.935  0.7315  0.1765  0.9196
17398TIP3    H273686   3.818   5.853   0.957  0.4180  0.6858  0.2590
17399TIP3   OH273687   2.801   0.634  16.845 -0.1299  0.2676  0.4056
17399TIP3    H173688   2.722   0.676  16.812 -1.3414 -1.5890  0.7959
17399TIP3    H273689   2.873   0.685  16.807 -1.4454  2.8333  1.0721
17400TIP3   OH273690   1.039   2.580   1.633  0.3693  0.1474  0.0850
17400TIP3    H173691   0.996   2.499   1.660  0.6760  0.3314  1.1730
17400TIP3    H273692   1.110   2.552   1.576 -0.1298 -0.2777 -0.3343
17401TIP3   OH273693   3.635   3.988   0.601 -0.3071  0.0068 -0.7254
17401TIP3    H173694   3.588   3.907   0.581 -1.4368  0.6709 -0.8469
17401TIP3    H273695   3.687   3.967   0.679  0.0229 -1.0514 -1.2133
17402TIP3   OH273696   5.702   4.907   4.222  0.3055 -0.1065  0.0921
17402TIP3    H173697   5.689   5.002   4.217 -3.2031 -0.4796 -0.6386
17402TIP3    H273698   5.691   4.877   4.132  0.8846 -1.2655  0.3911
17403TIP3   OH273699   3.657   6.588   0.158  0.0345 -0.0831  0.2471
17403TIP3    H173700   3.695   6.674   0.175 -0.4566  0.0090  0.8958
17403TIP3    H273701   3.667   6.576   0.063 -1.8392  1.6472 -0.2427
17404TIP3   OH273702   2.502   5.103  14.315  1.0079 -0.3505  0.0307
17404TIP3    H173703   2.555   5.167  14.267 -1.7963  0.7364 -1.8482
17404TIP3    H273704   2.422   5.150  14.339 -0.0946 -2.4766  0.8275
17405TIP3   OH273705   3.524   3.396  13.543  0.6797  0.0753  0.0242
17405TIP3    H173706   3.520   3.301  13.553  0.8794  0.1772  1.1263
17405TIP3    H273707   3.602   3.423  13.593 -0.0421  0.9413  0.7117
17406TIP3   OH273708   1.547   1.959  10.858 -0.0590 -0.1943 -0.2438
17406TIP3    H173709   1.535   1.872  10.819  1.4624 -1.0390  1.0497
17406TIP3    H273710   1.467   1.973  10.908 -0.3821 -0.7906 -0.5756
17407TIP3   OH273711   0.862   0.623  14.488 -0.5968 -0.1146 -0.6642
17407TIP3    H173712   0.786   0.664  14.529 -0.0834 -0.4580  0.6857
17407TIP3    H273713   0.937   0.670  14.524 -0.1588  0.1101 -1.8524
17408TIP3   OH273714   3.165   5.682  12.558  0.4586 -0.5095 -0.3290
17408TIP3    H173715   3.092   5.651  12.504  1.5410  0.1644 -2.2654
17408TIP3    H273716   3.215   5.603  12.578 -0.3283 -0.8617  0.3304
17409TIP3   OH273717   2.194   2.569   1.813 -0.5807  0.1651  0.1381
17409TIP3    H173718   2.209   2.648   1.864  0.8674 -0.2136  0.3516
17409TIP3    H273719   2.226   2.498   1.869  1.7633 -0.1994 -1.5206
17410TIP3   OH273720   6.224   4.531   4.968 -0.3091  0.5443 -0.2696
17410TIP3    H173721   6.212   4.493   5.056 -1.1658 -0.8666 -0.9613
17410TIP3    H273722   6.203   4.624   4.979  0.5661  0.6002  1.2129
17411TIP3   OH273723   1.676   4.202  16.986  0.2221 -0.1538  0.5690
17411TIP3    H173724   1.665   4.241  17.073  0.8684  2.4033 -0.4386
17411TIP3    H273725   1.766   4.222  16.961  0.0867 -0.9614 -0.6716
17412TIP3   OH273726   1.414   4.872  16.008 -0.4327  0.2752 -0.4860
17412TIP3    H173727   1.356   4.925  15.953 -0.0384  2.4427  1.0394
17412TIP3    H273728   1.356   4.819  16.062 -0.8507 -0.5886 -1.7401
17413TIP3   OH273729   3.063   1.088  16.615  0.4765  0.6452 -0.3516
17413TIP3    H173730   3.144   1.064  16.569 -0.0648 -0.8349 -0.5780
17413TIP3    H273731   3.027   1.005  16.644 -0.3015  1.3977  0.9077
17414TIP3   OH273732   2.583   4.969   5.156 -0.8671 -0.6124  0.1332
17414TIP3    H173733   2.492   4.996   5.174 -1.9127 -1.6777 -2.9029
17414TIP3    H273734   2.591   4.884   5.199 -0.4932  0.4176  2.2499
17415TIP3   OH273735   5.934   4.752  16.419 -0.8650  0.0883  0.0708
17415TIP3    H173736   5.968   4.745  16.330 -0.8917  0.0971  0.0600
17415TIP3    H273737   5.952   4.842  16.445 -0.2163 -0.1037  0.3288
17416TIP3   OH273738   4.918   4.151   5.359 -0.2900  0.5841  0.7214
17416TIP3    H173739   4.891   4.233   5.400 -2.4541 -0.2999  1.1830
17416TIP3    H273740   4.900   4.084   5.425  0.2844 -0.4046 -0.0930
17417TIP3   OH273741   2.701   1.911  14.039 -0.3226 -0.2525  0.7411
17417TIP3    H173742   2.795   1.911  14.057 -0.2549 -1.4007  0.4617
17417TIP3    H273743   2.660   1.887  14.122 -0.3355 -0.2312  0.7412
17418TIP3   OH273744   5.230   1.614  13.179 -0.0003  0.2451 -0.4006
17418TIP3    H173745   5.266   1.653  13.099  0.4392 -1.1082 -0.8925
17418TIP3    H273746   5.163   1.553  13.148 -1.8745  1.7801  0.4497
17419TIP3   OH273747   0.675   2.617   3.696 -0.0311  0.1152  0.2783
17419TIP3    H173748   0.607   2.605   3.630  0.0864  0.8535  0.0246
17419TIP3    H273749   0.720   2.697   3.671  1.0388 -0.4463  0.3545
17420TIP3   OH273750   2.064   4.713  10.960 -0.7195  0.5171 -0.7316
17420TIP3    H173751   2.136   4.696  11.020 -0.7942  1.7623 -0.2617
17420TIP3    H273752   2.090   4.670  10.878 -0.8537 -1.6511  0.2848
17421TIP3   OH273753   0.460   1.620   0.138 -0.0662 -0.1989 -0.6069
17421TIP3    H173754   0.432   1.555   0.201  0.7099  0.5703  0.5680
17421TIP3    H273755   0.495   1.569   0.064 -0.9794 -1.1032 -0.4270
17422TIP3   OH273756   6.639   3.711   3.855  0.5414  0.2006  0.1751
17422TIP3    H173757   6.582   3.639   3.880  0.1901  0.5431  0.3714
17422TIP3    H273758   6.598   3.789   3.893 -0.0467  0.7518 -1.5158
17423TIP3   OH273759   6.243   5.410  11.797  0.1733 -0.0477  0.6087
17423TIP3    H173760   6.316   5.463  11.828 -1.1796  1.3398  1.6406
17423TIP3    H273761   6.280   5.354  11.729  2.0403  1.0222  0.6812
17424TIP3   OH273762   2.193   0.818  12.849  0.0298 -0.2241  0.5796
17424TIP3    H173763   2.285   0.845  12.853 -0.4078  1.6299 -0.5671
17424TIP3    H273764   2.188   0.764  12.770  0.2878 -1.0866  1.1392
17425TIP3   OH273765   0.992   3.910  17.002  1.0083  0.1073 -0.2474
17425TIP3    H173766   1.058   3.858  17.048  1.6222 -1.6253 -2.8633
17425TIP3    H273767   1.042   3.961  16.938  0.1393  1.9982  0.5095
17426TIP3   OH273768   5.676   3.105   0.701 -0.0763 -0.4092  0.3673
17426TIP3    H173769   5.713   3.070   0.619  1.1362  0.2710  0.5926
17426TIP3    H273770   5.591   3.063   0.709 -0.6024  0.1402 -1.7006
17427TIP3   OH273771   4.976   0.670  14.154 -0.5322 -0.4007  0.0918
17427TIP3    H173772   4.994   0.760  14.127 -1.0942 -0.4019 -0.3060
17427TIP3    H273773   4.934   0.678  14.240 -1.1350 -0.2437 -0.2130
17428TIP3   OH273774   2.495   0.328  14.274 -0.0872  0.2563 -0.3815
17428TIP3    H173775   2.591   0.327  14.272 -0.0880 -1.5805 -1.2758
17428TIP3    H273776   2.473   0.299  14.363  0.2024 -0.8719 -0.6666
17429TIP3   OH273777   2.065   5.621   1.298  0.2665  0.1845 -0.6305
17429TIP3    H173778   2.134   5.559   1.321 -0.4042 -1.5623 -2.9506
17429TIP3    H273779   1.985   5.582   1.332  0.1167  1.0733  0.0823
17430TIP3   OH273780   3.936   3.103   0.919  0.5512  0.4687 -0.1601
17430TIP3    H173781   3.853   3.076   0.879 -0.3070  0.8217  1.3206
17430TIP3    H273782   3.993   3.028   0.907 -0.6187 -0.5760  0.5309
17431TIP3   OH273783   6.757   2.093   0.390 -0.7482  0.8056  0.2084
17431TIP3    H173784   6.699   2.114   0.464 -2.0777 -0.6812 -0.3412
17431TIP3    H273785   6.700   2.099   0.313 -0.4873 -1.6545 -0.2669
17432TIP3   OH273786   2.426   5.171   0.538  0.0264 -0.0078 -0.0449
17432TIP3    H173787   2.431   5.080   0.508 -2.1241 -0.0008 -0.5504
17432TIP3    H273788   2.360   5.171   0.606  0.6647  1.0475  0.6092
17433TIP3   OH273789   3.983   0.024   5.372 -0.3890 -0.6915 -0.0109
17433TIP3    H173790   3.984   0.119   5.385  1.1427 -0.5239 -1.1187
17433TIP3    H273791   3.905   0.008   5.319 -0.4910 -0.0114 -0.0725
17434TIP3   OH273792   3.990   6.618  15.416  0.1095 -0.6260  0.2309
17434TIP3    H173793   3.965   6.553  15.481  1.7175 -0.6955  0.8259
17434TIP3    H273794   4.075   6.652  15.446 -0.7653  1.9251  0.0680
17435TIP3   OH273795   2.522   0.883   0.968 -1.0314  0.3745 -0.1533
17435TIP3    H173796   2.611   0.907   0.944 -1.3366  1.5597 -0.1599
17435TIP3    H273797   2.532   0.806   1.024  0.1640  1.8231  1.7424
17436TIP3   OH273798   0.929   6.328   3.212 -0.3565 -0.2534 -0.5308
17436TIP3    H173799   0.908   6.264   3.143 -0.3365 -1.9707  0.9941
17436TIP3    H273800   0.846   6.342   3.257 -0.1511  0.0168 -0.2350
17437TIP3   OH273801   0.182   5.161   5.330 -0.3338 -0.7672  0.4924
17437TIP3    H173802   0.187   5.229   5.264 -0.3746  0.4710  1.7256
17437TIP3    H273803   0.138   5.088   5.286 -2.4129  0.8139 -0.2474
17438TIP3   OH273804   6.267   5.013  14.124 -0.0590 -0.3800 -0.0754
17438TIP3    H173805   6.201   4.970  14.179 -0.4295  0.5311  0.2084
17438TIP3    H273806   6.227   5.017  14.037 -0.1755 -0.2842 -0.0182
17439TIP3   OH273807   1.376   5.360   5.596  0.0655  0.3200  0.5204
17439TIP3    H173808   1.309   5.410   5.549 -2.3965 -0.2804  3.1411
17439TIP3    H273809   1.413   5.422   5.659  2.0535  0.6310 -0.8658
17440TIP3   OH273810   0.515   1.514  11.478  0.3683 -0.3931 -0.1047
17440TIP3    H173811   0.454   1.535  11.408 -0.7607 -2.7009  0.1044
17440TIP3    H273812   0.461   1.473  11.546  1.7731 -0.2125  1.1961
17441TIP3   OH273813   1.103   6.006  12.550 -0.1536 -0.4134  0.5039
17441TIP3    H173814   1.094   6.031  12.458  0.0441  0.1049  0.6236
17441TIP3    H273815   1.189   5.963  12.554 -0.9035 -2.0339  0.1033
17442TIP3   OH273816   2.661   0.546  11.630 -0.2959 -0.0307 -0.1588
17442TIP3    H173817   2.601   0.518  11.699  0.8767 -0.2897  0.7882
17442TIP3    H273818   2.614   0.529  11.549 -2.0008  0.9252  0.5611
17443TIP3   OH273819   5.662   0.222   4.319  0.2496  0.1630 -0.4345
17443TIP3    H173820   5.703   0.294   4.272  1.1508 -0.3821 -0.5257
17443TIP3    H273821   5.676   0.145   4.263 -0.2964 -0.1593 -0.1373
17444TIP3   OH273822   0.567   1.669  12.676 -0.3062 -0.6386  0.0991
17444TIP3    H173823   0.604   1.753  12.650  0.0777 -0.9708 -0.4471
17444TIP3    H273824   0.616   1.604  12.626 -0.0330 -1.2568  1.1340
17445TIP3   OH273825   0.946   0.203  13.504 -0.1425  0.3423 -0.1978
17445TIP3    H173826   1.037   0.175  13.509 -0.5352 -1.1418 -0.7898
17445TIP3    H273827   0.948   0.281  13.448  0.6608 -0.1672 -0.8939
17446TIP3   OH273828   0.189   0.584  13.194 -0.2613 -0.4196 -0.2543
17446TIP3    H173829   0.204   0.507  13.138 -2.2872 -0.2423 -1.1438
17446TIP3    H273830   0.107   0.621  13.162  0.8917  2.4602 -0.2185
17447TIP3   OH273831   2.764   3.914   4.525 -0.0183 -0.3882  0.2929
17447TIP3    H173832   2.782   3.858   4.601 -0.7235 -0.9013  0.0841
17447TIP3    H273833   2.672   3.939   4.534  0.2586  0.6661  0.3278
17448TIP3   OH273834   2.060   5.238   1.600  0.1916  0.1104 -0.4726
17448TIP3    H173835   2.035   5.319   1.644  0.0053 -0.0695 -0.2349
17448TIP3    H273836   2.012   5.239   1.517 -1.0462 -0.4664  0.2011
17449TIP3   OH273837   0.559   0.665  15.315  0.7588  0.3531 -0.1771
17449TIP3    H173838   0.571   0.759  15.324 -0.0414  0.7241 -2.4318
17449TIP3    H273839   0.641   0.634  15.276  1.7347 -0.2350  2.1627
17450TIP3   OH273840   3.634   0.309  15.158 -0.2379 -0.3145  0.5021
17450TIP3    H173841   3.686   0.377  15.117 -0.5801 -0.0118  0.5650
17450TIP3    H273842   3.698   0.245  15.191  0.2218  0.9964  2.3212
17451TIP3   OH273843   4.496   3.542  14.801  0.1594 -0.0950 -0.6511
17451TIP3    H173844   4.565   3.607  14.820  0.4109 -0.0535 -1.6631
17451TIP3    H273845   4.419   3.574  14.848  0.7764 -0.0625  0.3824
17452TIP3   OH273846   0.067   4.611   3.210 -0.4581  0.4642 -0.0918
17452TIP3    H173847   0.050   4.558   3.132 -0.9851 -0.0392  0.3592
17452TIP3    H273848   0.043   4.554   3.283  2.6014 -0.1225  0.6073
17453TIP3   OH273849   2.617   5.753  16.379  0.5503 -0.0352 -0.3322
17453TIP3    H173850   2.584   5.823  16.323  1.2814 -0.2384 -1.0352
17453TIP3    H273851   2.600   5.673  16.330 -0.7191 -0.4204  0.6793
17454TIP3   OH273852   4.108   2.749  16.558  0.0384 -1.0089 -0.0316
17454TIP3    H173853   4.047   2.820  16.577  1.1324 -0.5906  2.2198
17454TIP3    H273854   4.069   2.703  16.483 -2.5182 -0.1964  0.7019
17455TIP3   OH273855   1.892   0.789  12.462  0.1831  0.2776 -0.6238
17455TIP3    H173856   1.985   0.776  12.441  0.7461  1.1471  1.1720
17455TIP3    H273857   1.866   0.863  12.407  0.7073  0.4068 -0.7068
17456TIP3   OH273858   3.039   2.646   4.476 -0.3330 -0.4793  0.1403
17456TIP3    H173859   3.078   2.568   4.516  1.2597 -0.8145 -1.8771
17456TIP3    H273860   3.039   2.711   4.547  5.1369 -0.0801  0.2312
17457TIP3   OH273861   0.254   4.447   5.700  0.0959 -0.3043 -0.6211
17457TIP3    H173862   0.342   4.481   5.717  0.0013  0.3125 -1.3394
17457TIP3    H273863   0.229   4.485   5.616 -0.4943 -1.2033 -0.8699
17458TIP3   OH273864   4.702   1.206   4.432 -0.0518  0.4036 -0.4590
17458TIP3    H173865   4.655   1.199   4.349  0.3585 -1.2355 -0.5923
17458TIP3    H273866   4.766   1.276   4.417  0.4621 -0.3053 -1.7627
17459TIP3   OH273867   4.133   2.512  15.525  0.3666  0.2002  0.1446
17459TIP3    H173868   4.055   2.491  15.474 -0.5440  0.5489  1.3656
17459TIP3    H273869   4.191   2.437  15.511 -1.2955 -1.4256  1.3645
17460TIP3   OH273870   3.618   6.109   0.851  0.2718 -0.1708 -0.2056
17460TIP3    H173871   3.583   6.136   0.935  0.3674 -1.2617  0.1931
17460TIP3    H273872   3.706   6.077   0.871  1.6142  2.5339 -1.1744
17461TIP3   OH273873   2.911   3.528   6.215 -0.1120  0.2115 -0.2363
17461TIP3    H173874   2.836   3.558   6.266  1.5919  2.7902  0.9667
17461TIP3    H273875   2.916   3.434   6.233 -0.9783  0.6133  2.5580
17462TIP3   OH273876   3.139   6.136   4.541 -0.1532  0.3863 -0.2303
17462TIP3    H173877   3.225   6.156   4.577 -0.7836  0.6317  1.2406
17462TIP3    H273878   3.128   6.198   4.470  0.3746  1.2352  0.4005
17463TIP3   OH273879   3.206   3.608   3.734  0.0106  0.3617 -0.1832
17463TIP3    H173880   3.252   3.626   3.816  2.5246  0.5737 -1.5234
17463TIP3    H273881   3.159   3.689   3.714  0.4183  0.7548  0.4190
17464TIP3   OH273882   6.598   1.107   5.456 -0.1694  0.0096 -0.0146
17464TIP3    H173883   6.690   1.092   5.476  0.2073  0.7662 -1.0999
17464TIP3    H273884   6.564   1.021   5.433  0.3419 -0.2284  0.0982
17465TIP3   OH273885   5.112   1.552   5.336 -0.5785 -0.2393  0.7196
17465TIP3    H173886   5.061   1.618   5.382 -1.0937 -0.4003  0.3817
17465TIP3    H273887   5.127   1.589   5.249 -0.7749 -0.5169  0.5649
17466TIP3   OH273888   0.908   5.030  15.784 -0.2902  0.3348  0.5881
17466TIP3    H173889   0.934   4.941  15.811 -0.3087 -0.0535 -0.6243
17466TIP3    H273890   0.972   5.087  15.827  0.4177 -0.3619  0.4921
17467TIP3   OH273891   5.407   2.348  13.292 -0.0686  0.2553  0.7200
17467TIP3    H173892   5.441   2.382  13.209  0.0381 -0.8380  0.3015
17467TIP3    H273893   5.415   2.421  13.353 -0.3801  1.1459 -0.2922
17468TIP3   OH273894   3.115   3.988   3.098  0.1224  0.3862  0.0834
17468TIP3    H173895   3.055   4.062   3.086 -1.4972 -0.9647 -0.6026
17468TIP3    H273896   3.198   4.019   3.063 -0.3966  2.0107  0.1747
17469TIP3   OH273897   2.234   1.738   0.869  0.4657  0.2938 -0.1551
17469TIP3    H173898   2.157   1.682   0.861 -0.3718  1.4447 -0.4051
17469TIP3    H273899   2.203   1.825   0.844  1.2148  1.2997  2.1035
17470TIP3   OH273900   5.416   1.657  14.542 -0.4161  0.4310  0.5608
17470TIP3    H173901   5.358   1.580  14.545 -0.4892  0.3691 -1.4791
17470TIP3    H273902   5.504   1.620  14.551 -0.4795  0.1524  0.0761
17471TIP3   OH273903   4.406   3.655  17.030 -0.9110  0.4127 -0.2340
17471TIP3    H173904   4.419   3.747  17.052  2.6306 -0.4621  2.1250
17471TIP3    H273905   4.354   3.620  17.102 -0.3537  0.1378  0.0402
17472TIP3   OH273906   3.973   0.531   4.079 -0.0208 -0.1657  0.1832
17472TIP3    H173907   3.915   0.584   4.024 -0.0853 -1.8068 -1.4416
17472TIP3    H273908   3.950   0.440   4.057  0.0971 -0.9145  2.8267
17473TIP3   OH273909   2.285   1.755   2.438 -0.2327 -0.0388 -0.1969
17473TIP3    H173910   2.316   1.703   2.364 -0.5904 -1.7560  0.7876
17473TIP3    H273911   2.330   1.717   2.514 -0.5002  1.1290  0.5758
17474TIP3   OH273912   5.582   6.787  14.413  0.9034  0.1800 -0.5967
17474TIP3    H173913   5.633   6.714  14.375  1.6286 -0.6195  1.7330
17474TIP3    H273914   5.605   6.862  14.359  0.9278 -1.0789 -2.4597
17475TIP3   OH273915   0.376   2.274   0.628  0.4983  0.2215 -0.2144
17475TIP3    H173916   0.432   2.247   0.555  0.7559 -0.1674  0.1195
17475TIP3    H273917   0.408   2.223   0.702 -0.8766 -0.6994 -0.2076
17476TIP3   OH273918   2.689   3.578  12.613  0.0389  0.6657 -0.4266
17476TIP3    H173919   2.674   3.504  12.554 -0.7210  1.5791 -1.4068
17476TIP3    H273920   2.785   3.580  12.624  0.5078  1.9619 -3.6552
17477TIP3   OH273921   6.659   4.873  15.796  0.3921 -0.0157 -0.2779
17477TIP3    H173922   6.573   4.834  15.809  0.6454 -1.6777 -2.9091
17477TIP3    H273923   6.720   4.811  15.837  0.5079 -0.1162 -0.6035
17478TIP3   OH273924   0.890   5.434  11.639 -0.1054  0.4074 -0.0413
17478TIP3    H173925   0.903   5.485  11.719  0.9302 -0.4747  0.3755
17478TIP3    H273926   0.839   5.358  11.668  1.5039 -0.6627  0.1167
17479TIP3   OH273927   2.697   2.172   5.742 -0.6063  0.5060 -0.0300
17479TIP3    H173928   2.771   2.207   5.791 -2.3820 -2.2011  5.3829
17479TIP3    H273929   2.631   2.241   5.746 -0.0127  1.1340 -0.6925
17480TIP3   OH273930   0.658   4.048  12.016  0.2681 -0.0792 -0.5230
17480TIP3    H173931   0.632   4.076  12.104 -0.7173 -0.4606 -0.6809
17480TIP3    H273932   0.588   3.989  11.987  2.9987 -4.1641  0.4168
17481TIP3   OH273933   3.331   2.871  11.943 -0.1512  0.6481  0.2259
17481TIP3    H173934   3.391   2.923  11.998 -1.6478  3.0226 -0.2379
17481TIP3    H273935   3.329   2.917  11.859 -2.8770  0.9466  0.3536
17482TIP3   OH273936   2.135   1.731  16.238  0.5717 -0.3013  0.3908
17482TIP3    H173937   2.171   1.820  16.231  0.6656 -0.4388 -1.7304
17482TIP3    H273938   2.203   1.675  16.200 -0.3399 -1.0201 -0.2161
17483TIP3   OH273939   2.520   5.108   2.308  0.3090 -0.1005  0.1316
17483TIP3    H173940   2.530   5.098   2.402 -1.3537 -1.6450  0.2027
17483TIP3    H273941   2.427   5.128   2.296  0.8898  2.2339 -1.0720
17484TIP3   OH273942   0.998   4.299  16.114 -0.5175 -0.2258 -0.0885
17484TIP3    H173943   1.001   4.333  16.025 -3.8540  3.3694  0.8980
17484TIP3    H273944   1.085   4.315  16.150  0.3965 -0.2827 -2.1883
17485TIP3   OH273945   3.179   6.666  13.388 -0.6391  0.5163 -0.3281
17485TIP3    H173946   3.170   6.571  13.382  0.7469  0.4295 -2.0686
17485TIP3    H273947   3.090   6.698  13.400 -1.0872 -1.0119  0.6842
17486TIP3   OH273948   2.167   0.154   5.803 -0.1538 -0.0051 -0.3109
17486TIP3    H173949   2.191   0.159   5.895  0.2055 -0.6769 -0.3568
17486TIP3    H273950   2.249   0.131   5.758 -0.1900  0.8993 -0.8715
17487TIP3   OH273951   3.032   6.470  11.214 -0.3091  0.1141 -0.0084
17487TIP3    H173952   3.086   6.461  11.135 -0.8671  2.1966 -0.6727
17487TIP3    H273953   3.060   6.552  11.253 -2.6997  1.0942 -0.1810
17488TIP3   OH273954   4.202   5.977   3.919  0.5677  0.2923 -0.3031
17488TIP3    H173955   4.123   5.926   3.937  0.1473 -0.5935 -3.9360
17488TIP3    H273956   4.201   6.046   3.986 -2.8335 -0.1771  0.3336
17489TIP3   OH273957   3.991   1.310  14.662  0.1768  0.0410  0.5544
17489TIP3    H173958   4.003   1.359  14.743  1.4465  1.6239 -0.5147
17489TIP3    H273959   3.952   1.373  14.602 -1.1361 -1.2245  0.0291
17490TIP3   OH273960   3.196   1.116   5.328  0.1165 -0.0782 -0.4151
17490TIP3    H173961   3.201   1.026   5.295 -0.1715 -1.1219  2.1981
17490TIP3    H273962   3.226   1.110   5.418 -1.6241  2.1431  0.3832
17491TIP3   OH273963   3.761   1.021   1.362  0.0285  0.0013  0.9148
17491TIP3    H173964   3.753   1.077   1.439  0.3567  1.8416 -0.3308
17491TIP3    H273965   3.790   1.080   1.292 -2.2883 -1.1249 -1.1616
17492TIP3   OH273966   6.202   4.786   5.048 -0.1914  0.1137  0.0276
17492TIP3    H173967   6.239   4.856   4.995 -1.6222  0.2332 -0.8637
17492TIP3    H273968   6.221   4.812   5.138  0.7195  0.8134 -0.3575
17493TIP3   OH273969   4.096   4.792  14.410  0.5345 -0.0135 -0.2268
17493TIP3    H173970   4.072   4.740  14.486  3.0466 -1.6341 -0.4104
17493TIP3    H273971   4.043   4.757  14.338  0.2954 -0.5127  0.1917
17494TIP3   OH273972   4.850   5.251   3.863  0.4741  0.1439  0.1296
17494TIP3    H173973   4.761   5.226   3.837  0.9563  0.7260 -2.4016
17494TIP3    H273974   4.881   5.178   3.916 -1.0901 -0.6275  0.0414
17495TIP3   OH273975   0.683   6.196  16.638 -0.2985 -0.2702  0.2243
17495TIP3    H173976   0.594   6.228  16.625 -0.1715  0.3121  0.7081
17495TIP3    H273977   0.676   6.138  16.714 -0.0693  0.6977  1.0035
17496TIP3   OH273978   5.960   4.553   4.763  0.5106  0.1029 -0.2469
17496TIP3    H173979   6.006   4.489   4.817 -0.1098 -0.6055 -0.5380
17496TIP3    H273980   6.027   4.615   4.736  0.7827  0.6662  1.6138
17497TIP3   OH273981   6.374   0.362  17.007 -0.1149  0.2453 -0.4258
17497TIP3    H173982   6.324   0.280  17.005 -2.1320  1.4256 -0.6022
17497TIP3    H273983   6.462   0.335  17.034 -0.8001 -1.9267 -0.1467
17498TIP3   OH273984   0.774   0.266  16.666 -0.6587 -0.5387  0.3136
17498TIP3    H173985   0.746   0.218  16.588  1.3465  0.5660 -1.1734
17498TIP3    H273986   0.855   0.224  16.692 -0.7522 -0.2079  1.1581
17499TIP3   OH273987   4.372   1.899   0.520  0.2992 -0.8193 -0.4628
17499TIP3    H173988   4.337   1.815   0.490  1.5617 -0.7685 -2.2146
17499TIP3    H273989   4.304   1.962   0.496  0.3889 -1.0568 -1.4185
17500TIP3   OH273990   4.179   3.843   0.609  0.3578 -0.0921  0.2026
17500TIP3    H173991   4.240   3.769   0.618  0.1596 -0.1997  0.7108
17500TIP3    H273992   4.174   3.858   0.515  0.3893 -0.7434  0.0885
17501TIP3   OH273993   3.509   4.294   3.576  0.2701 -0.5033 -0.2412
17501TIP3    H173994   3.527   4.388   3.569 -1.2713 -0.0781  0.9761
17501TIP3    H273995   3.579   4.260   3.631  0.1301  0.1737  0.3681
17502TIP3   OH273996   5.564   2.823  17.168 -0.3195  0.0050  0.0196
17502TIP3    H173997   5.543   2.755  17.104  0.3897 -0.3576  0.1608
17502TIP3    H273998   5.660   2.822  17.174 -0.3865 -2.2127  3.4439
17503TIP3   OH273999   0.952   3.598   4.628 -0.0216  0.1163 -0.7755
17503TIP3    H174000   0.970   3.554   4.711 -0.5585 -0.0582 -0.7493
17503TIP3    H274001   0.957   3.528   4.563 -0.0851  0.1656 -0.8324
17504TIP3   OH274002   6.770   1.643  12.754 -0.1187 -0.0573 -0.9356
17504TIP3    H174003   6.796   1.666  12.843 -0.4348  2.7425 -1.4762
17504TIP3    H274004   6.801   1.553  12.742  5.4520  1.3450 -0.0239
17505TIP3   OH274005   2.548   1.509   1.352 -0.0534 -0.1952  0.1037
17505TIP3    H174006   2.570   1.437   1.293 -2.6893 -2.2505  1.3843
17505TIP3    H274007   2.460   1.535   1.325  0.1410  1.3049  0.8486
17506TIP3   OH274008   2.946   1.961   4.805  0.3569  0.4642 -0.2335
17506TIP3    H174009   2.979   1.955   4.716  0.1071  1.3865 -0.3973
17506TIP3    H274010   2.907   1.876   4.823 -1.2600  0.8567 -1.6670
17507TIP3   OH274011   0.292   0.888  10.527  0.0817  0.0440  0.4404
17507TIP3    H174012   0.221   0.939  10.566  0.0231  1.1476 -1.0317
17507TIP3    H274013   0.251   0.845  10.451  1.1027  1.2452 -0.8328
17508TIP3   OH274014   4.244   4.551  15.668  0.0502 -0.2335 -0.2786
17508TIP3    H174015   4.216   4.623  15.725 -1.7749 -0.2304 -1.1218
17508TIP3    H274016   4.331   4.577  15.638  0.7218  0.1311  1.8448
17509TIP3   OH274017   0.007   0.381  12.579  0.4259  0.1218 -0.2346
17509TIP3    H174018   0.071   0.407  12.645  0.4217 -0.9234  0.2083
17509TIP3    H274019   0.059   0.343  12.509  0.2563 -2.3083  0.8642
17510TIP3   OH274020   4.427   2.026   4.265 -0.0441 -0.3265 -0.0903
17510TIP3    H174021   4.339   1.991   4.279 -0.0546 -1.2528 -2.0776
17510TIP3    H274022   4.486   1.954   4.285  0.0226 -1.0020 -2.4349
17511TIP3   OH274023   6.653   0.935  16.758 -0.4231  0.1965 -0.1178
17511TIP3    H174024   6.632   0.853  16.804  2.0725  0.5430  1.8558
17511TIP3    H274025   6.700   0.907  16.679 -1.5029 -0.2991 -0.6115
17512TIP3   OH274026   5.385   2.367  16.239  0.4445  0.0443  0.0683
17512TIP3    H174027   5.384   2.454  16.198  1.9235 -0.4570 -1.1435
17512TIP3    H274028   5.303   2.326  16.210  0.1491  0.7204 -0.0716
17513TIP3   OH274029   6.451   2.645  11.771 -0.5528  0.2337  0.5972
17513TIP3    H174030   6.501   2.570  11.740  2.1172  2.2614 -0.4869
17513TIP3    H274031   6.401   2.674  11.694 -0.7281  0.2028  0.6994
17514TIP3   OH274032   1.037   2.282   3.576  0.6789  0.3171 -0.2724
17514TIP3    H174033   1.087   2.310   3.652  0.2382  1.1440 -0.2738
17514TIP3    H274034   0.947   2.309   3.595 -0.1804 -2.6856  0.5317
17515TIP3   OH274035   5.014   0.393  11.976 -0.2740  0.5962 -0.7584
17515TIP3    H174036   5.031   0.414  11.884 -0.0756  1.4373 -0.5302
17515TIP3    H274037   4.958   0.463  12.007 -2.6943 -1.1154 -0.9683
17516TIP3   OH274038   6.769   3.627   2.555  0.1028  0.4653 -0.1011
17516TIP3    H174039   6.792   3.568   2.628 -1.6263  0.9999  0.9365
17516TIP3    H274040   6.774   3.715   2.593  0.0118  0.8090 -0.8740
17517TIP3   OH274041   5.062   1.193   6.637 -0.0250  0.1900  0.0661
17517TIP3    H174042   4.990   1.149   6.592  0.3204 -1.2697  0.8552
17517TIP3    H274043   5.023   1.228   6.717  0.2121 -1.0889  0.7709
17518TIP3   OH274044   3.332   4.475   5.089 -0.3683 -0.1593  0.3643
17518TIP3    H174045   3.424   4.456   5.111 -0.2138  1.8191  1.7710
17518TIP3    H274046   3.303   4.534   5.158 -1.9455  1.2725 -1.3996
17519TIP3   OH274047   5.926   0.668   2.566 -0.5048 -0.2363 -0.0595
17519TIP3    H174048   5.979   0.723   2.509  1.6237 -1.0631  1.0190
17519TIP3    H274049   5.945   0.700   2.654  1.2061 -2.9117  0.6475
17520TIP3   OH274050   1.263   3.112   1.965  0.4891  0.0230 -0.5738
17520TIP3    H174051   1.217   3.067   1.893 -0.5589  1.3713 -0.7981
17520TIP3    H274052   1.222   3.198   1.968  0.8544  0.1641  1.3451
17521TIP3   OH274053   5.168   3.258   3.698 -0.0445  0.0681 -0.1683
17521TIP3    H174054   5.097   3.255   3.634 -0.3362 -0.8459  0.1877
17521TIP3    H274055   5.226   3.327   3.666 -2.6997  3.2486  1.2585
17522TIP3   OH274056   3.527   4.934   6.791 -0.3760 -0.6414  0.0591
17522TIP3    H174057   3.467   5.004   6.767 -1.0727 -1.1224  0.3660
17522TIP3    H274058   3.609   4.979   6.812 -0.5007 -0.0123 -0.7474
17523TIP3   OH274059   4.392   1.381  12.827 -0.0633  0.0035 -0.2743
17523TIP3    H174060   4.479   1.374  12.867  0.0058 -0.2717 -0.4665
17523TIP3    H274061   4.362   1.291  12.820  0.0450  0.0232 -1.0995
17524TIP3   OH274062   1.641   4.314   0.305  0.0793 -0.3229 -0.1546
17524TIP3    H174063   1.556   4.328   0.265 -0.3208 -0.3813  0.6511
17524TIP3    H274064   1.656   4.392   0.358  0.3050 -0.5263  0.0872
17525TIP3   OH274065   3.586   4.864   0.764  0.0008 -0.1992  0.4223
17525TIP3    H174066   3.516   4.811   0.726 -0.1270 -0.0064  0.3912
17525TIP3    H274067   3.666   4.829   0.725 -0.1373  0.0861 -0.1242
17526TIP3   OH274068   0.593   5.062  11.620 -0.1266  0.3875 -0.3091
17526TIP3    H174069   0.623   4.986  11.670  1.1424  0.0251 -1.5630
17526TIP3    H274070   0.516   5.030  11.572  0.3594 -0.1100 -0.7785
17527TIP3   OH274071   6.266   3.119  16.354  0.1830 -0.2018  0.4123
17527TIP3    H174072   6.234   3.196  16.401 -0.0568 -0.2554  0.3376
17527TIP3    H274073   6.189   3.064  16.343  0.6718 -1.2946  2.0631
17528TIP3   OH274074   0.884   2.823  13.260  0.6041 -0.1399  0.1840
17528TIP3    H174075   0.932   2.863  13.332 -0.8002  0.3288  0.8838
17528TIP3    H274076   0.899   2.882  13.186  1.1758 -0.0578  0.3610
17529TIP3   OH274077   2.507   5.465   3.143  0.2707 -0.0228  0.2770
17529TIP3    H174078   2.558   5.388   3.169  1.3133  0.6448  0.2791
17529TIP3    H274079   2.562   5.509   3.078 -0.5283  0.4649 -0.0840
17530TIP3   OH274080   6.313   3.458  16.914  0.1082  0.8455 -0.1970
17530TIP3    H174081   6.234   3.449  16.968  0.0720  0.5500 -0.2970
17530TIP3    H274082   6.385   3.436  16.972 -0.0239 -0.8541 -0.6168
17531TIP3   OH274083   6.395   1.445  16.245 -0.6599 -0.1614  0.5061
17531TIP3    H174084   6.482   1.429  16.284 -0.3797  1.1668  0.4697
17531TIP3    H274085   6.359   1.517  16.297 -0.5268  1.2612 -1.2552
17532TIP3   OH274086   3.827   0.240  14.639  0.2531  0.3313  0.5587
17532TIP3    H174087   3.828   0.145  14.631 -1.3323  0.2202  1.3569
17532TIP3    H274088   3.741   0.266  14.603 -0.0469  1.2877  1.9106
17533TIP3   OH274089   4.062   1.820  15.337  0.2509 -0.3338 -0.5791
17533TIP3    H174090   3.999   1.764  15.293  0.2738  0.3666 -1.5169
17533TIP3    H274091   4.022   1.906  15.338  1.0048  0.0294 -0.8057
17534TIP3   OH274092   2.340   6.219   4.191 -0.1817  0.2860  0.1123
17534TIP3    H174093   2.275   6.240   4.258 -0.8964  1.0572 -0.7945
17534TIP3    H274094   2.350   6.299   4.140  2.0889  0.4265  0.6876
17535TIP3   OH274095   5.107   2.526  11.462 -0.3941  0.6471  0.2517
17535TIP3    H174096   5.157   2.565  11.390  0.4995 -0.7974  0.0516
17535TIP3    H274097   5.172   2.481  11.515 -1.1153  1.2887  1.7264
17536TIP3   OH274098   4.583   2.796   3.204  0.0715  0.0320  0.3723
17536TIP3    H174099   4.567   2.847   3.124 -0.6002 -0.5357  0.1334
17536TIP3    H274100   4.499   2.797   3.249  0.5739  0.7585  1.3253
17537TIP3   OH274101   6.548   1.841  11.970 -0.1549 -0.3965  0.0517
17537TIP3    H174102   6.561   1.777  12.040 -1.2876 -0.4171  0.2607
17537TIP3    H274103   6.464   1.816  11.930 -1.4069  1.8063  1.1100
17538TIP3   OH274104   2.856   1.911  10.970 -0.2292  0.2122 -0.0946
17538TIP3    H174105   2.925   1.887  10.908 -0.5914  1.1819 -0.8860
17538TIP3    H274106   2.826   1.997  10.942  0.0956  1.0229  1.8673
17539TIP3   OH274107   6.399   6.150  16.091 -0.2206  0.3670  0.3368
17539TIP3    H174108   6.403   6.235  16.136  0.5668 -0.9358  2.9757
17539TIP3    H274109   6.318   6.110  16.123  0.3472 -0.5933  0.6171
17540TIP3   OH274110   1.481   6.112  13.924 -0.2265 -0.9658 -0.3706
17540TIP3    H174111   1.399   6.062  13.924 -1.7796  1.2299 -3.4540
17540TIP3    H274112   1.540   6.061  13.869 -0.4820 -1.2687 -0.3694
17541TIP3   OH274113   4.527   0.869  12.103  0.3207  0.0112 -0.3011
17541TIP3    H174114   4.573   0.825  12.032  1.1602 -0.1964  0.3607
17541TIP3    H274115   4.545   0.962  12.090 -0.7896  0.1309 -1.2259
17542TIP3   OH274116   1.220   2.981   3.548  0.0641  0.2209  0.4016
17542TIP3    H174117   1.267   2.898   3.555 -0.1196  0.1180  0.4402
17542TIP3    H274118   1.277   3.045   3.590 -0.4273 -0.1572  1.7047
17543TIP3   OH274119   3.919   3.003  14.159  0.6315 -0.0580 -0.2552
17543TIP3    H174120   3.853   2.936  14.174  0.9497 -0.0697  1.3529
17543TIP3    H274121   3.986   2.987  14.226  0.0433  2.6565  1.1566
17544TIP3   OH274122   5.934   4.680   1.307  0.3084  0.6528 -0.2686
17544TIP3    H174123   5.918   4.697   1.214  1.4336  0.6097 -0.4851
17544TIP3    H274124   6.021   4.640   1.309  0.7106  1.5538  0.8999
17545TIP3   OH274125   3.319   4.546   3.486 -0.2049  0.2626 -0.0176
17545TIP3    H174126   3.234   4.504   3.471 -0.0214 -0.9289  1.9301
17545TIP3    H274127   3.381   4.495   3.434 -0.4003 -0.0907  0.0969
17546TIP3   OH274128   3.317   4.612  16.846  0.1154  0.5334  0.2214
17546TIP3    H174129   3.385   4.667  16.807  0.3355 -0.5153 -0.9466
17546TIP3    H274130   3.293   4.657  16.927  1.2245  1.6349 -0.0311
17547TIP3   OH274131   5.076   0.794   3.282  0.2695  0.3975  0.2526
17547TIP3    H174132   5.057   0.888   3.281 -1.4581  0.1511  2.4867
17547TIP3    H274133   5.171   0.788   3.276  0.4093  2.2721  0.1379
17548TIP3   OH274134   1.438   1.430   4.433 -0.2633  0.1009  0.2609
17548TIP3    H174135   1.512   1.480   4.468 -0.9005  0.9988  0.3271
17548TIP3    H274136   1.394   1.395   4.510  0.7855 -1.5147  0.2022
17549TIP3   OH274137   3.807   3.221  17.135 -0.5145 -0.3481 -0.1656
17549TIP3    H174138   3.777   3.169  17.060  1.6815 -1.3148 -0.4254
17549TIP3    H274139   3.732   3.222  17.195 -0.8234 -3.4371 -0.3713
17550TIP3   OH274140   0.408   4.616   4.879 -0.1240  0.5376  0.1735
17550TIP3    H174141   0.485   4.579   4.836  0.3738  2.4318 -0.6808
17550TIP3    H274142   0.384   4.692   4.825 -4.2317 -1.4132 -1.1363
17551TIP3   OH274143   1.399   0.420  13.025  0.0900  0.4212 -0.1040
17551TIP3    H174144   1.413   0.341  13.076  0.7666  0.6985  0.1534
17551TIP3    H274145   1.462   0.413  12.953 -1.3989 -0.3545 -1.3795
17552TIP3   OH274146   2.128   0.555   2.860 -0.3091 -0.1589 -0.1651
17552TIP3    H174147   2.091   0.547   2.948 -0.0127  1.5224  0.1491
17552TIP3    H274148   2.053   0.548   2.801 -0.5516 -0.9362  0.2274
17553TIP3   OH274149   3.141   4.475  13.261 -0.1384  0.6008 -0.0644
17553TIP3    H174150   3.197   4.412  13.307 -0.2690 -0.8956 -1.8303
17553TIP3    H274151   3.201   4.532  13.214 -0.0326 -0.4696 -1.2779
17554TIP3   OH274152   5.765   5.403  11.535 -0.6904  0.1282 -0.5619
17554TIP3    H174153   5.791   5.490  11.503  2.7426 -1.8042 -3.7621
17554TIP3    H274154   5.845   5.368  11.574 -1.3709 -2.3565 -1.2612
17555TIP3   OH274155   4.074   5.094  14.426  0.1652  0.2081  0.1214
17555TIP3    H174156   4.089   5.004  14.399 -0.3255  0.3888 -0.7999
17555TIP3    H274157   4.015   5.129  14.360 -2.1069  0.3208  2.0559
17556TIP3   OH274158   6.757   6.039  16.500 -0.0444 -0.0575 -0.3490
17556TIP3    H174159   6.721   6.096  16.432  0.8282 -1.7765 -2.3762
17556TIP3    H274160   6.844   6.076  16.519  0.9958 -1.2068 -2.4776
17557TIP3   OH274161   2.278   4.553   6.370 -0.2160  0.6311  0.1469
17557TIP3    H174162   2.332   4.612   6.317 -1.1709  1.8340  0.4688
17557TIP3    H274163   2.226   4.611   6.425  0.1444 -0.5565  1.8344
17558TIP3   OH274164   5.689   4.756   2.987  0.4347  0.2178  0.4251
17558TIP3    H174165   5.625   4.752   3.058  0.2073 -1.6847  0.1587
17558TIP3    H274166   5.647   4.809   2.919 -1.2389 -1.6061 -0.0607
17559TIP3   OH274167   0.855   1.254  12.084 -0.8100 -0.0093 -0.0157
17559TIP3    H174168   0.874   1.347  12.070 -0.5064 -0.1591 -0.6167
17559TIP3    H274169   0.802   1.229  12.009  0.2606 -0.6566 -0.5729
17560TIP3   OH274170   5.866   3.934  13.728  0.0383 -0.4826  0.0762
17560TIP3    H174171   5.806   3.915  13.656  0.3460  0.9120 -0.5919
17560TIP3    H274172   5.809   3.949  13.803 -0.6655  2.4733 -0.9166
17561TIP3   OH274173   4.970   1.330   1.943 -0.1737 -0.0577 -0.1157
17561TIP3    H174174   5.037   1.392   1.913  1.2241 -1.4974 -0.0821
17561TIP3    H274175   4.936   1.290   1.864 -0.3040 -0.0492 -0.0656
17562TIP3   OH274176   0.689   6.442  12.979 -0.5501  0.1885  0.1779
17562TIP3    H174177   0.653   6.510  12.922 -0.3549  0.2541  0.1326
17562TIP3    H274178   0.665   6.360  12.937 -1.7269  0.2039  0.7916
17563TIP3   OH274179   4.149   5.811  14.289  1.3236 -0.0210 -0.1512
17563TIP3    H174180   4.106   5.888  14.326  1.1383 -0.7929  1.3106
17563TIP3    H274181   4.241   5.836  14.281  1.7629 -0.3986  2.6731
17564TIP3   OH274182   5.578   3.572  11.557  0.2519  0.1309  0.3020
17564TIP3    H174183   5.543   3.589  11.469  1.7381 -1.3243 -0.6495
17564TIP3    H274184   5.543   3.643  11.611 -0.1008  1.5255 -1.6244
17565TIP3   OH274185   0.540   0.837   2.725 -0.5765  0.3257 -0.4227
17565TIP3    H174186   0.556   0.788   2.806  1.3774  0.4739 -0.6686
17565TIP3    H274187   0.593   0.916   2.734  0.1995  0.0441 -2.1029
17566TIP3   OH274188   6.272   3.712  17.234  0.0674  0.0030  0.2169
17566TIP3    H174189   6.186   3.676  17.254  0.1358  0.7904  2.1895
17566TIP3    H274190   6.333   3.641  17.256  0.0191  0.1476  0.8366
17567TIP3   OH274191   6.303   1.634  16.412 -0.5202 -0.3809 -0.3133
17567TIP3    H174192   6.339   1.698  16.474  2.7957 -0.6274 -1.7665
17567TIP3    H274193   6.226   1.677  16.376  0.3643  1.9068  0.3114
17568TIP3   OH274194   2.337   1.655   2.815 -0.3104 -0.0790  0.1923
17568TIP3    H174195   2.339   1.749   2.833 -2.0157 -0.4605  2.9165
17568TIP3    H274196   2.244   1.634   2.810  0.0517 -1.6060 -0.6061
17569TIP3   OH274197   4.682   0.994   5.043 -0.4539  0.3762 -0.0676
17569TIP3    H174198   4.704   0.901   5.037 -2.1699 -0.1976  1.4294
17569TIP3    H274199   4.742   1.037   4.983  1.3273 -1.5351  0.2438
17570TIP3   OH274200   5.468   4.010  12.297 -0.0520 -0.3143  0.3992
17570TIP3    H174201   5.536   4.062  12.341 -1.1013 -0.0374  1.7567
17570TIP3    H274202   5.493   4.012  12.205  2.3936 -1.1215  0.9411
17571TIP3   OH274203   1.972   3.539   3.352  0.2072 -0.4733  0.6992
17571TIP3    H174204   1.957   3.618   3.404  1.8262 -0.7277  1.6321
17571TIP3    H274205   1.970   3.568   3.261 -1.5989  0.1779  0.9122
17572TIP3   OH274206   3.968   1.177  16.598 -0.4683 -0.3252 -0.4150
17572TIP3    H174207   4.023   1.109  16.560  0.8517 -0.1685  1.1226
17572TIP3    H274208   3.993   1.257  16.550  2.1096  0.1254  1.4685
17573TIP3   OH274209   3.227   6.068  15.317 -0.5153  0.5142 -0.3781
17573TIP3    H174210   3.177   5.993  15.350  0.3454 -0.5047 -1.2791
17573TIP3    H274211   3.279   6.032  15.245 -1.7062  2.4459 -2.3312
17574TIP3   OH274212   2.002   4.743  11.847  0.2076 -0.2398 -0.1571
17574TIP3    H174213   1.974   4.697  11.927 -0.8322  0.2085 -0.2464
17574TIP3    H274214   1.921   4.760  11.800  0.7540  0.1050 -0.9883
17575TIP3   OH274215   2.845   3.494  10.748 -0.6451  0.6160  0.0082
17575TIP3    H174216   2.786   3.445  10.692 -0.5344  0.2630  0.1994
17575TIP3    H274217   2.791   3.522  10.822 -0.6561  0.6015  0.0056
17576TIP3   OH274218   1.188   4.866   1.189 -0.6728  0.3228 -0.4101
17576TIP3    H174219   1.155   4.935   1.132  0.2801  0.0795 -1.2939
17576TIP3    H274220   1.207   4.910   1.272 -0.5525  1.0095 -0.7940
17577TIP3   OH274221   6.053   6.261   3.861 -0.5443  0.1810 -0.3852
17577TIP3    H174222   6.049   6.181   3.914  1.7585 -0.2777 -0.8190
17577TIP3    H274223   6.146   6.279   3.851 -1.0096  2.9945 -0.2531
17578TIP3   OH274224   1.865   5.779  15.839 -0.4469  0.1016 -0.1796
17578TIP3    H174225   1.946   5.747  15.799  0.0872 -0.8587  1.5498
17578TIP3    H274226   1.878   5.874  15.848  1.6201 -0.2990  2.3018
17579TIP3   OH274227   4.244   4.035   2.106 -0.2789  0.1300  0.0229
17579TIP3    H174228   4.285   4.113   2.069 -0.1110  0.8721  1.6619
17579TIP3    H274229   4.229   4.057   2.198 -3.0628 -0.6305 -0.1461
17580TIP3   OH274230   4.321   5.991   0.347 -0.0057 -0.0936  0.3071
17580TIP3    H174231   4.328   5.895   0.349  1.1533 -0.0909 -1.4220
17580TIP3    H274232   4.275   6.009   0.265 -0.4838  0.8403  0.7682
17581TIP3   OH274233   0.434   0.274   3.232 -0.1062 -0.2957 -0.2856
17581TIP3    H174234   0.481   0.267   3.149  0.1528  0.3069 -0.1943
17581TIP3    H274235   0.480   0.342   3.280 -0.4557 -0.4129  0.2240
17582TIP3   OH274236   1.354   6.173   3.129 -0.5021 -0.0957 -0.1161
17582TIP3    H174237   1.351   6.112   3.055  0.3361 -2.1551  1.4203
17582TIP3    H274238   1.305   6.249   3.100 -0.2689 -0.8482 -2.7423
17583TIP3   OH274239   1.219   0.131  15.340 -0.4043 -0.4066 -0.2556
17583TIP3    H174240   1.188   0.220  15.358 -0.8128 -0.9479  2.0367
17583TIP3    H274241   1.249   0.099  15.425  1.1884 -1.9308 -1.3370
17584TIP3   OH274242   5.414   6.236  11.042 -0.1104  0.2405  0.9164
17584TIP3    H174243   5.440   6.246  11.133  0.7167 -1.5590  0.9154
17584TIP3    H274244   5.345   6.170  11.044 -1.5279  1.6426  0.4171
17585TIP3   OH274245   5.805   4.900  12.183  0.0014  0.4604 -0.3484
17585TIP3    H174246   5.781   4.807  12.182  0.0258  0.4543 -0.3546
17585TIP3    H274247   5.877   4.905  12.246  0.2080  0.4257 -0.5819
17586TIP3   OH274248   5.344   3.611   2.982 -0.5460  0.1690  0.4189
17586TIP3    H174249   5.375   3.578   2.897 -1.1713 -0.9138  0.5886
17586TIP3    H274250   5.395   3.690   2.997  1.7361 -1.1986  0.4094
17587TIP3   OH274251   0.234   4.704  16.591 -0.3072 -0.5543 -0.6043
17587TIP3    H174252   0.275   4.704  16.678  1.7033 -0.9399 -1.4916
17587TIP3    H274253   0.273   4.778  16.546 -0.1884 -1.2371 -1.6597
17588TIP3   OH274254   6.713   0.746  15.409 -0.3033  0.0975 -0.0917
17588TIP3    H174255   6.720   0.704  15.495 -0.3433  1.4170  0.5803
17588TIP3    H274256   6.645   0.813  15.420  0.9670  1.5342 -0.5904
17589TIP3   OH274257   5.121   6.010  11.671 -0.5692 -0.0974  0.3452
17589TIP3    H174258   5.074   6.049  11.745 -0.9062 -0.9403  0.5948
17589TIP3    H274259   5.058   5.948  11.633 -0.8153  1.1621 -1.3906
17590TIP3   OH274260   1.298   2.285  17.256  0.1552  0.2522  0.4649
17590TIP3    H174261   1.230   2.315  17.197  1.1165  1.6932  0.0288
17590TIP3    H274262   1.252   2.262  17.337 -0.9673 -0.0096 -0.2400
17591TIP3   OH274263   2.083   3.035   1.449 -0.0724  0.3554  0.0759
17591TIP3    H174264   2.037   3.020   1.367  0.1527  0.0770  0.0014
17591TIP3    H274265   2.128   2.953   1.467 -0.5051  0.2480  0.7216
17592TIP3   OH274266   6.353   4.988   1.004 -0.0623 -0.1925  0.1958
17592TIP3    H174267   6.399   4.930   0.943  1.0414 -1.0155  1.7375
17592TIP3    H274268   6.275   4.937   1.030 -0.5235  0.1513 -0.4932
17593TIP3   OH274269   6.631   6.700   1.053  0.1453  0.5355  0.1581
17593TIP3    H174270   6.578   6.651   1.117  0.6048 -1.6378 -1.0167
17593TIP3    H274271   6.567   6.746   0.999 -0.3891  0.2699  0.5502
17594TIP3   OH274272   0.410   0.966  14.738  0.1803 -0.1427 -0.3225
17594TIP3    H174273   0.376   1.010  14.817  0.1199 -0.6856 -0.0403
17594TIP3    H274274   0.385   0.874  14.749 -2.2716  0.1751 -2.2646
17595TIP3   OH274275   1.344   6.304   5.150 -0.0357 -0.5406  0.6256
17595TIP3    H174276   1.341   6.276   5.059 -0.9291 -0.9808  0.7749
17595TIP3    H274277   1.252   6.312   5.176  0.2029 -0.5867  1.5404
17596TIP3   OH274278   4.314   4.463  10.988 -0.1466  0.6444  0.1392
17596TIP3    H174279   4.253   4.409  10.938  0.3320  0.8163 -0.6498
17596TIP3    H274280   4.359   4.516  10.922 -1.1004  2.5458  0.9447
17597TIP3   OH274281   6.633   6.756  16.224 -0.0318 -0.0075 -0.5166
17597TIP3    H174282   6.726   6.764  16.245 -0.0453 -0.7218 -0.1510
17597TIP3    H274283   6.587   6.800  16.295 -0.0429 -1.6038  0.5142
17598TIP3   OH274284   2.133   3.630   5.066  0.1586  0.7074 -0.1220
17598TIP3    H174285   2.162   3.700   5.125  0.2137  0.8602 -0.3282
17598TIP3    H274286   2.139   3.550   5.118  2.6495  0.4668 -0.6636
17599TIP3   OH274287   5.620   3.004  10.761 -0.3237 -0.3033 -0.2164
17599TIP3    H174288   5.533   3.043  10.764 -0.8429 -1.4934  1.3594
17599TIP3    H274289   5.606   2.910  10.773  1.2823 -0.2724  3.0869
17600TIP3   OH274290   4.063   4.087   4.001  0.4003 -0.1768 -0.3713
17600TIP3    H174291   3.969   4.069   4.008  0.8635 -2.4061  1.4406
17600TIP3    H274292   4.080   4.091   3.907 -1.1147 -2.3431 -0.8024
17601TIP3   OH274293   3.557   4.068   4.597 -0.7003 -0.0392 -0.4031
17601TIP3    H174294   3.491   4.104   4.538 -0.2944 -0.2344 -0.9907
17601TIP3    H274295   3.638   4.072   4.547 -0.1355  0.7667  0.5220
17602TIP3   OH274296   4.190   3.205  16.612 -0.6052  0.2358  0.4719
17602TIP3    H174297   4.127   3.159  16.557 -1.2614  0.0554  1.3503
17602TIP3    H274298   4.154   3.198  16.701  1.9764 -2.2954  1.4888
17603TIP3   OH274299   2.749   2.396   1.745 -0.0286  0.4730 -0.5430
17603TIP3    H174300   2.833   2.436   1.770  0.7776 -1.3186 -0.2350
17603TIP3    H274301   2.688   2.423   1.814  0.1004  2.3221 -1.1098
17604TIP3   OH274302   5.405   5.359   4.020 -0.4259 -0.6453 -0.2759
17604TIP3    H174303   5.377   5.388   4.107  1.5998  0.3221  0.1133
17604TIP3    H274304   5.362   5.419   3.959 -0.4546 -0.1872  0.1915
17605TIP3   OH274305   4.519   3.279   3.514 -0.1068 -0.1196  0.1294
17605TIP3    H174306   4.467   3.289   3.594 -0.5163  2.7835 -0.4149
17605TIP3    H274307   4.454   3.277   3.443  0.3429 -1.0093 -0.2763
17606TIP3   OH274308   3.622   0.128  15.978 -0.2587 -0.2191 -0.1985
17606TIP3    H174309   3.558   0.181  15.930 -0.4795  0.9763  1.3338
17606TIP3    H274310   3.700   0.128  15.922 -0.3358  1.5289 -0.3753
17607TIP3   OH274311   3.816   3.888   2.650  0.4250 -0.3077  0.3829
17607TIP3    H174312   3.846   3.977   2.632 -0.4667 -0.2595 -0.9849
17607TIP3    H274313   3.818   3.844   2.565  3.1287 -2.3652  1.3576
17608TIP3   OH274314   2.809   1.567  16.534 -0.1775  0.3224 -0.3262
17608TIP3    H174315   2.850   1.654  16.540  0.4537  0.0848 -1.0240
17608TIP3    H274316   2.856   1.513  16.598 -1.2064  0.7106  0.8115
17609TIP3   OH274317   6.260   3.573   5.193  0.7482 -0.2813 -0.0335
17609TIP3    H174318   6.285   3.494   5.145 -1.5743  0.4811 -2.8511
17609TIP3    H274319   6.338   3.629   5.190  2.0429 -1.9549  0.9886
17610TIP3   OH274320   0.225   0.589   5.541 -0.1354 -0.4870  0.6202
17610TIP3    H174321   0.143   0.540   5.536 -0.3073 -0.1013 -1.2053
17610TIP3    H274322   0.217   0.642   5.620 -2.6521  1.2184 -0.6314
17611TIP3   OH274323   3.899   1.648  15.190 -0.5938 -0.1534 -0.0020
17611TIP3    H174324   3.809   1.676  15.206 -0.8283 -1.7988  1.8764
17611TIP3    H274325   3.894   1.553  15.179  1.1332 -0.6302  2.5042
17612TIP3   OH274326   5.108   1.751  14.635 -0.8030  0.5704  0.2420
17612TIP3    H174327   5.149   1.681  14.584 -0.7171  1.5284 -1.0400
17612TIP3    H274328   5.036   1.782  14.580 -0.1541  2.2165  0.2881
17613TIP3   OH274329   1.215   2.993   4.779  0.0863 -0.1257  0.0044
17613TIP3    H174330   1.277   3.034   4.840  0.5837 -1.9255  0.7636
17613TIP3    H274331   1.129   3.018   4.813  0.3069  2.2485 -0.9556
17614TIP3   OH274332   5.659   2.665  14.108  0.3161  0.2697  0.2604
17614TIP3    H174333   5.589   2.675  14.172  0.1144 -1.1703  0.2847
17614TIP3    H274334   5.635   2.726  14.037 -0.6576  0.2110  0.5272
17615TIP3   OH274335   2.241   3.727  12.257  0.4259 -0.1765 -0.3441
17615TIP3    H174336   2.161   3.713  12.206 -0.0348 -0.5203  0.4441
17615TIP3    H274337   2.310   3.737  12.192 -0.4806  1.6088 -1.0932
17616TIP3   OH274338   6.318   5.658   0.767  0.0903 -0.5248  0.2624
17616TIP3    H174339   6.306   5.577   0.818  1.3562 -1.5416 -0.9797
17616TIP3    H274340   6.370   5.631   0.691 -2.3717  0.7595 -2.0428
17617TIP3   OH274341   5.842   5.616   2.085 -0.0375 -0.1703 -0.1999
17617TIP3    H174342   5.910   5.611   2.017  0.1900  1.6870 -0.1538
17617TIP3    H274343   5.773   5.558   2.053 -0.4163  1.4500 -2.6548
17618TIP3   OH274344   3.468   5.454   2.535  0.2352  0.1132 -0.1702
17618TIP3    H174345   3.561   5.444   2.512  0.1714  1.7831 -1.3600
17618TIP3    H274346   3.435   5.364   2.542  1.3573 -0.5347 -2.2902
17619TIP3   OH274347   3.404   0.497   3.321 -0.1978  0.0511  0.3093
17619TIP3    H174348   3.443   0.429   3.376  1.0169  0.4986  0.0284
17619TIP3    H274349   3.319   0.460   3.295 -0.3736 -0.5699  1.6677
17620TIP3   OH274350   3.886   6.107   3.939  0.2819 -0.1194 -0.4978
17620TIP3    H174351   3.917   6.033   3.887 -0.4508 -0.4114 -0.5388
17620TIP3    H274352   3.793   6.113   3.918 -0.1492 -0.5371  1.1247
17621TIP3   OH274353   2.273   3.096  14.769 -0.4220 -0.2847 -0.1504
17621TIP3    H174354   2.311   3.175  14.730  1.3117 -0.6636  0.6582
17621TIP3    H274355   2.224   3.128  14.845 -0.1222  0.0605 -0.0991
17622TIP3   OH274356   4.110   0.123  16.137 -0.2217  0.1579 -0.2839
17622TIP3    H174357   4.121   0.029  16.157 -0.4434  0.0397 -0.7208
17622TIP3    H274358   4.196   0.150  16.103  0.4428  0.5635  1.5772
17623TIP3   OH274359   3.719   1.844  14.219 -0.3920  0.5770  0.4866
17623TIP3    H174360   3.740   1.901  14.145  0.0218 -0.2608 -0.0658
17623TIP3    H274361   3.801   1.836  14.268  0.1096 -1.0801 -0.5394
17624TIP3   OH274362   0.324   5.159  14.153 -0.4403  0.2334 -0.1431
17624TIP3    H174363   0.359   5.237  14.109 -0.2277 -0.7770 -1.8805
17624TIP3    H274364   0.400   5.104  14.168 -0.8071 -0.4133 -0.6068
17625TIP3   OH274365   3.638   3.092  15.873  0.0712 -0.0953 -0.2783
17625TIP3    H174366   3.625   3.182  15.905  1.9270 -0.1639  0.7898
17625TIP3    H274367   3.559   3.074  15.821 -1.4824  1.2835  1.4484
17626TIP3   OH274368   1.226   2.508   3.619  0.6801  0.0257 -0.9589
17626TIP3    H174369   1.230   2.456   3.539 -1.8333 -0.8306 -0.5959
17626TIP3    H274370   1.259   2.450   3.687  1.9819  0.4567 -1.1867
17627TIP3   OH274371   0.222   0.440  12.168 -0.1837  0.2500 -0.1824
17627TIP3    H174372   0.227   0.455  12.073 -2.3405  0.1179 -0.3727
17627TIP3    H274373   0.162   0.508  12.199 -1.2995 -1.0835  0.7051
17628TIP3   OH274374   3.200   1.809  14.845  0.0572 -0.4262 -0.0960
17628TIP3    H174375   3.141   1.841  14.913 -1.4879 -1.4830 -0.8720
17628TIP3    H274376   3.286   1.844  14.869 -0.9912  1.8651  0.6288
17629TIP3   OH274377   6.663   1.700  14.493  0.2412 -0.9878 -0.1887
17629TIP3    H174378   6.716   1.769  14.533 -0.5301  0.0720 -0.9723
17629TIP3    H274379   6.613   1.663  14.566  1.7853 -1.8112  0.5165
17630TIP3   OH274380   6.743   4.775   2.854  0.0724 -0.5547 -0.3426
17630TIP3    H174381   6.694   4.856   2.870  1.5425  0.8276 -2.3494
17630TIP3    H274382   6.734   4.725   2.935  1.8907  3.0590  2.3350
17631TIP3   OH274383   6.181   3.496   2.306  0.4863 -0.3717 -0.3915
17631TIP3    H174384   6.188   3.561   2.235 -0.2856 -1.8444 -1.8785
17631TIP3    H274385   6.099   3.451   2.289  0.0297 -0.4375  1.7865
17632TIP3   OH274386   6.762   6.307   1.217  0.8663  0.0464  0.6895
17632TIP3    H174387   6.739   6.387   1.265  1.6552 -0.1082  1.3496
17632TIP3    H274388   6.734   6.236   1.274  2.1861 -0.1406  1.1427
17633TIP3   OH274389   4.336   0.245   0.354  0.1772  0.0231 -0.3062
17633TIP3    H174390   4.259   0.195   0.381 -0.1132  2.2055  3.7257
17633TIP3    H274391   4.300   0.321   0.308  0.0665  0.1770  0.0352
17634TIP3   OH274392   3.113   2.621  13.085 -0.5665 -0.3923 -0.5935
17634TIP3    H174393   3.172   2.546  13.084  1.5365  1.1386  0.2615
17634TIP3    H274394   3.168   2.694  13.112 -2.5991  1.4131 -1.0459
17635TIP3   OH274395   1.186   0.911  15.042  0.4215 -0.0241  0.1737
17635TIP3    H174396   1.259   0.894  15.101  0.5659 -1.8072 -0.4539
17635TIP3    H274397   1.225   0.913  14.955 -0.1195  0.1696 -0.0704
17636TIP3   OH274398   4.262   4.100  12.738 -0.3996  0.2782 -0.3194
17636TIP3    H174399   4.268   4.092  12.833 -0.3824  0.3366 -0.3149
17636TIP3    H274400   4.202   4.173  12.724  1.2539  1.7069 -0.3279
17637TIP3   OH274401   2.953   6.228  13.321  0.7281  0.0606 -0.0411
17637TIP3    H174402   2.887   6.173  13.363  1.8119 -1.2709  0.0025
17637TIP3    H274403   3.003   6.168  13.266  1.2172  1.2374 -0.9346
17638TIP3   OH274404   3.011   4.637  14.035 -0.0224  0.3416  0.1525
17638TIP3    H174405   3.008   4.573  13.964 -0.1490  1.7168 -1.1212
17638TIP3    H274406   3.027   4.584  14.114 -0.2934 -1.2592 -0.8190
17639TIP3   OH274407   6.584   5.642  13.276  0.0683  0.8429 -0.1502
17639TIP3    H174408   6.572   5.547  13.271 -1.8750  0.9144  1.5732
17639TIP3    H274409   6.651   5.654  13.343  1.0490  0.6866 -1.0862
17640TIP3   OH274410   3.017   4.285   5.795 -0.1593 -0.1823 -0.4401
17640TIP3    H174411   2.975   4.357   5.748  0.7602  1.1429  0.6723
17640TIP3    H274412   3.088   4.327   5.844  0.6780 -1.9252 -0.0788
17641TIP3   OH274413   4.970   4.887   5.150  0.7899 -0.1306 -0.6002
17641TIP3    H174414   4.943   4.916   5.063 -2.0788  1.7447  0.7519
17641TIP3    H274415   4.977   4.968   5.201 -0.7004 -1.3114  1.6599
17642TIP3   OH274416   4.950   5.781  11.627 -0.1722 -0.2557  0.2120
17642TIP3    H174417   4.866   5.820  11.649 -0.8801 -0.5940 -1.7552
17642TIP3    H274418   4.930   5.689  11.609  0.4320 -0.1110 -1.2681
17643TIP3   OH274419   3.976   0.165   1.544 -0.0757 -0.1909  0.0592
17643TIP3    H174420   3.947   0.236   1.602  1.6684  0.1629  0.5593
17643TIP3    H274421   4.071   0.175   1.540  0.0003 -1.2188 -1.5846
17644TIP3   OH274422   0.587   0.617  15.654 -0.0874 -0.5600  0.7965
17644TIP3    H174423   0.510   0.580  15.610 -1.9568  1.6700  1.9590
17644TIP3    H274424   0.629   0.542  15.696 -1.7330 -1.8240  0.2863
17645TIP3   OH274425   0.629   1.978   5.124 -0.3107 -0.4526 -0.2262
17645TIP3    H174426   0.689   1.921   5.171 -1.1052  0.5477  2.1283
17645TIP3    H274427   0.675   2.001   5.043  1.1372 -2.1792  0.0555
17646TIP3   OH274428   2.135   5.708  13.183  0.2402 -0.1770  0.4834
17646TIP3    H174429   2.115   5.663  13.265  0.1008 -1.7099 -0.3425
17646TIP3    H274430   2.229   5.725  13.187  0.1358  0.2831  1.1903
17647TIP3   OH274431   2.058   3.945  11.654  0.1311  0.2813 -0.2270
17647TIP3    H174432   2.133   3.934  11.711  0.8045  0.2809 -1.0891
17647TIP3    H274433   2.020   4.029  11.679  0.8740  0.6392 -0.3068
17648TIP3   OH274434   5.253   1.560  11.480  0.0297  0.6076  0.3481
17648TIP3    H174435   5.212   1.545  11.394 -0.4120  0.0284  0.6529
17648TIP3    H274436   5.225   1.649  11.504  0.7729  1.0707 -0.4374
17649TIP3   OH274437   5.508   1.040   1.275  0.2497 -0.1341  0.0906
17649TIP3    H174438   5.517   1.068   1.184 -1.3322  0.2192  0.0194
17649TIP3    H274439   5.415   1.018   1.284 -0.4716  3.1295  2.5102
17650TIP3   OH274440   1.367   1.561  12.857 -0.1438 -0.2668 -0.6814
17650TIP3    H174441   1.308   1.504  12.907 -0.3560 -0.2335 -0.8949
17650TIP3    H274442   1.442   1.506  12.838 -0.0238 -0.2567 -0.2521
17651TIP3   OH274443   4.549   2.520  15.457 -0.1990  0.0357 -0.3592
17651TIP3    H174444   4.458   2.492  15.463 -0.1096 -0.0751  0.9959
17651TIP3    H274445   4.599   2.447  15.496  0.2280  1.1030  1.1842
17652TIP3   OH274446   1.375   0.202   3.234 -0.0506  0.1741  0.6944
17652TIP3    H174447   1.346   0.196   3.143  0.4102  1.2613  0.4604
17652TIP3    H274448   1.419   0.287   3.240 -1.0822  0.6645  2.2188
17653TIP3   OH274449   1.194   0.772  15.504  0.4316 -0.3924 -0.9292
17653TIP3    H174450   1.100   0.794  15.506  0.4504 -0.3130 -0.9347
17653TIP3    H274451   1.196   0.682  15.472  0.1593 -1.5351  1.9570
17654TIP3   OH274452   2.661   3.981   1.680 -0.7129 -0.2021  0.0827
17654TIP3    H174453   2.575   4.023   1.674 -0.6878 -0.3513 -3.7415
17654TIP3    H274454   2.719   4.051   1.712 -1.7661  0.7799 -0.0820
17655TIP3   OH274455   3.717   2.091  11.988 -0.2350 -0.3949  0.2158
17655TIP3    H174456   3.670   2.060  12.066 -1.6173 -0.8239 -0.7642
17655TIP3    H274457   3.746   2.011  11.944 -0.5047 -0.1886 -0.3401
17656TIP3   OH274458   2.705   3.583  16.443 -0.1211  0.2338  0.3833
17656TIP3    H174459   2.652   3.585  16.363 -1.8038  2.5796  1.4577
17656TIP3    H274460   2.702   3.491  16.471 -0.9693 -0.2835 -1.2798
17657TIP3   OH274461   6.647   4.899   6.575 -0.3517  0.4698 -0.3285
17657TIP3    H174462   6.616   4.899   6.485  1.1361 -0.3034 -0.8783
17657TIP3    H274463   6.638   4.808   6.603 -1.1345  0.7672  0.4501
17658TIP3   OH274464   2.687   1.679  12.171 -0.3002  0.2493  0.2711
17658TIP3    H174465   2.725   1.683  12.083  2.5398 -0.6057  1.3578
17658TIP3    H274466   2.695   1.768  12.205  1.7404 -0.0976  0.8154
17659TIP3   OH274467   4.423   6.671  10.915  0.2545 -0.1353 -0.1424
17659TIP3    H174468   4.359   6.740  10.937  0.7910  0.4449 -0.3608
17659TIP3    H274469   4.507   6.708  10.941  0.5513 -0.7150 -0.2742
17660TIP3   OH274470   1.745   1.604  14.568 -0.3915 -0.2047  0.6892
17660TIP3    H174471   1.764   1.606  14.661  0.3259 -0.6170  0.5546
17660TIP3    H274472   1.818   1.556  14.529 -1.2654 -1.0615  0.0526
17661TIP3   OH274473   6.241   2.241  14.385  0.2818  0.0415 -0.1391
17661TIP3    H174474   6.178   2.308  14.415  0.6243 -0.4778  1.9102
17661TIP3    H274475   6.187   2.162  14.374  0.1393  0.2570 -1.0039
17662TIP3   OH274476   4.717   5.463   4.419  0.8911 -0.3541  0.0743
17662TIP3    H174477   4.735   5.530   4.485  0.3110  0.5485 -0.6594
17662TIP3    H274478   4.723   5.380   4.467 -2.4372  0.3301  2.0436
17663TIP3   OH274479   0.565   5.085  12.680  0.5738 -0.4786  0.0492
17663TIP3    H174480   0.632   5.134  12.633 -1.3381  2.8007  0.4335
17663TIP3    H274481   0.517   5.038  12.612  0.8488  0.3289 -0.7172
17664TIP3   OH274482   4.724   1.454   5.003  0.0280  0.0482 -0.1362
17664TIP3    H174483   4.757   1.540   5.029 -1.2083  0.2818  0.7770
17664TIP3    H274484   4.802   1.404   4.978  0.8274  1.2106 -0.0312
17665TIP3   OH274485   1.330   5.415   0.580  0.4017 -0.0431 -0.0161
17665TIP3    H174486   1.353   5.323   0.595  0.5714 -0.1853 -1.0819
17665TIP3    H274487   1.414   5.458   0.561  0.0939 -0.1245 -1.7220
17666TIP3   OH274488   2.606   0.119   4.106  0.3709 -0.0857 -0.6464
17666TIP3    H174489   2.647   0.042   4.066  2.2933  0.2988  0.4433
17666TIP3    H274490   2.662   0.192   4.080 -0.1229  0.5982  0.1806
17667TIP3   OH274491   4.450   2.646   2.625 -0.1971  0.0710  0.3278
17667TIP3    H174492   4.531   2.600   2.650 -0.7990  0.1434  2.6785
17667TIP3    H274493   4.464   2.736   2.654 -0.0273  0.8129 -1.9310
17668TIP3   OH274494   2.474   6.174  13.301  0.4400 -0.3453  0.5909
17668TIP3    H174495   2.559   6.219  13.302  1.0937 -1.4410 -1.0267
17668TIP3    H274496   2.476   6.117  13.378 -0.1232  1.8141  2.2803
17669TIP3   OH274497   3.655   6.308  16.020  0.6205 -0.3277 -1.2331
17669TIP3    H174498   3.606   6.307  16.103 -1.3772  0.2606 -2.3415
17669TIP3    H274499   3.745   6.290  16.046  0.0325 -0.3588  1.0522
17670TIP3   OH274500   4.321   0.802  13.384 -0.0697  0.3199  0.6661
17670TIP3    H174501   4.233   0.799  13.421 -0.2444  0.1018  0.2376
17670TIP3    H274502   4.322   0.882  13.330 -1.0502 -1.2598 -1.8722
17671TIP3   OH274503   6.086   3.814  13.878  0.3877 -0.7316  0.7235
17671TIP3    H174504   6.152   3.752  13.847  0.7813  0.6594 -1.4065
17671TIP3    H274505   6.025   3.823  13.805 -0.9978 -0.3888  1.8781
17672TIP3   OH274506   0.521   1.277  15.101 -0.0144 -0.6954 -0.3187
17672TIP3    H174507   0.482   1.191  15.115  1.8008 -1.4572  0.3919
17672TIP3    H274508   0.578   1.266  15.025  1.3915 -0.5642  0.6854
17673TIP3   OH274509   6.126   4.475   1.682 -0.3343 -0.2631 -0.2466
17673TIP3    H174510   6.189   4.413   1.720 -0.2176 -0.1788 -0.3005
17673TIP3    H274511   6.177   4.555   1.667  0.1543 -0.9081 -2.4323
17674TIP3   OH274512   3.653   3.254   0.904  0.2110 -0.3831  0.4132
17674TIP3    H174513   3.580   3.241   0.964  0.0485  0.6300  0.4433
17674TIP3    H274514   3.715   3.309   0.952  0.6850 -0.6658  0.1363
17675TIP3   OH274515   1.926   6.455   6.736 -0.1584  0.2921  0.6912
17675TIP3    H174516   1.982   6.525   6.768 -0.3099 -0.2341  2.1862
17675TIP3    H274517   1.986   6.392   6.695  0.1763  0.4385  0.9577
17676TIP3   OH274518   1.945   0.716   5.175 -0.5545 -0.1675 -0.0965
17676TIP3    H174519   1.973   0.624   5.175  0.1890  0.0526  0.4420
17676TIP3    H274520   2.026   0.766   5.163 -0.7928  0.4628  0.8426
17677TIP3   OH274521   1.340   5.696  13.640  0.2562  0.0734 -0.0807
17677TIP3    H174522   1.346   5.776  13.692 -1.7618 -0.8268  1.6939
17677TIP3    H274523   1.378   5.628  13.695  1.3686 -0.3398 -1.3019
17678TIP3   OH274524   5.073   3.398   4.074  0.1447 -0.2186 -0.1979
17678TIP3    H174525   5.026   3.328   4.028  0.6734  0.2623 -1.5170
17678TIP3    H274526   5.015   3.423   4.146 -0.9396 -0.6505 -0.9032
17679TIP3   OH274527   3.171   2.571  15.174  0.5844 -0.0044  0.0626
17679TIP3    H174528   3.153   2.620  15.093  0.4246  0.4199  0.3507
17679TIP3    H274529   3.232   2.626  15.222 -0.8052  0.6955  1.1079
17680TIP3   OH274530   1.340   4.291   2.315  0.2277  0.1368  0.3417
17680TIP3    H174531   1.416   4.347   2.329  0.6814 -0.4536  0.3044
17680TIP3    H274532   1.346   4.264   2.223 -0.6745  1.0141  0.0141
17681TIP3   OH274533   2.104   4.511   0.651  0.0135  0.5163 -0.3770
17681TIP3    H174534   2.009   4.508   0.662  0.2054  0.9200  1.7770
17681TIP3    H274535   2.136   4.435   0.701  0.8760  0.8389 -0.4261
17682TIP3   OH274536   3.442   4.967   0.402 -0.2196  0.7063  0.0645
17682TIP3    H174537   3.395   4.972   0.319 -0.1255 -2.2237 -0.2512
17682TIP3    H274538   3.446   4.874   0.423 -2.1424  1.3540  4.4837
17683TIP3   OH274539   5.908   2.555   2.073 -0.1035 -0.3114  0.4285
17683TIP3    H174540   5.964   2.598   2.008  1.0874 -1.2615  0.8121
17683TIP3    H274541   5.884   2.625   2.134 -0.1560  0.3060 -0.2862
17684TIP3   OH274542   4.736   1.673   3.222 -0.1562  0.1644  0.3901
17684TIP3    H174543   4.739   1.592   3.273 -2.7397  0.1385  0.6232
17684TIP3    H274544   4.704   1.646   3.136  0.0685  0.7835  0.1087
17685TIP3   OH274545   6.732   4.351   2.481 -0.2549  0.1813 -1.1406
17685TIP3    H174546   6.747   4.425   2.422  0.3262  1.1029  0.1173
17685TIP3    H274547   6.796   4.285   2.454  0.8641  1.0841 -0.7512
17686TIP3   OH274548   4.958   2.147  12.223  0.5969  0.0658 -0.4548
17686TIP3    H174549   4.949   2.052  12.221  0.3240  0.0898 -0.5421
17686TIP3    H274550   4.914   2.176  12.143  0.1467  0.3025 -0.1251
17687TIP3   OH274551   1.261   1.938   3.236  0.4185 -0.4485  0.4245
17687TIP3    H174552   1.320   1.865   3.218  1.3058  0.3917 -0.2169
17687TIP3    H274553   1.307   2.015   3.200 -1.0423  0.2347 -0.0463
17688TIP3   OH274554   5.632   1.836  15.871  0.2130  0.0913  0.1269
17688TIP3    H174555   5.686   1.772  15.917  0.0791 -0.1461 -0.0379
17688TIP3    H274556   5.690   1.875  15.806  0.3721  0.3457  0.4259
17689TIP3   OH274557   2.949   5.897  11.914 -0.5861  0.2516 -0.0463
17689TIP3    H174558   2.938   5.966  11.849  0.4168  0.3685 -0.1039
17689TIP3    H274559   2.862   5.888  11.954 -1.0413  0.6542 -0.9120
17690TIP3   OH274560   0.131   5.624   4.447  0.0242  0.2084 -0.1384
17690TIP3    H174561   0.167   5.551   4.497  2.8791  1.2826 -0.4352
17690TIP3    H274562   0.057   5.586   4.400 -0.8443 -1.5737  2.4421
17691TIP3   OH274563   4.957   1.972   5.707  0.2311 -0.2628 -0.0637
17691TIP3    H174564   5.045   1.994   5.738 -0.3622  0.2826  1.3030
17691TIP3    H274565   4.937   2.041   5.643  0.1580  0.6009  0.8616
17692TIP3   OH274566   2.684   1.931  12.602 -0.1916 -0.0220  0.4700
17692TIP3    H174567   2.601   1.954  12.644 -0.0465  2.4341 -0.3974
17692TIP3    H274568   2.700   1.841  12.628 -2.5843 -0.2180  1.5448
17693TIP3   OH274569   6.716   5.093   5.160  0.4747  1.1350  0.1397
17693TIP3    H174570   6.773   5.023   5.129 -2.0213 -0.7081 -0.5010
17693TIP3    H274571   6.659   5.113   5.086 -2.4980 -0.0837  1.9547
17694TIP3   OH274572   5.071   0.157  13.414 -0.3155 -0.1983  0.0315
17694TIP3    H174573   5.095   0.094  13.483 -0.2028  0.5377  0.6755
17694TIP3    H274574   5.048   0.237  13.462 -0.6002  0.2073 -0.7736
17695TIP3   OH274575   0.680   3.519  12.986 -0.1932  0.0183  0.2461
17695TIP3    H174576   0.649   3.595  12.937 -0.1476 -0.5924 -0.7471
17695TIP3    H274577   0.751   3.553  13.040  0.6732  0.4454 -1.1236
17696TIP3   OH274578   6.515   2.036   3.848 -0.4820  0.1905  0.9267
17696TIP3    H174579   6.450   1.965   3.841 -0.2831  0.0283  0.7154
17696TIP3    H274580   6.553   2.024   3.935  0.9460 -1.1920  0.1749
17697TIP3   OH274581   6.808   2.233  11.767  0.2167 -0.1085 -0.1445
17697TIP3    H174582   6.770   2.320  11.759 -0.3900  0.1466  3.5584
17697TIP3    H274583   6.874   2.242  11.836  0.9013 -2.3484 -0.4179
17698TIP3   OH274584   2.898   0.200   0.516 -0.0680  0.2390  0.2714
17698TIP3    H174585   2.959   0.137   0.555  0.3530  0.6810  0.3363
17698TIP3    H274586   2.950   0.245   0.449 -1.3009 -1.9675 -2.3945
17699TIP3   OH274587   3.930   1.324  11.856  0.0860 -0.1335 -0.3582
17699TIP3    H174588   3.934   1.338  11.950 -2.1911  1.4239 -0.3990
17699TIP3    H274589   3.875   1.246  11.845  0.0555 -0.1082 -0.3879
17700TIP3   OH274590   2.938   2.168  16.042  0.5647 -0.3044 -0.2796
17700TIP3    H174591   2.971   2.242  16.093  0.6456 -1.3533  1.2633
17700TIP3    H274592   3.016   2.121  16.014  0.5066 -1.4330  1.3059
17701TIP3   OH274593   6.034   2.837   5.366 -0.4416 -0.4405  0.1994
17701TIP3    H174594   6.077   2.896   5.429 -1.0955 -0.6001  0.8082
17701TIP3    H274595   6.098   2.826   5.296  0.5435 -0.6996  1.1048
17702TIP3   OH274596   3.638   5.976   0.165 -1.0869  0.4297 -0.4255
17702TIP3    H174597   3.606   6.065   0.181  2.4340  2.5041 -3.2119
17702TIP3    H274598   3.680   5.950   0.247 -0.4293  2.2768 -0.1120
17703TIP3   OH274599   1.631   3.004   2.003  0.0352 -0.1972 -0.3186
17703TIP3    H174600   1.566   2.942   2.035  1.0135 -1.1706 -0.1510
17703TIP3    H274601   1.714   2.957   2.009  0.7441  0.9704 -0.6397
17704TIP3   OH274602   4.498   5.497  16.653  0.1992  0.0856 -0.4417
17704TIP3    H174603   4.451   5.431  16.703  0.9931 -0.3249 -0.2240
17704TIP3    H274604   4.443   5.514  16.576  0.4613 -1.5827 -1.0399
17705TIP3   OH274605   4.587   0.525  12.704  0.0541 -0.2658  0.2783
17705TIP3    H174606   4.575   0.454  12.767  0.2802  0.6645  1.4169
17705TIP3    H274607   4.508   0.579  12.714  0.1529 -0.0401 -0.1490
17706TIP3   OH274608   2.787   5.178   0.694  0.1968  0.2548  0.2285
17706TIP3    H174609   2.718   5.135   0.745 -0.6309  0.3790 -0.7745
17706TIP3    H274610   2.741   5.232   0.631  1.1956 -0.3315 -1.0416
17707TIP3   OH274611   2.476   3.953   0.183  0.2704  0.1967 -0.0316
17707TIP3    H174612   2.385   3.928   0.202 -0.2569  1.4270 -0.8168
17707TIP3    H274613   2.470   4.006   0.103  1.9276 -1.5674 -1.4376
17708TIP3   OH274614   6.606   1.456   5.360  0.0020 -0.0143 -0.6381
17708TIP3    H174615   6.672   1.521   5.384  1.9625 -1.7499 -1.0385
17708TIP3    H274616   6.613   1.389   5.428  0.9043 -1.7320 -2.3216
17709TIP3   OH274617   6.479   2.675  15.154 -0.1013 -0.0321  0.4220
17709TIP3    H174618   6.547   2.608  15.151 -1.3699 -1.3609 -0.8615
17709TIP3    H274619   6.398   2.625  15.169 -1.2099  1.0726 -1.5034
17710TIP3   OH274620   6.433   5.214  13.986  0.0358  0.0178  0.0398
17710TIP3    H174621   6.360   5.157  13.961  0.8202 -0.6059 -0.8490
17710TIP3    H274622   6.396   5.302  13.982 -0.5279 -0.2491 -0.9406
17711TIP3   OH274623   1.132   0.386  15.377  0.1122 -0.0697  0.1913
17711TIP3    H174624   1.141   0.468  15.328  0.7099  0.8127  1.7362
17711TIP3    H274625   1.050   0.348  15.344  0.7829  0.1817 -1.8986
17712TIP3   OH274626   0.786   0.201  13.732  0.4255  0.5307  0.2879
17712TIP3    H174627   0.841   0.208  13.654 -0.4229  0.4478 -0.3343
17712TIP3    H274628   0.748   0.113  13.726  2.4419 -0.5881  2.2432
17713TIP3   OH274629   6.437   6.242   5.409  0.5758  0.3406  0.0548
17713TIP3    H174630   6.381   6.201   5.343  2.8964  0.8573 -2.4269
17713TIP3    H274631   6.428   6.186   5.486 -0.5438 -1.6646 -1.4314
17714TIP3   OH274632   3.240   2.136  16.411 -0.5935  0.6275 -0.5084
17714TIP3    H174633   3.244   2.062  16.350  0.2425 -0.9993  1.3878
17714TIP3    H274634   3.164   2.186  16.384 -0.9116 -0.6650 -2.1609
17715TIP3   OH274635   1.103   3.192  16.426 -0.5097  0.3417 -0.0536
17715TIP3    H174636   1.169   3.249  16.467 -0.3317 -0.2136  0.4388
17715TIP3    H274637   1.073   3.242  16.349 -0.3193  1.0806  0.3369
17716TIP3   OH274638   1.390   3.468  12.518  0.2832 -0.2541  0.1373
17716TIP3    H174639   1.385   3.406  12.446 -1.8280 -0.4539  0.3866
17716TIP3    H274640   1.384   3.554  12.477  1.4371 -0.2558 -0.0698
17717TIP3   OH274641   1.451   0.233  14.773  0.5228 -0.2826  0.0971
17717TIP3    H174642   1.485   0.166  14.713  2.1334  0.0669  0.5761
17717TIP3    H274643   1.525   0.290  14.790 -0.8620  1.8041 -0.4754
17718TIP3   OH274644   5.662   0.404   0.087  0.1144 -0.9430  0.4370
17718TIP3    H174645   5.757   0.390   0.094  0.0577 -1.0768  0.9356
17718TIP3    H274646   5.642   0.380  -0.004  0.1940 -3.1155  0.9522
17719TIP3   OH274647   6.199   0.079  15.943  0.1925 -0.1565  0.1639
17719TIP3    H174648   6.170   0.162  15.906  0.3056 -0.3693 -0.4193
17719TIP3    H274649   6.127   0.018  15.924  0.6243 -0.4744 -0.4957
17720TIP3   OH274650   0.223   2.919  12.967  0.4690  0.0382 -0.0746
17720TIP3    H174651   0.185   2.866  13.037  0.9810  0.9031  0.8995
17720TIP3    H274652   0.305   2.876  12.945 -1.0104 -1.8930 -2.2540
17721TIP3   OH274653   1.180   1.110   4.528  0.1070  0.1193  0.6803
17721TIP3    H174654   1.205   1.160   4.605  1.6374  0.2238  0.1332
17721TIP3    H274655   1.261   1.072   4.495 -0.6696 -0.8156 -0.2701
17722TIP3   OH274656   3.245   4.066  15.610 -0.1494  0.1259  0.0411
17722TIP3    H174657   3.241   4.039  15.702 -1.3075  0.2947  0.0558
17722TIP3    H274658   3.154   4.064  15.581  0.3702 -1.8820 -1.6792
17723TIP3   OH274659   5.151   6.572  13.919  0.0738 -0.7802  0.3183
17723TIP3    H174660   5.099   6.497  13.891 -1.4298  0.2409  0.2482
17723TIP3    H274661   5.217   6.582  13.851 -1.5712 -0.2453 -1.2942
17724TIP3   OH274662   0.499   4.979   1.948 -0.3737  0.0911  0.4961
17724TIP3    H174663   0.448   5.019   1.878  0.0678 -2.1175 -1.2143
17724TIP3    H274664   0.480   4.886   1.941 -0.0077 -0.2525  3.1339
17725TIP3   OH274665   0.197   4.885   5.217 -0.2350  0.5070 -0.5754
17725TIP3    H174666   0.200   4.818   5.285 -0.6672  0.8615 -0.1994
17725TIP3    H274667   0.283   4.881   5.175 -0.2823 -0.3316 -0.6066
17726TIP3   OH274668   3.903   0.801  14.207  0.2267 -0.2365 -0.0707
17726TIP3    H174669   3.808   0.799  14.219  0.5429 -0.6186  2.9881
17726TIP3    H274670   3.923   0.894  14.193 -0.5324 -0.0514  0.0283
17727TIP3   OH274671   1.537   6.384  13.876 -0.0565  0.2363 -0.1795
17727TIP3    H174672   1.514   6.295  13.904 -1.0082  0.7431  0.7672
17727TIP3    H274673   1.519   6.386  13.782 -1.1542 -0.2636  0.0008
17728TIP3   OH274674   6.243   0.810   3.415  0.0871 -0.0497  0.3509
17728TIP3    H174675   6.164   0.806   3.362 -1.3701  1.6944  2.2568
17728TIP3    H274676   6.219   0.768   3.498  1.3971 -0.1661  0.6998
17729TIP3   OH274677   5.406   2.594  13.439  0.1158 -0.5385  0.5977
17729TIP3    H174678   5.455   2.580  13.520  0.8744  0.5445  0.3639
17729TIP3    H274679   5.341   2.661  13.461 -3.3994 -3.9222  1.6927
17730TIP3   OH274680   2.577   1.149  13.881  0.4543  0.0115  0.3499
17730TIP3    H174681   2.584   1.065  13.834 -0.7290  0.5419 -0.8372
17730TIP3    H274682   2.484   1.173  13.874  0.2245  0.1915  2.9059
17731TIP3   OH274683   1.368   2.033   4.255 -0.0895 -0.4924  0.2166
17731TIP3    H174684   1.392   2.045   4.163 -1.0341  0.1600  0.0330
17731TIP3    H274685   1.449   2.005   4.298  0.5053 -0.2293 -0.7016
17732TIP3   OH274686   6.671   5.058  16.817  0.5914  0.2019 -0.4926
17732TIP3    H174687   6.630   5.143  16.833  0.0859  0.2206 -1.7390
17732TIP3    H274688   6.660   5.010  16.899 -2.7165 -0.0820 -0.9551
17733TIP3   OH274689   6.290   6.355  14.187 -0.1916 -0.4068  0.6897
17733TIP3    H174690   6.204   6.374  14.150  0.4643  1.1014 -0.1576
17733TIP3    H274691   6.316   6.272  14.147 -0.0224  0.5920 -1.3677
17734TIP3   OH274692   3.074   4.411   2.747  0.3103  0.2121  0.4253
17734TIP3    H174693   3.072   4.318   2.723  0.1855  0.3360 -0.0566
17734TIP3    H274694   2.984   4.441   2.737  0.7644  1.0222 -2.0715
17735TIP3   OH274695   1.083   0.869  11.600 -0.1082 -0.4267 -0.0750
17735TIP3    H174696   1.073   0.820  11.682 -2.3382  0.2866  0.1517
17735TIP3    H274697   1.120   0.953  11.628 -1.5918  0.1150  0.3659
17736TIP3   OH274698   3.898   0.023   2.844 -0.1505 -0.4873  0.2598
17736TIP3    H174699   3.904   0.016   2.940  0.1059  1.7855  0.4652
17736TIP3    H274700   3.817   0.070   2.829  0.1749 -0.1869 -0.5982
17737TIP3   OH274701   3.901   2.380   4.242  0.1255  0.4686  0.5039
17737TIP3    H174702   3.872   2.378   4.151  0.5953 -0.6133  0.3758
17737TIP3    H274703   3.980   2.434   4.241  0.9828 -0.7543  0.0079
17738TIP3   OH274704   4.244   6.662   5.325  0.1716 -0.3109 -0.6940
17738TIP3    H174705   4.320   6.716   5.305 -1.0292  1.8955  0.3973
17738TIP3    H274706   4.194   6.659   5.244  0.0589  0.5389 -0.6605
17739TIP3   OH274707   4.037   6.124  16.999 -0.0521 -0.1053  0.3930
17739TIP3    H174708   4.012   6.035  16.975 -1.9537 -0.0339  1.8951
17739TIP3    H274709   3.956   6.175  16.992  1.1840  1.7880 -1.4136
17740TIP3   OH274710   0.049   3.078  16.844  0.1987 -0.4027  0.1372
17740TIP3    H174711   0.007   3.160  16.818  3.7440  1.6551  0.2981
17740TIP3    H274712   0.036   3.020  16.769  1.1202  1.7835 -1.8723
17741TIP3   OH274713   5.997   0.840   1.602 -0.2396 -0.0573 -0.7819
17741TIP3    H174714   5.908   0.809   1.613 -0.1592 -0.4645 -1.2155
17741TIP3    H274715   6.026   0.864   1.690 -0.1807 -1.5834 -0.3577
17742TIP3   OH274716   3.354   0.403   5.884 -0.3611 -0.3621 -0.6237
17742TIP3    H174717   3.394   0.488   5.904 -1.0538 -0.2945  0.5758
17742TIP3    H274718   3.376   0.348   5.958 -0.6965 -0.9532 -0.9566
17743TIP3   OH274719   1.246   2.501   4.620  0.0840  0.6179  0.8237
17743TIP3    H174720   1.300   2.424   4.606  0.1526  0.7805  0.1653
17743TIP3    H274721   1.156   2.470   4.611  0.0762  0.4196  1.5567
17744TIP3   OH274722   1.326   5.928  15.382  0.1637  0.5589 -0.2883
17744TIP3    H174723   1.319   5.836  15.408  1.3825  0.6694  0.5089
17744TIP3    H274724   1.235   5.957  15.371 -0.4374  0.1318  2.6706
17745TIP3   OH274725   6.146   0.851  13.294  0.5285  0.2175 -0.3734
17745TIP3    H174726   6.142   0.759  13.318 -0.5795  0.4007  0.2158
17745TIP3    H274727   6.208   0.855  13.221 -1.0321 -1.3000 -1.8702
17746TIP3   OH274728   2.153   3.155  11.590  0.6050  0.1066  0.7083
17746TIP3    H174729   2.209   3.082  11.613 -0.5447 -1.2758 -0.6777
17746TIP3    H274730   2.214   3.229  11.578  2.3115 -1.5714 -1.8121
17747TIP3   OH274731   6.143   3.118   4.377 -0.0022  0.0593  0.7114
17747TIP3    H174732   6.179   3.124   4.466  0.0094 -0.5287  0.7517
17747TIP3    H274733   6.157   3.204   4.339 -0.4568  0.4710  1.4558
17748TIP3   OH274734   5.247   4.671  14.096 -0.1848  0.0231  0.2181
17748TIP3    H174735   5.207   4.682  14.009 -1.1964  0.9930  0.7810
17748TIP3    H274736   5.336   4.702  14.086 -0.6436  1.2500 -0.2054
17749TIP3   OH274737   1.827   2.065   6.354  0.4878 -0.1641  0.4479
17749TIP3    H174738   1.909   2.015   6.350  1.2321  1.0462  0.2231
17749TIP3    H274739   1.806   2.069   6.447  1.5670  0.8970  0.6616
17750TIP3   OH274740   3.450   2.583  16.515  0.2859  0.3621  0.4290
17750TIP3    H174741   3.532   2.556  16.556  0.3853 -0.5736 -0.3206
17750TIP3    H274742   3.391   2.602  16.588  1.0026  0.5077  0.9797
17751TIP3   OH274743   6.160   1.547   1.955 -0.0747 -0.1727  0.1062
17751TIP3    H174744   6.144   1.480   2.021  0.7499 -1.8697 -1.3293
17751TIP3    H274745   6.253   1.538   1.935  0.0650  1.4707 -0.0853
17752TIP3   OH274746   4.143   1.800  16.899  0.2841 -0.1642  0.2683
17752TIP3    H174747   4.175   1.738  16.833 -2.3150 -1.2877 -0.0378
17752TIP3    H274748   4.105   1.745  16.967 -2.7865  0.9910 -0.3696
17753TIP3   OH274749   1.146   4.057  16.798 -0.0086 -0.3350 -0.1023
17753TIP3    H174750   1.236   4.084  16.818  0.0320 -1.9182  2.2428
17753TIP3    H274751   1.153   4.013  16.713  1.2321  0.4314 -0.4204
17754TIP3   OH274752   6.803   3.412   2.729  0.4235 -0.3193 -0.0418
17754TIP3    H174753   6.717   3.383   2.757  0.0110  1.6292  0.9033
17754TIP3    H274754   6.862   3.386   2.799  0.5894 -1.4471 -0.5812
17755TIP3   OH274755   6.055   2.643  11.583 -0.3400 -0.2154  0.2261
17755TIP3    H174756   6.087   2.561  11.546 -0.9637 -0.5519  0.4024
17755TIP3    H274757   5.959   2.635  11.580 -0.4086  0.1344  1.0449
17756TIP3   OH274758   1.586   3.340   3.799  0.7980  0.4343  0.2903
17756TIP3    H174759   1.539   3.423   3.803  3.0330  1.8738 -0.9154
17756TIP3    H274760   1.668   3.356   3.846  1.4359 -0.9482 -0.2838
17757TIP3   OH274761   6.552   1.087  10.970  0.2471  0.3483  0.2297
17757TIP3    H174762   6.573   1.086  10.877  1.3755  1.1932  0.4552
17757TIP3    H274763   6.458   1.070  10.973  0.0419  1.1027 -1.1115
17758TIP3   OH274764   6.096   4.039   0.370 -0.3002 -0.0799 -0.1754
17758TIP3    H174765   6.191   4.045   0.377 -0.2424 -0.0747 -0.8896
17758TIP3    H274766   6.077   3.946   0.381 -0.0148 -0.3957 -2.0377
17759TIP3   OH274767   4.618   5.466   0.391  0.4679  0.1315  0.2689
17759TIP3    H174768   4.668   5.489   0.313  0.5153 -2.7657 -0.6795
17759TIP3    H274769   4.527   5.475   0.366  0.4636 -1.5206 -0.4622
17760TIP3   OH274770   3.215   1.033  12.904 -0.1009  0.2686 -0.6177
17760TIP3    H174771   3.225   0.939  12.911 -0.2499  0.3354  0.6931
17760TIP3    H274772   3.296   1.069  12.939 -0.7194  0.6418  0.4781
17761TIP3   OH274773   4.920   4.237   3.118 -0.4254 -0.2569 -0.0019
17761TIP3    H174774   5.015   4.241   3.104 -0.6109  0.7752 -1.1952
17761TIP3    H274775   4.902   4.144   3.133  0.8591 -0.3762  0.9954
17762TIP3   OH274776   4.826   5.912   3.557 -0.5134 -0.3181  0.6243
17762TIP3    H174777   4.900   5.930   3.499 -2.1697  1.3425 -1.1047
17762TIP3    H274778   4.776   5.843   3.513 -0.5562 -0.7378  1.3000
17763TIP3   OH274779   2.677   4.811  15.288  0.1717 -0.2682  0.6871
17763TIP3    H174780   2.623   4.736  15.262  1.0247 -0.9280  0.7870
17763TIP3    H274781   2.655   4.880  15.225  1.5095 -1.5382 -1.2746
17764TIP3   OH274782   3.204   1.393   6.345  0.0626  0.2534 -0.0572
17764TIP3    H174783   3.269   1.390   6.416 -0.3825 -0.8366  0.3310
17764TIP3    H274784   3.177   1.302   6.334 -0.1721  0.4632 -1.3676
17765TIP3   OH274785   3.559   5.528  14.206 -0.1497 -0.5209  0.1545
17765TIP3    H174786   3.632   5.577  14.245 -1.2985  0.3482  1.2984
17765TIP3    H274787   3.551   5.564  14.118 -0.7209  1.1534  0.8400
17766TIP3   OH274788   6.246   0.030  13.659 -0.2027 -0.2834 -0.1055
17766TIP3    H174789   6.339   0.013  13.642 -0.0921 -1.8134  1.6919
17766TIP3    H274790   6.234   0.009  13.752 -1.7885  2.5312  0.4718
17767TIP3   OH274791   0.504   5.039  16.654  0.4509 -0.5346 -0.2122
17767TIP3    H174792   0.438   5.108  16.656  0.1133 -0.8112  2.8732
17767TIP3    H274793   0.467   4.972  16.597  0.7712  1.6641 -3.2668
17768TIP3   OH274794   1.401   5.010   2.228  0.4830 -0.2067 -0.3369
17768TIP3    H174795   1.389   5.099   2.195 -0.0325 -0.1700 -0.0581
17768TIP3    H274796   1.457   5.021   2.304  1.5033 -0.2687 -1.0626
17769TIP3   OH274797   5.615   4.456   0.847 -0.2501  0.3354 -0.1320
17769TIP3    H174798   5.687   4.395   0.828  0.7167  0.1967  3.2624
17769TIP3    H274799   5.538   4.414   0.809  0.9163 -1.3262 -0.7977
17770TIP3   OH274800   1.472   0.516   4.940  0.5805  0.3987  0.0762
17770TIP3    H174801   1.397   0.563   4.976  0.5286  0.2975  0.0999
17770TIP3    H274802   1.488   0.557   4.855 -0.6216 -0.7458 -0.7369
17771TIP3   OH274803   0.386   5.146   0.587 -0.1590  0.0291  0.0451
17771TIP3    H174804   0.395   5.089   0.663  0.5123 -0.1407 -0.1587
17771TIP3    H274805   0.356   5.230   0.624 -0.1654 -0.1510  0.4588
17772TIP3   OH274806   5.561   5.739  11.814 -0.0425 -0.0246 -0.2713
17772TIP3    H174807   5.613   5.660  11.830 -0.6267 -0.0415  1.7529
17772TIP3    H274808   5.472   5.714  11.838 -0.5289  0.7960 -1.1442
17773TIP3   OH274809   0.882   2.314  11.296  0.0054 -0.1793 -0.2153
17773TIP3    H174810   0.967   2.269  11.296 -0.3225 -0.8128  0.3305
17773TIP3    H274811   0.838   2.282  11.217  0.8435  1.2876 -1.3276
17774TIP3   OH274812   2.612   6.768  15.477  0.3345 -0.1785  0.5870
17774TIP3    H174813   2.647   6.796  15.562  1.3213 -0.2211  0.2039
17774TIP3    H274814   2.558   6.842  15.449 -0.5411 -0.4253  1.5396
17775TIP3   OH274815   1.704   3.542  13.557 -0.2132 -0.7707 -0.4731
17775TIP3    H174816   1.758   3.553  13.635 -0.4135  0.3289 -0.4846
17775TIP3    H274817   1.619   3.514  13.590 -0.5008  0.3570 -0.2418
17776TIP3   OH274818   6.443   2.422   5.355 -0.4975 -0.1328  0.4018
17776TIP3    H174819   6.475   2.491   5.297 -3.6655 -0.2169 -1.7296
17776TIP3    H274820   6.515   2.406   5.416  0.8715  4.1369  0.2407
17777TIP3   OH274821   0.240   2.654   0.722  0.4818  0.4053  0.5524
17777TIP3    H174822   0.185   2.575   0.726  0.4477  0.2542 -1.7299
17777TIP3    H274823   0.194   2.712   0.662  1.7687  1.1270  0.2430
17778TIP3   OH274824   2.843   2.835  13.917 -0.1677  0.4304  0.2686
17778TIP3    H174825   2.915   2.845  13.855 -0.4550  0.3805 -0.0776
17778TIP3    H274826   2.807   2.748  13.899 -1.7106  1.2925 -1.0886
17779TIP3   OH274827   5.568   3.803   0.202 -0.1757  0.2134 -0.2991
17779TIP3    H174828   5.509   3.878   0.194  0.9398  1.1061 -0.4164
17779TIP3    H274829   5.620   3.821   0.279 -0.4387 -0.8672  0.1566
17780TIP3   OH274830   3.276   5.421  13.358  0.0359 -0.3958 -0.2946
17780TIP3    H174831   3.325   5.425  13.440  1.3199  2.3923 -1.0869
17780TIP3    H274832   3.186   5.445  13.383  0.7774  2.2107  0.1389
17781TIP3   OH274833   0.227   1.766   0.319 -0.5144  1.1342  0.3525
17781TIP3    H174834   0.134   1.790   0.315 -0.6862  0.7594  1.5171
17781TIP3    H274835   0.273   1.841   0.282 -1.2971  1.1613 -0.5968
17782TIP3   OH274836   2.581   3.156  12.690  0.3493 -0.1362  0.3318
17782TIP3    H174837   2.626   3.241  12.689  0.3295 -0.1071  1.1711
17782TIP3    H274838   2.557   3.141  12.599  0.6089  0.6236  0.1265
17783TIP3   OH274839   0.148   1.081  15.427 -0.0543 -0.2789 -0.3709
17783TIP3    H174840   0.073   1.084  15.486 -1.0931  0.5044 -1.6664
17783TIP3    H274841   0.206   1.150  15.458 -0.4826 -0.0297 -0.1096
17784TIP3   OH274842   5.741   2.753   5.257  0.5167  0.1589 -0.5573
17784TIP3    H174843   5.696   2.776   5.338 -1.9430 -2.2854 -1.0790
17784TIP3    H274844   5.807   2.690   5.284  0.6056  0.3574 -0.3035
17785TIP3   OH274845   6.152   6.484  16.157  0.3504 -0.1092  0.1706
17785TIP3    H174846   6.078   6.462  16.101  0.1629 -0.8555  0.6964
17785TIP3    H274847   6.210   6.536  16.101  0.1929 -0.8802 -0.7378
17786TIP3   OH274848   1.277   0.733   0.498 -0.2143 -0.1722  0.3975
17786TIP3    H174849   1.251   0.647   0.531  2.3396 -0.8904  0.7892
17786TIP3    H274850   1.358   0.752   0.545  1.6554  0.4214 -2.7706
17787TIP3   OH274851   0.733   0.386   0.801  0.2555 -0.3529  0.0102
17787TIP3    H174852   0.809   0.443   0.797 -0.6372  1.0307  1.5606
17787TIP3    H274853   0.685   0.414   0.879 -3.9405  1.6095 -2.8750
17788TIP3   OH274854   4.538   4.093   5.250  0.3197  0.3743 -0.5480
17788TIP3    H174855   4.515   4.010   5.292  1.7520  0.4069  0.3828
17788TIP3    H274856   4.463   4.150   5.268  0.8407  0.3793  2.0750
17789TIP3   OH274857   1.331   2.348   3.810  0.3564  0.4179  0.0581
17789TIP3    H174858   1.387   2.271   3.817  0.5290  0.4797 -0.6025
17789TIP3    H274859   1.381   2.419   3.851  0.5605  0.3724 -0.1163
17790TIP3   OH274860   5.813   2.625  16.699 -0.8229  0.1197  0.1416
17790TIP3    H174861   5.719   2.616  16.685 -1.2174  1.8373  1.3346
17790TIP3    H274862   5.823   2.713  16.735  0.9103 -1.0541  2.8073
17791TIP3   OH274863   2.605   3.946   5.348 -0.0777  0.7670 -0.3124
17791TIP3    H174864   2.665   3.898   5.404  0.8979  1.3450 -0.8299
17791TIP3    H274865   2.519   3.938   5.390 -0.4663 -3.2546 -1.4346
17792TIP3   OH274866   1.249   5.788   2.578  0.1016 -0.1281  0.2018
17792TIP3    H174867   1.206   5.787   2.493 -0.0895 -1.8094  0.2733
17792TIP3    H274868   1.180   5.810   2.640  0.0050  0.0776  0.0203
17793TIP3   OH274869   2.949   2.164  11.560  0.5416  0.2816 -0.1865
17793TIP3    H174870   2.909   2.224  11.623 -2.6565  1.7344 -3.2437
17793TIP3    H274871   3.003   2.220  11.504  0.4817 -0.3318 -0.8698
17794TIP3   OH274872   3.231   4.415  11.611  0.0708  0.6428 -0.2179
17794TIP3    H174873   3.191   4.495  11.577  0.3284  0.2103 -1.6021
17794TIP3    H274874   3.167   4.346  11.593  1.0115  0.0976 -1.6088
17795TIP3   OH274875   5.119   2.912  16.738  0.6588  0.0261  0.3431
17795TIP3    H174876   5.041   2.968  16.730  0.5374 -0.0865  0.6954
17795TIP3    H274877   5.093   2.829  16.699  0.5181 -0.0890  0.6750
17796TIP3   OH274878   3.278   0.369   3.017  0.1413 -0.2385 -0.5423
17796TIP3    H174879   3.352   0.310   3.002 -1.4682 -2.3410 -0.5515
17796TIP3    H274880   3.238   0.337   3.098 -0.6016  1.0825 -0.3607
17797TIP3   OH274881   0.449   3.783  16.319 -0.5367 -0.8800 -0.2266
17797TIP3    H174882   0.495   3.734  16.250  0.3986 -1.6185  0.8839
17797TIP3    H274883   0.385   3.721  16.353 -0.4748 -0.7775  0.0764
17798TIP3   OH274884   6.391   5.853  16.789  0.2856 -0.0840  0.5592
17798TIP3    H174885   6.336   5.923  16.755  0.2879 -0.0976  0.5270
17798TIP3    H274886   6.475   5.865  16.745 -0.0427 -0.7608 -0.2958
17799TIP3   OH274887   5.468   2.778   5.146 -0.1717 -0.2180 -0.5864
17799TIP3    H174888   5.554   2.759   5.185  0.0452 -0.3559 -1.1177
17799TIP3    H274889   5.464   2.721   5.069 -0.9683 -0.6016 -0.2738
17800TIP3   OH274890   4.569   1.314   2.038  0.1138  0.1390  0.0192
17800TIP3    H174891   4.567   1.329   1.944  3.6903 -1.9751 -0.5813
17800TIP3    H274892   4.478   1.298   2.062 -1.0800  1.9940 -2.7755
17801TIP3   OH274893   3.592   2.849  17.186  0.5233 -0.1953 -0.6514
17801TIP3    H174894   3.603   2.775  17.245  0.5501  2.0412  2.3428
17801TIP3    H274895   3.528   2.818  17.121  0.8810 -2.9300  0.1707
17802TIP3   OH274896   6.773   1.857   0.267 -0.5566  0.4494  0.6088
17802TIP3    H174897   6.820   1.895   0.193  1.6173 -0.5841  1.3768
17802TIP3    H274898   6.742   1.933   0.316 -0.6040  1.1570 -0.4818
17803TIP3   OH274899   2.175   5.472  12.838  0.2672  0.5297 -0.3802
17803TIP3    H174900   2.179   5.428  12.922 -0.1960 -0.7490 -1.0070
17803TIP3    H274901   2.266   5.497  12.820  0.3964  0.6407  0.3963
17804TIP3   OH274902   0.378   6.565   5.323  0.1307  0.0646  0.3227
17804TIP3    H174903   0.351   6.508   5.251 -2.2914 -0.2770  1.4231
17804TIP3    H274904   0.362   6.513   5.402 -0.7103  1.7154  1.2817
17805TIP3   OH274905   2.927   5.230   3.788  0.5335 -0.3303 -0.9229
17805TIP3    H174906   2.851   5.285   3.806  0.2200 -1.3938  1.2877
17805TIP3    H274907   2.999   5.272   3.835  1.0623 -0.0290 -1.9616
17806TIP3   OH274908   6.804   5.750   5.498  0.1537 -0.1587 -0.1496
17806TIP3    H174909   6.730   5.748   5.559  0.0172  3.5090  0.0623
17806TIP3    H274910   6.764   5.772   5.413  0.5823 -3.0575 -1.2076
17807TIP3   OH274911   5.840   6.250   3.362  0.0561 -0.3320  0.3123
17807TIP3    H174912   5.903   6.323   3.366 -0.1124  0.0436 -2.4122
17807TIP3    H274913   5.882   6.180   3.412  1.6961  0.5885  0.2947
17808TIP3   OH274914   5.529   6.618  16.058 -0.1216 -0.7882  0.1050
17808TIP3    H174915   5.589   6.576  15.997 -1.7777 -1.2560 -1.2708
17808TIP3    H274916   5.474   6.674  16.003  0.5773  1.5503  1.6172
17809TIP3   OH274917   2.414   3.303   5.176  0.6034  0.5137 -0.3338
17809TIP3    H174918   2.497   3.256   5.172  0.2816  0.0238 -1.8128
17809TIP3    H274919   2.429   3.373   5.240  2.1576  0.4591 -0.6052
17810TIP3   OH274920   2.864   6.267   1.064  0.3491 -0.3616  0.5374
17810TIP3    H174921   2.944   6.314   1.086  0.0504  0.3618  0.1120
17810TIP3    H274922   2.802   6.291   1.134  0.0958  0.1485  0.1450
17811TIP3   OH274923   6.055   6.645  15.098  0.9402 -0.1100 -0.0406
17811TIP3    H174924   6.085   6.581  15.034 -1.8553 -1.2132 -0.3839
17811TIP3    H274925   6.006   6.709  15.047 -0.6538 -0.5716  0.8219
17812TIP3   OH274926   1.350   0.369  12.594 -0.2667  0.7371 -0.4841
17812TIP3    H174927   1.260   0.362  12.626  1.2673 -2.2081  4.3604
17812TIP3    H274928   1.356   0.302  12.526 -1.2096 -1.0275  1.0634
17813TIP3   OH274929   5.220   6.168   5.701 -0.3237  0.5296 -0.4624
17813TIP3    H174930   5.290   6.103   5.705 -1.6506 -0.8854  1.1918
17813TIP3    H274931   5.176   6.151   5.618 -0.0090  0.0106 -0.5270
17814TIP3   OH274932   5.183   0.539   0.617 -0.0341 -0.4404  0.0383
17814TIP3    H174933   5.156   0.447   0.621  0.4199 -0.5498  0.6420
17814TIP3    H274934   5.104   0.588   0.641 -0.3898 -0.6503 -0.6717
17815TIP3   OH274935   6.081   5.964  16.441 -0.0517  0.1663 -0.5426
17815TIP3    H174936   5.992   5.932  16.430 -1.1649  2.1914  1.5719
17815TIP3    H274937   6.094   5.968  16.536  2.2598  0.0969 -0.7903
17816TIP3   OH274938   2.734   1.828  12.991 -0.1924 -0.3895  0.2171
17816TIP3    H174939   2.640   1.849  12.988 -0.7352 -2.5965 -0.5316
17816TIP3    H274940   2.755   1.800  12.902  0.9431 -0.8081  0.5963
17817TIP3   OH274941   1.337   4.521   4.506  0.6644  0.0859 -0.8413
17817TIP3    H174942   1.355   4.501   4.598 -1.7859 -3.0983 -0.8543
17817TIP3    H274943   1.285   4.602   4.508  0.4166 -0.0888  0.6081
17818TIP3   OH274944   0.104   3.856   5.512  0.4432 -0.0513  0.0686
17818TIP3    H174945   0.175   3.812   5.558  2.7042  1.2142 -1.9502
17818TIP3    H274946   0.088   3.802   5.434  1.1442  1.0662 -0.8819
17819TIP3   OH274947   6.574   4.399   0.537 -0.4080  0.3272 -0.3007
17819TIP3    H174948   6.509   4.359   0.595 -0.8622 -0.7545 -1.5261
17819TIP3    H274949   6.625   4.456   0.595 -0.4716 -1.1522  1.2804
17820TIP3   OH274950   3.279   3.539  13.441  0.1638 -0.2317 -0.0644
17820TIP3    H174951   3.200   3.490  13.464  0.6085 -0.5381  0.8835
17820TIP3    H274952   3.349   3.497  13.492  0.6246  1.1252  0.4582
17821TIP3   OH274953   1.394   3.147   1.709  0.5053 -0.1594  0.2507
17821TIP3    H174954   1.400   3.148   1.805  1.6043 -0.9596  0.2048
17821TIP3    H274955   1.362   3.059   1.688  0.8308 -0.1859 -0.1381
17822TIP3   OH274956   3.623   4.809  11.578  0.0765  0.0673  0.1383
17822TIP3    H174957   3.567   4.801  11.655 -0.1885  0.9714  0.0471
17822TIP3    H274958   3.623   4.721  11.539  0.1472 -0.3757  1.1090
17823TIP3   OH274959   2.675   5.405  12.187 -0.1493  0.8101  0.5645
17823TIP3    H174960   2.708   5.378  12.101  1.8952  4.5105 -0.0060
17823TIP3    H274961   2.725   5.352  12.249  1.0745  0.6877 -0.4808
17824TIP3   OH274962   1.612   4.106   2.093 -0.1820 -0.2497  0.7049
17824TIP3    H174963   1.686   4.166   2.086 -0.3677 -0.1496 -0.5463
17824TIP3    H274964   1.535   4.161   2.080 -0.4535 -0.4564  1.4029
17825TIP3   OH274965   4.878   4.111  14.063  0.2742  0.6556 -0.2158
17825TIP3    H174966   4.799   4.073  14.102  0.7024  0.4328  0.4424
17825TIP3    H274967   4.871   4.204  14.081  0.9115  0.4581  1.2482
17826TIP3   OH274968   0.170   6.701  14.529 -0.1962 -0.1506  0.2037
17826TIP3    H174969   0.129   6.680  14.445  0.8231  0.0384 -0.3583
17826TIP3    H274970   0.099   6.735  14.583 -1.1159 -1.4654 -0.1539
17827TIP3   OH274971   4.728   0.848  10.777  0.2452  0.4566  0.1306
17827TIP3    H174972   4.652   0.790  10.773  1.3942 -1.1805  1.2060
17827TIP3    H274973   4.802   0.793  10.756  1.2012  2.0084 -0.8032
17828TIP3   OH274974   5.231   1.243   6.360 -0.1904  0.3363  0.0910
17828TIP3    H174975   5.289   1.318   6.348 -2.3179  1.9666 -0.8613
17828TIP3    H274976   5.183   1.264   6.441 -0.8110  0.0269 -0.1929
17829TIP3   OH274977   6.213   5.332  12.444 -0.1200 -0.1487 -0.1099
17829TIP3    H174978   6.301   5.302  12.419  0.8319  0.8214  1.7972
17829TIP3    H274979   6.227   5.379  12.527 -2.6080 -0.9143  0.8248
17830TIP3   OH274980   6.514   5.847   1.455  0.2113 -0.3231 -0.3044
17830TIP3    H174981   6.491   5.758   1.428  1.3633 -0.7956  0.1964
17830TIP3    H274982   6.538   5.837   1.548 -0.6622  0.7013  0.0445
17831TIP3   OH274983   0.864   6.140  15.524  0.0250  0.1922 -0.2279
17831TIP3    H174984   0.939   6.152  15.583 -0.3325  0.7575  0.1257
17831TIP3    H274985   0.787   6.150  15.581 -0.3232  0.3667 -0.7210
17832TIP3   OH274986   2.371   4.026   1.834  0.1877  0.5336 -0.1485
17832TIP3    H174987   2.341   3.944   1.794  2.1365 -0.8323  0.9692
17832TIP3    H274988   2.292   4.066   1.870 -1.3228  0.8315 -3.4669
17833TIP3   OH274989   6.297   1.897  14.358  0.6807  0.3280  0.3649
17833TIP3    H174990   6.280   1.820  14.412  0.4092  0.3449  0.3039
17833TIP3    H274991   6.369   1.943  14.403  1.9042 -0.7585 -0.4149
17834TIP3   OH274992   5.949   6.561   5.821  0.6378  0.3050 -0.1147
17834TIP3    H174993   5.955   6.511   5.739 -1.9176  0.0073 -0.2009
17834TIP3    H274994   5.923   6.496   5.886  1.6661  0.7359  0.7615
17835TIP3   OH274995   4.674   5.711  11.042  0.2675 -0.1449 -0.3098
17835TIP3    H174996   4.597   5.750  11.000  1.2068  1.2202 -0.8358
17835TIP3    H274997   4.697   5.638  10.985  2.6537  2.7736 -3.5104
17836TIP3   OH274998   3.914   4.679   2.256 -0.1493 -0.4891 -1.1756
17836TIP3    H174999   3.986   4.738   2.233 -0.1013 -0.0815 -0.0188
17836TIP3    H275000   3.854   4.684   2.181  0.8066 -0.5133 -1.9717
17837TIP3   OH275001   5.358   1.093  14.985 -0.5173  0.7502 -0.0123
17837TIP3    H175002   5.382   1.185  14.990 -1.5006  1.0546 -0.6629
17837TIP3    H275003   5.267   1.090  15.014 -0.2614 -0.1389  0.7668
17838TIP3   OH275004   0.988   3.592  14.101  0.5032  0.3497 -0.2412
17838TIP3    H175005   0.992   3.604  14.006 -0.2361  0.0222 -0.3203
17838TIP3    H275006   1.070   3.631  14.134  0.9627  0.0842 -1.0455
17839TIP3   OH275007   4.161   4.261  15.738 -0.0534  0.2579 -0.0588
17839TIP3    H175008   4.175   4.199  15.666  1.5425  0.7436 -0.2142
17839TIP3    H275009   4.207   4.340  15.710 -0.1915  0.7599  1.0953
17840TIP3   OH275010   1.802   4.796   1.688 -0.0591 -0.4496 -0.2077
17840TIP3    H175011   1.864   4.869   1.675 -1.5383  1.0149  0.5029
17840TIP3    H275012   1.776   4.804   1.780 -0.2161 -1.9525 -0.1001
17841TIP3   OH275013   0.630   1.376   2.056 -0.5042  0.1389  0.4835
17841TIP3    H175014   0.562   1.380   1.989 -2.0607  1.5218  2.0471
17841TIP3    H275015   0.652   1.283   2.062  0.0664 -0.0022 -2.2222
17842TIP3   OH275016   3.463   0.731  16.278  0.0312  0.7594  0.2899
17842TIP3    H175017   3.437   0.820  16.254  3.9679  1.7345 -0.9951
17842TIP3    H275018   3.479   0.736  16.373 -0.3156  1.2258  0.3314
17843TIP3   OH275019   2.196   2.245   2.549  0.2803  0.7330 -0.0825
17843TIP3    H175020   2.273   2.192   2.567  1.6556  2.4611 -0.6015
17843TIP3    H275021   2.159   2.264   2.635 -0.4204 -1.2593  0.0897
17844TIP3   OH275022   4.601   2.637   0.025  0.4306  0.3063 -0.4519
17844TIP3    H175023   4.598   2.584   0.104 -0.6191  0.7153 -0.1936
17844TIP3    H275024   4.685   2.683   0.029  0.4231  0.2566  0.3802
17845TIP3   OH275025   2.735   3.750   2.803  0.1462 -0.1040  0.1407
17845TIP3    H175026   2.764   3.786   2.886  0.8351  1.1201 -0.5977
17845TIP3    H275027   2.784   3.799   2.737  1.6273 -2.7831 -0.9579
17846TIP3   OH275028   5.268   5.713   1.889  0.1973 -0.5594  0.5244
17846TIP3    H175029   5.264   5.752   1.802 -0.9127  1.0379  1.2419
17846TIP3    H275030   5.356   5.734   1.922  0.7529 -1.4871 -0.3183
17847TIP3   OH275031   1.724   0.866   1.168 -0.4358 -0.1149 -0.1768
17847TIP3    H175032   1.642   0.910   1.192 -1.4908 -2.5487  1.0652
17847TIP3    H275033   1.711   0.775   1.195  2.6861 -0.6139  0.0072
17848TIP3   OH275034   2.818   6.512   3.999  0.4126  0.2553 -0.3248
17848TIP3    H175035   2.790   6.584   3.942  2.4132 -0.2151 -1.9986
17848TIP3    H275036   2.757   6.441   3.978 -0.1704  0.7347 -0.3062
17849TIP3   OH275037   4.982   2.611   1.228  0.2230  0.1061 -0.4259
17849TIP3    H175038   4.905   2.607   1.172  0.4845 -0.8373 -0.7453
17849TIP3    H275039   5.004   2.519   1.246  0.4945  0.3709  0.7375
17850TIP3   OH275040   3.432   4.005  10.780  0.3209 -0.3810 -0.1959
17850TIP3    H175041   3.522   4.012  10.748  0.4633 -1.3432 -0.0097
17850TIP3    H275042   3.427   4.071  10.849  0.7639 -0.0517 -0.4685
17851TIP3   OH275043   6.613   0.342   1.543 -0.1147  0.1456 -0.1229
17851TIP3    H175044   6.674   0.270   1.557 -0.9291 -0.9194 -1.7180
17851TIP3    H275045   6.538   0.322   1.599  0.4139  0.7545  0.8278
17852TIP3   OH275046   5.653   5.619   0.156  0.1241  0.7526 -0.2058
17852TIP3    H175047   5.730   5.600   0.102  0.0874 -1.3779  0.3920
17852TIP3    H275048   5.676   5.697   0.205  1.3326  0.9791 -1.0924
17853TIP3   OH275049   4.223   3.776   2.566 -0.7805  0.3319 -0.1608
17853TIP3    H175050   4.228   3.790   2.471 -2.9689  0.1733 -0.3534
17853TIP3    H275051   4.171   3.849   2.599 -0.4478  0.1270  0.8655
17854TIP3   OH275052   4.593   5.565  13.477  0.2954 -0.1027  0.1430
17854TIP3    H175053   4.618   5.504  13.408 -0.4742 -0.3732  0.0952
17854TIP3    H275054   4.577   5.648  13.431  0.2583 -0.1571  0.0578
17855TIP3   OH275055   0.508   1.445   3.149 -0.2643  0.3679  0.1046
17855TIP3    H175056   0.600   1.456   3.124 -0.1139 -1.0914 -0.0690
17855TIP3    H275057   0.459   1.488   3.078  0.2705  0.8802  0.0375
17856TIP3   OH275058   0.620   3.323   1.787  0.1900 -0.2777 -0.9601
17856TIP3    H175059   0.599   3.358   1.874 -0.2393 -2.3421 -0.1876
17856TIP3    H275060   0.713   3.301   1.793  0.0962 -0.6642 -0.9365
17857TIP3   OH275061   2.252   3.530   5.325 -0.4456  0.2439 -0.0547
17857TIP3    H175062   2.221   3.452   5.371 -1.8096  0.6049 -0.2981
17857TIP3    H275063   2.177   3.590   5.329  0.4754  1.4229 -0.1313
17858TIP3   OH275064   1.094   2.143  16.873  0.3774  0.3208 -0.1411
17858TIP3    H175065   1.188   2.161  16.871  0.8228 -1.5769  0.8149
17858TIP3    H275066   1.066   2.172  16.960 -0.0710  1.4574 -0.6550
17859TIP3   OH275067   1.373   1.164   3.902 -0.0802  0.7522  0.0933
17859TIP3    H175068   1.297   1.109   3.881 -0.1873  1.4605 -1.5338
17859TIP3    H275069   1.410   1.125   3.980 -1.1721 -0.5896 -0.0249
17860TIP3   OH275070   2.116   6.126   1.871  0.4695  0.2365  0.5363
17860TIP3    H175071   2.069   6.047   1.843  1.7173  0.2018 -1.6577
17860TIP3    H275072   2.142   6.107   1.962 -0.1082 -1.4617  0.3822
17861TIP3   OH275073   6.182   2.043  16.459  0.0484 -0.6897 -0.2568
17861TIP3    H175074   6.270   2.010  16.440  1.2307  2.4303 -0.6684
17861TIP3    H275075   6.155   1.995  16.538  2.2513 -1.4590  0.0832
17862TIP3   OH275076   6.516   5.823   3.242 -0.2499 -0.6753  0.5845
17862TIP3    H175077   6.480   5.787   3.323  0.8753  0.9770  1.8787
17862TIP3    H275078   6.605   5.789   3.238  1.4215  2.9346  2.6781
17863TIP3   OH275079   0.013   4.526  13.359 -0.2555  0.2081 -0.1603
17863TIP3    H175080  -0.037   4.444  13.356  0.7179 -0.3628 -1.6007
17863TIP3    H275081   0.086   4.506  13.417  0.2793 -0.1308 -0.9408
17864TIP3   OH275082   1.484   0.377  12.209  0.0729 -0.3374 -0.5215
17864TIP3    H175083   1.408   0.327  12.181  0.9208 -3.2689  1.9273
17864TIP3    H275084   1.533   0.394  12.128 -1.1223 -2.0361 -1.6509
17865TIP3   OH275085   3.281   5.706   4.752 -0.3672  0.4527  0.3596
17865TIP3    H175086   3.236   5.767   4.810  0.3462 -1.2759  2.8804
17865TIP3    H275087   3.374   5.730   4.760 -0.0856 -0.8579  1.3409
17866TIP3   OH275088   3.487   4.447  16.397 -0.3364 -0.2055  0.7611
17866TIP3    H175089   3.484   4.402  16.312 -0.8385 -0.3783  0.8695
17866TIP3    H275090   3.571   4.493  16.397 -0.5273  0.1612 -0.0206
17867TIP3   OH275091   6.648   1.804  11.711 -0.1166  0.5814  0.1026
17867TIP3    H175092   6.714   1.873  11.706  0.7871 -0.3108 -0.6040
17867TIP3    H275093   6.573   1.845  11.754  2.1524  0.6484  4.5409
17868TIP3   OH275094   1.323   5.605  15.223 -0.0561 -0.3173 -0.3328
17868TIP3    H175095   1.291   5.642  15.305 -0.1858  0.3294 -0.6736
17868TIP3    H275096   1.243   5.585  15.174  0.0110 -1.0232 -0.1725
17869TIP3   OH275097   5.204   6.060   3.661 -0.3857  0.6358  0.1900
17869TIP3    H175098   5.246   6.135   3.703  1.1450 -0.6953  1.1596
17869TIP3    H275099   5.188   5.998   3.732 -0.1523 -0.6078 -0.8123
17870TIP3   OH275100   3.423   4.276  12.909  0.0364  0.2177  0.4898
17870TIP3    H175101   3.374   4.308  12.833 -0.3870  1.0562  1.1005
17870TIP3    H275102   3.494   4.223  12.871 -1.1678 -0.8296 -0.4351
17871TIP3   OH275103   3.139   2.895   6.416 -0.4705 -0.1303  0.2535
17871TIP3    H175104   3.130   2.835   6.490 -1.2083  3.2501  3.1783
17871TIP3    H275105   3.049   2.906   6.384 -0.4798  0.1559  0.3787
17872TIP3   OH275106   2.025   0.626   5.576  0.1095  0.2028  0.6654
17872TIP3    H175107   1.963   0.686   5.534 -0.8388 -1.2395 -0.1182
17872TIP3    H275108   1.974   0.585   5.646  1.4322  1.9728  2.7755
17873TIP3   OH275109   6.615   3.081  11.517  0.1284 -0.2589  0.1040
17873TIP3    H175110   6.539   3.069  11.574  0.1876  1.2084  0.5504
17873TIP3    H275111   6.622   3.176  11.506  1.2406 -0.4179 -0.8413
17874TIP3   OH275112   4.614   2.716   1.613 -0.4444  0.6298 -0.0447
17874TIP3    H175113   4.567   2.781   1.562 -0.3800 -0.0790 -1.0430
17874TIP3    H275114   4.548   2.650   1.635  0.0057 -0.3117 -1.3552
17875TIP3   OH275115   1.189   5.297  12.715 -0.2129  0.2799  0.0589
17875TIP3    H175116   1.144   5.377  12.740 -1.6750 -0.7436  0.8657
17875TIP3    H275117   1.276   5.326  12.688 -1.0429  2.2311 -0.6989
17876TIP3   OH275118   2.691   0.684   6.060 -0.2860 -0.3299 -0.0468
17876TIP3    H175119   2.651   0.627   6.126  0.7464 -1.8719 -0.6843
17876TIP3    H275120   2.767   0.635   6.030 -0.5999  0.4216 -2.2339
17877TIP3   OH275121   2.689   5.380   3.844  0.0048 -0.0132  0.1829
17877TIP3    H175122   2.746   5.456   3.831 -0.6684  0.8952  2.0875
17877TIP3    H275123   2.632   5.406   3.916 -0.7537 -2.0683  0.3775
17878TIP3   OH275124   0.932   1.998  17.204 -0.1005 -0.4441  0.6399
17878TIP3    H175125   0.982   1.917  17.211  0.8913 -0.0813 -1.5292
17878TIP3    H275126   0.996   2.068  17.217 -0.3554  0.0076 -0.4102
17879TIP3   OH275127   4.681   6.411  10.601 -0.2824 -0.2503  0.0085
17879TIP3    H175128   4.586   6.422  10.603 -0.3894 -0.7000 -1.4582
17879TIP3    H275129   4.715   6.500  10.598 -0.6005 -0.0540  1.4095
17880TIP3   OH275130   4.831   0.331  15.300 -0.6131 -0.2602  0.7086
17880TIP3    H175131   4.822   0.424  15.280 -2.0996 -0.8035 -1.5916
17880TIP3    H275132   4.921   0.310  15.277 -0.9057  0.1914 -1.0519
17881TIP3   OH275133   6.165   5.429   3.953 -0.3479 -0.3807 -0.5708
17881TIP3    H175134   6.178   5.512   3.907  0.4024 -1.5342 -2.5797
17881TIP3    H275135   6.251   5.406   3.987 -0.0389 -1.3255 -1.8907
17882TIP3   OH275136   2.262   3.070  10.776  0.0689  0.1710  0.1539
17882TIP3    H175137   2.319   3.019  10.718  0.0167  0.3462 -0.0512
17882TIP3    H275138   2.318   3.094  10.850  0.2076  0.1751  0.0474
17883TIP3   OH275139   5.062   4.407  13.794 -0.2608  0.2353  0.2400
17883TIP3    H175140   5.096   4.319  13.810  1.6595  1.0327  0.7823
17883TIP3    H275141   5.064   4.450  13.879  0.0806  1.2244 -0.2532
17884TIP3   OH275142   1.611   5.006  12.092  0.8885 -0.1314 -0.2935
17884TIP3    H175143   1.534   5.045  12.133  1.1625  0.8712 -0.6951
17884TIP3    H275144   1.676   5.000  12.162  0.8999  0.3142 -0.2612
17885TIP3   OH275145   2.050   0.271  11.567  0.1145  0.3293 -0.2283
17885TIP3    H175146   2.058   0.196  11.507 -0.6501 -0.8353  1.0759
17885TIP3    H275147   2.039   0.346  11.509 -0.1542 -0.7025 -1.5719
17886TIP3   OH275148   1.229   3.129  16.849  0.2029  0.0432  0.3809
17886TIP3    H175149   1.309   3.089  16.814 -1.1832 -0.4028 -2.6042
17886TIP3    H275150   1.231   3.219  16.816 -1.1749 -0.4036 -1.0548
17887TIP3   OH275151   5.636   2.230  16.093  0.0968 -0.6692 -0.0252
17887TIP3    H175152   5.690   2.153  16.107  0.5721 -0.0891  1.5817
17887TIP3    H275153   5.600   2.251  16.180  0.5221  1.2886 -0.2718
17888TIP3   OH275154   1.736   0.597  12.606 -0.2998  0.2898  0.7814
17888TIP3    H175155   1.786   0.647  12.541  0.0396  0.2647  1.0199
17888TIP3    H275156   1.645   0.611  12.581 -0.2635  1.7309  1.3314
17889TIP3   OH275157   6.626   3.514   4.912  0.2065 -0.4701 -0.5599
17889TIP3    H175158   6.557   3.562   4.958 -0.5817 -0.6182 -1.5744
17889TIP3    H275159   6.584   3.433   4.882  0.0857  0.5349 -3.3628
17890TIP3   OH275160   3.910   6.134  11.609  0.1196 -0.4414 -0.1503
17890TIP3    H175161   3.857   6.083  11.548 -1.1364  0.9329 -0.2634
17890TIP3    H275162   3.996   6.139  11.568 -0.3866 -0.5020 -1.2595
17891TIP3   OH275163   3.502   4.066  15.486  0.2962 -0.3002  0.5430
17891TIP3    H175164   3.411   4.075  15.514 -0.7036 -0.8044 -2.2513
17891TIP3    H275165   3.496   4.035  15.395  3.2240  1.3850 -0.3307
17892TIP3   OH275166   6.248   5.239  11.057 -0.2060 -0.2079  0.1532
17892TIP3    H175167   6.260   5.162  11.114  1.3699  0.1296  0.3289
17892TIP3    H275168   6.187   5.210  10.990 -0.6618 -1.2013  0.9663
17893TIP3   OH275169   5.649   6.162  13.803  0.5936  0.5626  0.0492
17893TIP3    H175170   5.557   6.140  13.786  0.5103  0.6777  0.3532
17893TIP3    H275171   5.672   6.222  13.732  0.0415  1.5825  0.7126
17894TIP3   OH275172   5.680   0.610  16.269 -0.3332 -0.8357 -0.2953
17894TIP3    H175173   5.737   0.588  16.343 -2.4282  0.3879  1.8093
17894TIP3    H275174   5.715   0.693  16.236  0.1550 -0.9904 -0.1807
17895TIP3   OH275175   1.640   2.718  11.616  0.5416  0.2658  0.0503
17895TIP3    H175176   1.558   2.735  11.570  0.5309  1.2999  0.4292
17895TIP3    H275177   1.624   2.636  11.663 -0.1532  0.2774 -0.1476
17896TIP3   OH275178   1.486   2.737  15.420 -0.3917 -0.0242 -0.2409
17896TIP3    H175179   1.499   2.746  15.515 -1.6040  0.1811 -0.0822
17896TIP3    H275180   1.553   2.675  15.393  0.0322 -0.0228  0.7395
17897TIP3   OH275181   5.836   1.615  10.459 -0.4488 -0.0633 -0.2800
17897TIP3    H175182   5.813   1.523  10.467 -0.0768 -0.2364 -1.1371
17897TIP3    H275183   5.769   1.652  10.401  0.5758 -0.2687 -1.6497
17898TIP3   OH275184   3.579   4.533   6.139 -0.1497 -0.5203  0.3509
17898TIP3    H175185   3.607   4.599   6.202 -0.5663 -0.4605  0.4784
17898TIP3    H275186   3.495   4.501   6.173  0.3262 -1.5329  0.6034
17899TIP3   OH275187   5.868   6.290   2.132  0.6334  0.3531  0.1917
17899TIP3    H175188   5.826   6.371   2.160  2.2397  1.6950 -1.0657
17899TIP3    H275189   5.934   6.272   2.200  0.1550 -0.0091  0.5633
17900TIP3   OH275190   2.015   1.137   0.468  0.2282  0.0320 -0.2956
17900TIP3    H175191   2.100   1.128   0.426  0.0816  0.0209 -0.5958
17900TIP3    H275192   1.985   1.047   0.480 -0.8640  0.0287 -2.5258
17901TIP3   OH275193   5.596   2.247  14.740 -0.3204 -0.1232 -0.3156
17901TIP3    H175194   5.686   2.244  14.772 -0.0645  0.8166 -0.9051
17901TIP3    H275195   5.604   2.222  14.647 -0.5683  0.5970 -0.5366
17902TIP3   OH275196   5.484   2.594   3.082  0.2833 -0.5363  0.2774
17902TIP3    H175197   5.526   2.654   3.020  1.3082  0.0290  1.4780
17902TIP3    H275198   5.510   2.507   3.051  1.6578 -0.2235  0.4949
17903TIP3   OH275199   4.345   3.634   0.573 -0.1739  0.3431 -0.4494
17903TIP3    H175200   4.275   3.570   0.566 -0.9094  1.0942 -0.1123
17903TIP3    H275201   4.398   3.621   0.494 -1.1298  0.2738 -1.0920
17904TIP3   OH275202   4.203   4.838   4.059 -0.0983  0.4037  0.2184
17904TIP3    H175203   4.172   4.804   4.142 -0.3645  0.5323  0.1721
17904TIP3    H275204   4.125   4.873   4.016  0.2439  1.5029  0.4647
17905TIP3   OH275205   5.124   6.631  12.015 -0.1058  0.1860 -0.5492
17905TIP3    H175206   5.184   6.586  12.074  0.7098  1.4910 -0.3182
17905TIP3    H275207   5.110   6.570  11.943 -1.3273 -1.5376  1.0672
17906TIP3   OH275208   4.741   3.965   3.955 -0.1138  0.5520  0.1201
17906TIP3    H175209   4.824   3.993   3.916 -0.7584  0.6850 -1.2003
17906TIP3    H275210   4.744   3.870   3.951  0.9376  0.4328  2.2003
17907TIP3   OH275211   4.379   3.716   1.558  0.2224 -0.5554  0.3022
17907TIP3    H175212   4.290   3.741   1.536  0.3592  1.3804  1.7109
17907TIP3    H275213   4.371   3.668   1.641  0.3595 -1.7943 -0.3818
17908TIP3   OH275214   4.350   0.140  15.058 -0.2196 -0.2692 -0.3726
17908TIP3    H175215   4.306   0.163  15.140 -0.6567  0.5048 -0.8168
17908TIP3    H275216   4.423   0.084  15.085 -0.3443 -0.0027  0.5499
17909TIP3   OH275217   6.690   0.081  12.519  0.0778  0.2032  0.0964
17909TIP3    H175218   6.766   0.125  12.480  0.4468 -0.2487  0.3087
17909TIP3    H275219   6.710  -0.012  12.514 -0.0566  0.1159  0.9849
17910TIP3   OH275220   1.078   5.682  16.477 -0.7345  0.4593  0.0588
17910TIP3    H175221   1.028   5.755  16.513 -2.6958 -0.6928 -0.1880
17910TIP3    H275222   1.015   5.632  16.425  0.5752 -1.3130  0.0457
17911TIP3   OH275223   6.482   3.656   0.282  0.5919 -0.1614 -0.4683
17911TIP3    H175224   6.542   3.661   0.207 -1.3077  0.9146 -2.0044
17911TIP3    H275225   6.418   3.590   0.257 -0.5680  0.8323 -0.1900
17912TIP3   OH275226   1.570   2.444   6.350 -0.5800  0.2729  0.4776
17912TIP3    H175227   1.658   2.449   6.389  0.5715  0.4944 -1.9696
17912TIP3    H275228   1.545   2.352   6.360  1.0849 -0.4129 -1.0345
17913TIP3   OH275229   2.953   4.240  13.296 -0.6654  0.0622  0.1011
17913TIP3    H175230   2.981   4.166  13.351 -0.0846  0.6253  0.5727
17913TIP3    H275231   2.956   4.315  13.354 -0.0248  0.6799 -0.7172
17914TIP3   OH275232   2.154   2.139  14.078 -0.3720  0.6950 -0.2806
17914TIP3    H175233   2.157   2.065  14.139 -0.8194  1.0435  0.1729
17914TIP3    H275234   2.063   2.169  14.082 -0.8509 -0.2846 -2.3381
17915TIP3   OH275235   2.426   1.884  16.552 -0.7247  0.2847 -0.0770
17915TIP3    H175236   2.431   1.800  16.507  1.2613 -0.1670  0.8878
17915TIP3    H275237   2.515   1.919  16.547 -0.7835  0.9060  2.1556
17916TIP3   OH275238   0.376   1.896  12.720 -0.1709  0.8675 -0.5922
17916TIP3    H175239   0.438   1.919  12.789 -0.1788 -2.0239  0.4918
17916TIP3    H275240   0.423   1.835  12.664 -1.9792 -1.7005  0.4615
17917TIP3   OH275241   2.367   4.373   0.828 -0.4784  0.6699 -0.3331
17917TIP3    H175242   2.396   4.301   0.772  1.5811 -0.7656  2.4006
17917TIP3    H275243   2.296   4.336   0.880  0.0479  0.8402  0.5232
17918TIP3   OH275244   2.904   2.379  13.061 -0.4515  0.6223 -0.0502
17918TIP3    H175245   2.933   2.470  13.058  0.2874  0.4540 -4.3635
17918TIP3    H275246   2.814   2.381  13.028 -0.5441 -0.1771  0.1343
17919TIP3   OH275247   3.345   5.903  11.170  0.3915 -0.6628 -0.3478
17919TIP3    H175248   3.292   5.864  11.240  0.6597  1.5145  1.1769
17919TIP3    H275249   3.406   5.961  11.216  2.2356 -0.9684 -2.2568
17920TIP3   OH275250   4.716   4.778   5.927 -0.2564 -0.0278  0.3203
17920TIP3    H175251   4.740   4.831   6.003 -0.2963 -0.2570  0.4935
17920TIP3    H275252   4.646   4.828   5.885 -2.5179 -1.3534  2.1948
17921TIP3   OH275253   0.882   0.286   6.047  0.4625 -0.4460  0.0416
17921TIP3    H175254   0.869   0.379   6.063 -0.7684 -0.5804 -0.0450
17921TIP3    H275255   0.858   0.274   5.955  1.1990 -0.7491 -0.1154
17922TIP3   OH275256   6.681   4.440   2.147 -0.0461 -0.3801 -0.5448
17922TIP3    H175257   6.761   4.474   2.188  0.0306  1.1545 -1.8548
17922TIP3    H275258   6.688   4.345   2.157  0.7124 -0.1679  1.5309
17923TIP3   OH275259   4.896   4.394   5.717 -0.0068  0.2294  0.1020
17923TIP3    H175260   4.855   4.388   5.630 -0.3752 -0.6314  0.3241
17923TIP3    H275261   4.837   4.451   5.767 -0.5063 -0.3440  0.1769
17924TIP3   OH275262   2.140   2.081   4.333 -0.2406 -0.4931 -0.0226
17924TIP3    H175263   2.188   2.027   4.271 -1.3865 -0.5677 -0.8756
17924TIP3    H275264   2.166   2.171   4.312  2.0725 -0.6504  1.7408
17925TIP3   OH275265   6.193   1.004   3.874 -0.2129 -0.3171 -0.3638
17925TIP3    H175266   6.140   0.934   3.911 -0.3582 -0.1654 -0.2778
17925TIP3    H275267   6.281   0.989   3.907 -0.1260 -0.7748 -0.7912
17926TIP3   OH275268   5.944   4.845   0.129  0.6342  0.7326 -0.2849
17926TIP3    H175269   5.854   4.869   0.149  0.2237  0.5929 -1.8200
17926TIP3    H275270   5.941   4.749   0.118  0.8700  0.7724 -0.7272
17927TIP3   OH275271   1.224   1.156   5.992  0.1964 -0.0076  0.0233
17927TIP3    H175272   1.268   1.196   6.067  1.3161 -0.6847 -0.2408
17927TIP3    H275273   1.289   1.095   5.956  0.3967  1.6234 -2.6210
17928TIP3   OH275274   4.067   3.103   0.205  0.0613 -0.1816 -0.5293
17928TIP3    H175275   4.074   3.160   0.281  0.9816 -1.8980  0.7409
17928TIP3    H275276   3.998   3.040   0.228 -1.4755  0.7798 -2.2103
17929TIP3   OH275277   6.721   5.903  14.924 -0.3383 -0.0758  0.3513
17929TIP3    H175278   6.657   5.897  14.995  0.2596 -0.6206  0.8506
17929TIP3    H275279   6.761   5.989  14.935 -0.7068  0.1097  0.2690
17930TIP3   OH275280   4.719   0.586  15.993 -0.3150 -0.1168  0.7228
17930TIP3    H175281   4.794   0.624  15.948 -1.1531  1.2036  0.3681
17930TIP3    H275282   4.711   0.637  16.074 -0.8704 -0.1735  0.7122
17931TIP3   OH275283   6.341   4.065   3.380 -0.0523  0.5014  0.2358
17931TIP3    H175284   6.286   4.000   3.425  2.4769 -1.4339  0.7724
17931TIP3    H275285   6.396   4.013   3.322 -1.1826  2.6792 -3.0386
17932TIP3   OH275286   0.565   0.475   0.987  0.5468 -0.0808  0.4452
17932TIP3    H175287   0.568   0.481   1.083 -0.6519  1.6281  0.4284
17932TIP3    H275288   0.496   0.411   0.970 -0.0245  0.4447  0.7428
17933TIP3   OH275289   2.330   2.292   0.410  0.3748 -0.0591  0.1330
17933TIP3    H175290   2.345   2.212   0.360 -0.7893 -0.3574  0.2274
17933TIP3    H275291   2.384   2.358   0.367  1.8203 -1.0024  0.4105
17934TIP3   OH275292   2.157   0.434   4.244 -0.4971 -0.0426 -0.9200
17934TIP3    H175293   2.071   0.400   4.219 -0.6180  0.3779 -1.0741
17934TIP3    H275294   2.219   0.378   4.196 -0.6372 -1.1667  0.1689
17935TIP3   OH275295   4.222   0.697  16.491  0.3438  0.1741 -0.1618
17935TIP3    H175296   4.138   0.667  16.457 -1.0199 -0.7105  3.4931
17935TIP3    H275297   4.213   0.793  16.495  0.5386  0.3078 -2.0005
17936TIP3   OH275298   0.788   3.672  14.485  0.0925  0.1544  0.0275
17936TIP3    H175299   0.827   3.759  14.494 -0.5010  0.4889 -0.5082
17936TIP3    H275300   0.843   3.615  14.538  1.2724  0.6183 -0.6749
17937TIP3   OH275301   4.847   5.668   3.436 -1.3400  0.2463  0.6793
17937TIP3    H175302   4.874   5.622   3.516 -0.6383 -0.0774  0.2632
17937TIP3    H275303   4.858   5.603   3.367  1.4066  1.5006 -0.2172
17938TIP3   OH275304   6.105   1.386  14.007 -0.4659 -0.6403 -0.1514
17938TIP3    H175305   6.085   1.311  14.061  0.1250 -0.0054  0.9940
17938TIP3    H275306   6.201   1.389  14.005 -0.4527 -0.9993 -1.7584
17939TIP3   OH275307   4.461   2.480   4.270  0.2810  0.4079 -0.2237
17939TIP3    H175308   4.507   2.494   4.353 -0.2457 -0.2347  0.1934
17939TIP3    H275309   4.525   2.504   4.203  0.6458  1.1381  0.3653
17940TIP3   OH275310   3.359   3.620   3.070 -0.8353 -0.8660  0.0032
17940TIP3    H175311   3.285   3.629   3.131 -0.2410 -1.1720  0.7767
17940TIP3    H275312   3.421   3.564   3.115  0.5139  0.5259 -0.0210
17941TIP3   OH275313   3.071   3.496  14.156  0.5053  0.7228  0.4797
17941TIP3    H175314   3.064   3.568  14.093  0.6062  1.5765  1.4295
17941TIP3    H275315   3.072   3.539  14.241 -2.4207 -0.4915  1.2676
17942TIP3   OH275316   4.502   1.608  13.205 -0.7701  0.4776  0.4372
17942TIP3    H175317   4.449   1.530  13.191 -0.5055 -0.0181  2.0195
17942TIP3    H275318   4.484   1.663  13.129 -1.1158 -1.0211 -0.6095
17943TIP3   OH275319   2.925   6.496  15.527 -0.3566 -0.3405 -0.2541
17943TIP3    H175320   2.944   6.525  15.616 -1.5860 -0.2557  0.0045
17943TIP3    H275321   2.996   6.435  15.505  2.4653  2.9385 -0.9395
17944TIP3   OH275322   6.004   3.632  10.835 -0.2425  0.4854 -0.1407
17944TIP3    H175323   5.935   3.577  10.799 -0.1018  0.3034 -0.1314
17944TIP3    H275324   6.059   3.572  10.885 -0.9514  0.8876  1.1489
17945TIP3   OH275325   5.306   3.971   3.877  0.0211 -0.3653  0.5083
17945TIP3    H175326   5.318   3.914   3.801 -1.8726  0.7123 -0.6764
17945TIP3    H275327   5.391   4.013   3.889  1.4460 -3.2721  1.3590
17946TIP3   OH275328   3.080   4.398  10.590 -0.1638 -1.3036 -0.1858
17946TIP3    H175329   2.996   4.435  10.560  0.5734  0.5775 -0.0373
17946TIP3    H275330   3.108   4.342  10.517 -0.5013 -0.1958 -1.2099
17947TIP3   OH275331   3.515   2.010   3.924  0.2552 -0.3748 -0.1156
17947TIP3    H175332   3.555   1.927   3.899 -3.0650 -2.2379  0.1666
17947TIP3    H275333   3.484   2.048   3.841 -0.6405 -0.8236  0.0031
17948TIP3   OH275334   4.155   3.853  16.244 -0.5116 -0.0046  0.0942
17948TIP3    H175335   4.226   3.820  16.188 -0.7308  1.0865 -0.8816
17948TIP3    H275336   4.167   3.808  16.327  0.1512 -1.2905 -0.6641
17949TIP3   OH275337   3.413   0.984  14.458 -0.5334  0.8715 -0.4820
17949TIP3    H175338   3.418   1.004  14.365 -2.4051  2.8543 -0.2486
17949TIP3    H275339   3.384   1.066  14.499  1.2453  0.3829  2.0018
17950TIP3   OH275340   2.599   6.532   0.177 -0.2525 -0.2597  0.0121
17950TIP3    H175341   2.512   6.515   0.142 -0.4382  1.6479 -0.5235
17950TIP3    H275342   2.652   6.552   0.099  0.2502  0.2832  0.4912
17951TIP3   OH275343   0.673   5.867   0.370  0.2268  0.1246 -0.0318
17951TIP3    H175344   0.690   5.796   0.308  0.7733 -0.7999  1.1120
17951TIP3    H275345   0.581   5.858   0.393  0.1231  0.2193 -0.4126
17952TIP3   OH275346   0.931   4.605  11.721  0.0433  0.4344  0.1483
17952TIP3    H175347   0.865   4.595  11.789  1.7217 -1.7650  1.5767
17952TIP3    H275348   0.881   4.609  11.639 -1.8772 -2.5347  1.0326
17953TIP3   OH275349   4.232   4.551  13.550 -0.3587 -0.0933 -0.5209
17953TIP3    H175350   4.240   4.464  13.511  1.5192 -0.4331  0.5244
17953TIP3    H275351   4.219   4.533  13.644 -0.5962  0.7496 -0.3889
17954TIP3   OH275352   6.762   1.704  15.843 -0.5884  0.5144 -0.2476
17954TIP3    H175353   6.795   1.787  15.878  1.1645 -0.3006  0.1209
17954TIP3    H275354   6.811   1.691  15.761  1.2973 -1.4653  1.0727
17955TIP3   OH275355   4.663   4.616  13.050 -0.7725 -0.5956  0.1964
17955TIP3    H175356   4.757   4.638  13.048 -0.6863 -0.6293  1.7851
17955TIP3    H275357   4.643   4.585  12.962  0.0628  1.9190 -0.9763
17956TIP3   OH275358   4.559   3.679   5.228 -0.2807  0.4833  0.0361
17956TIP3    H175359   4.468   3.665   5.252 -0.3465  0.5766 -0.1572
17956TIP3    H275360   4.588   3.595   5.193 -0.2302  0.3921  0.2954
17957TIP3   OH275361   0.107   0.113  12.744  0.3980  0.0358  0.5011
17957TIP3    H175362   0.140   0.046  12.804 -1.8205 -2.4346 -0.8593
17957TIP3    H275363   0.024   0.140  12.783 -0.0927 -0.1276 -0.4132
17958TIP3   OH275364   0.193   5.706  11.489 -0.0795 -0.2080 -0.2806
17958TIP3    H175365   0.175   5.787  11.442 -0.9206 -0.8951 -1.1829
17958TIP3    H275366   0.120   5.697  11.550 -0.4698 -0.7327 -0.8145
17959TIP3   OH275367   1.628   2.840   4.024 -0.0659  0.6890 -0.3217
17959TIP3    H175368   1.546   2.798   4.050 -0.3655  1.4349 -0.0222
17959TIP3    H275369   1.674   2.855   4.107  0.1465  0.7307 -0.4467
17960TIP3   OH275370   3.187   0.881  11.823 -0.2167  0.0775 -0.0322
17960TIP3    H175371   3.094   0.902  11.834  0.2224  1.9278  0.3836
17960TIP3    H275372   3.199   0.799  11.872 -1.3822  0.4144  0.8635
17961TIP3   OH275373   6.011   3.097  11.495  0.7090  0.3531 -0.1156
17961TIP3    H175374   6.064   3.107  11.575  1.3294 -0.3671 -0.4253
17961TIP3    H275375   6.037   3.012  11.460  0.0308  0.4190 -0.7910
17962TIP3   OH275376   1.889   6.452  11.169 -0.2542  0.0259  0.5388
17962TIP3    H175377   1.918   6.427  11.081 -2.5296 -2.2971  0.3290
17962TIP3    H275378   1.905   6.547  11.173  1.9280 -0.1501 -1.5082
17963TIP3   OH275379   5.636   3.542   3.001  0.5558  0.1916  0.6092
17963TIP3    H175380   5.623   3.515   2.910  0.6923 -0.0452  0.6568
17963TIP3    H275381   5.569   3.494   3.049  1.5475 -1.0054  0.8503
17964TIP3   OH275382   5.834   5.201  10.707  0.6754 -0.0253  0.0068
17964TIP3    H175383   5.869   5.287  10.686  0.2829 -0.0237 -0.6719
17964TIP3    H275384   5.741   5.215  10.721  0.6948 -0.2610  0.3908
17965TIP3   OH275385   6.362   6.508   1.057  0.0614  0.1161 -0.3502
17965TIP3    H175386   6.366   6.451   1.133 -1.4410  0.3797 -0.0254
17965TIP3    H275387   6.432   6.478   0.999  1.1474 -0.1570  1.0751
17966TIP3   OH275388   6.723   2.199  15.645  0.0865  0.0441  0.1254
17966TIP3    H175389   6.678   2.121  15.612 -1.6075  1.5931 -1.4623
17966TIP3    H275390   6.727   2.186  15.740 -1.8119 -1.1419  0.0857
17967TIP3   OH275391   4.116   6.214  12.436  0.1567  0.1643 -0.3953
17967TIP3    H175392   4.067   6.220  12.518  0.6820  1.4875 -0.1670
17967TIP3    H275393   4.127   6.120  12.422 -1.8967 -0.1582 -0.1379
17968TIP3   OH275394   2.863   6.303  15.990  0.3055  0.0926  0.3530
17968TIP3    H175395   2.931   6.256  16.038  0.9619  0.0095 -0.6458
17968TIP3    H275396   2.909   6.374  15.945 -0.2133 -0.1131 -0.5278
17969TIP3   OH275397   4.284   0.925   2.022  0.3325 -0.8337  0.2188
17969TIP3    H175398   4.287   0.854   2.086 -2.0386 -0.7582  0.5093
17969TIP3    H275399   4.375   0.952   2.012  1.0009 -2.1873  2.0416
17970TIP3   OH275400   4.697   3.237   6.366 -0.3511 -0.1575 -0.1014
17970TIP3    H175401   4.710   3.320   6.319  0.3619 -0.6644 -0.8200
17970TIP3    H275402   4.673   3.264   6.455 -1.6330  0.8161 -0.7089
17971TIP3   OH275403   0.054   3.781   3.148 -0.2410 -0.2325  0.3318
17971TIP3    H175404  -0.003   3.715   3.187 -0.8972 -1.8273 -2.9463
17971TIP3    H275405   0.143   3.751   3.167 -0.5241 -0.7253  0.8906
17972TIP3   OH275406   4.917   2.558   1.976 -0.2539  0.4333 -0.2027
17972TIP3    H175407   4.941   2.623   2.042  2.5273 -0.3677 -0.2967
17972TIP3    H275408   4.854   2.501   2.020  0.5230  0.7163  1.3313
17973TIP3   OH275409   2.996   1.851  15.048  0.6599 -0.2793  0.8567
17973TIP3    H175410   2.969   1.770  15.090  0.7456  0.7704  3.0956
17973TIP3    H275411   2.915   1.889  15.014  0.3282 -0.4175  1.4819
17974TIP3   OH275412   0.519   4.967   5.545 -0.3354  0.6898 -0.0718
17974TIP3    H175413   0.564   4.918   5.614 -0.4676  0.6867  0.0108
17974TIP3    H275414   0.587   4.981   5.478 -0.6082 -0.6778 -0.6612
17975TIP3   OH275415   5.941   2.325   3.354  0.5927 -0.2411  0.2981
17975TIP3    H175416   5.888   2.256   3.394  0.8618 -1.9541 -2.0908
17975TIP3    H275417   5.902   2.406   3.385 -1.9474 -1.4443  0.5152
17976TIP3   OH275418   4.220   6.394   3.050 -0.0959 -0.0993  0.5085
17976TIP3    H175419   4.153   6.449   3.011 -0.1262 -0.5842 -0.1474
17976TIP3    H275420   4.270   6.453   3.106  0.8963  0.9672 -1.4140
17977TIP3   OH275421   4.468   1.820   4.012  0.2704  0.0550  0.3295
17977TIP3    H175422   4.538   1.832   4.076  1.9694 -1.1330 -1.2110
17977TIP3    H275423   4.415   1.748   4.047  1.5061 -0.9605  0.1455
17978TIP3   OH275424   5.422   3.933   0.818 -0.1586 -0.0898 -0.0842
17978TIP3    H175425   5.483   3.962   0.750 -1.0812  2.3595  0.0286
17978TIP3    H275426   5.337   3.935   0.775 -0.3893 -1.9565  0.2087
17979TIP3   OH275427   5.805   1.317   1.560 -0.0716  0.3170 -0.4863
17979TIP3    H175428   5.852   1.251   1.508  0.2981 -1.2952  1.7130
17979TIP3    H275429   5.857   1.325   1.640 -2.3789  0.0608  1.1355
17980TIP3   OH275430   0.579   5.841  10.798  0.0327  0.0558  0.0487
17980TIP3    H175431   0.674   5.833  10.803  0.0910 -0.2076 -1.1943
17980TIP3    H275432   0.564   5.925  10.754 -0.2693 -0.4890 -0.9171
17981TIP3   OH275433   3.772   6.471   1.383 -0.2285 -0.2091  0.1873
17981TIP3    H175434   3.828   6.537   1.424 -0.5225 -0.4925  1.0680
17981TIP3    H275435   3.719   6.436   1.455  1.0048 -2.5189  0.0621
17982TIP3   OH275436   4.514   5.156  17.225 -0.4394 -0.6096  0.6114
17982TIP3    H175437   4.563   5.169  17.305 -0.2599 -0.8380  0.5375
17982TIP3    H275438   4.422   5.164  17.251 -0.4130 -1.4995  0.9858
17983TIP3   OH275439   5.945   2.632  14.511  0.5753 -0.0038 -0.4142
17983TIP3    H175440   5.987   2.589  14.436  1.9603  0.8949 -0.1888
17983TIP3    H275441   5.957   2.725  14.496  1.7259  0.1965  1.3484
17984TIP3   OH275442   6.456   4.308   4.349  0.4724  0.2354  0.2593
17984TIP3    H175443   6.456   4.250   4.426  0.8734 -0.1097  0.0046
17984TIP3    H275444   6.490   4.391   4.383 -1.4385  0.7748  0.9408
17985TIP3   OH275445   6.025   5.616  13.124  0.0896 -0.2784 -0.0682
17985TIP3    H175446   5.990   5.529  13.141 -3.0464  1.0427  0.9825
17985TIP3    H275447   6.099   5.625  13.185  0.1675 -2.0034  0.1321
17986TIP3   OH275448   4.493   3.708  13.325  0.1804 -0.3657  0.9859
17986TIP3    H175449   4.459   3.743  13.407 -0.7835  0.8714  0.0920
17986TIP3    H275450   4.577   3.752  13.314  0.1906 -0.3336  1.1761
17987TIP3   OH275451   0.504   3.836  11.190  0.1260 -0.1332  0.6474
17987TIP3    H175452   0.560   3.798  11.122  0.9593  3.7011 -1.0471
17987TIP3    H275453   0.430   3.873  11.142  1.0825  3.3123  1.5554
17988TIP3   OH275454   6.440   3.997   6.374  0.1415 -0.4078  0.0261
17988TIP3    H175455   6.386   4.055   6.320 -1.6386 -0.2930  1.8036
17988TIP3    H275456   6.496   3.951   6.311 -2.6418 -1.1832 -2.1244
17989TIP3   OH275457   6.370   1.462  17.225 -0.4933 -0.1668  0.0614
17989TIP3    H175458   6.394   1.461  17.318 -0.7787 -0.1169  0.1340
17989TIP3    H275459   6.453   1.480  17.180 -0.1746 -1.1368  0.2500
17990TIP3   OH275460   3.349   4.967   4.735  0.0629 -0.4196 -0.3132
17990TIP3    H175461   3.365   4.891   4.791 -1.6150 -0.4699  0.1584
17990TIP3    H275462   3.258   4.992   4.754  0.1545  0.8894 -1.4382
17991TIP3   OH275463   4.084   6.505   3.704 -0.2999 -0.3870 -0.0847
17991TIP3    H175464   4.014   6.453   3.744 -0.8797  1.2235  1.1122
17991TIP3    H275465   4.117   6.559   3.775  1.3367 -0.1977 -0.9311
17992TIP3   OH275466   6.081   2.918   6.408 -0.1005  0.1669  0.4407
17992TIP3    H175467   5.987   2.905   6.424 -0.2426  0.5004 -0.1088
17992TIP3    H275468   6.098   3.008   6.437 -0.1412  0.4114 -0.2619
17993TIP3   OH275469   4.447   4.598  10.785  0.5263 -0.5458  0.1422
17993TIP3    H175470   4.477   4.688  10.773  0.9185 -0.6421  0.3656
17993TIP3    H275471   4.525   4.550  10.814  0.9394 -1.5035 -2.3292
17994TIP3   OH275472   6.521   2.386  15.631  0.3138 -0.2852 -0.1895
17994TIP3    H175473   6.610   2.351  15.635  0.9247  1.2451  0.2547
17994TIP3    H275474   6.482   2.364  15.715  0.8006  0.3477  0.2102
17995TIP3   OH275475   6.632   4.159   3.287  0.6112  0.7327 -0.2820
17995TIP3    H175476   6.556   4.208   3.319 -0.1793  0.4173 -1.5629
17995TIP3    H275477   6.622   4.072   3.325  1.1054  1.0708  0.6558
17996TIP3   OH275478   6.147   0.115   2.492  0.0525 -0.4026 -0.3816
17996TIP3    H175479   6.209   0.053   2.455  1.1287  0.3213  0.1514
17996TIP3    H275480   6.175   0.200   2.459 -0.4481 -0.0240  0.1433
17997TIP3   OH275481   2.079   1.962  11.121 -0.3829 -0.7103 -0.0515
17997TIP3    H175482   2.085   1.979  11.027 -0.4222  1.8123  0.3420
17997TIP3    H275483   2.152   2.011  11.159 -0.9666 -0.8535  1.3181
17998TIP3   OH275484   5.941   0.786   1.949  0.3034  0.0619  0.7239
17998TIP3    H175485   5.985   0.702   1.962 -0.6136 -0.9284 -1.8051
17998TIP3    H275486   6.009   0.844   1.913  0.6543  0.0451  1.3545
17999TIP3   OH275487   5.684   6.515  11.856  0.4665  0.0145 -0.1664
17999TIP3    H175488   5.674   6.434  11.807  0.9947  0.1440 -0.4938
17999TIP3    H275489   5.778   6.529  11.860  0.3692  0.7957 -0.4245
18000TIP3   OH275490   0.945   3.616  12.876 -0.6086  0.3189 -0.5044
18000TIP3    H175491   0.928   3.655  12.962 -2.2784  0.0739 -0.6948
18000TIP3    H275492   0.964   3.690  12.819 -0.0112  0.5246 -0.0465
18001TIP3   OH275493   1.830   2.307  13.389 -0.0193  0.1568  0.3630
18001TIP3    H175494   1.800   2.270  13.306  2.7865 -1.1048 -0.1999
18001TIP3    H275495   1.790   2.394  13.392 -1.1762 -0.2395 -1.7016
18002TIP3   OH275496   1.246   5.952  17.112  0.1492 -0.1290 -0.1106
18002TIP3    H175497   1.339   5.943  17.129 -0.1641 -0.8664  1.4014
18002TIP3    H275498   1.204   5.925  17.194 -1.3913  0.0135 -0.8171
18003TIP3   OH275499   5.240   2.308   2.437 -0.4711 -0.4820  0.3479
18003TIP3    H175500   5.334   2.301   2.447 -0.4193  1.2056  1.4401
18003TIP3    H275501   5.208   2.218   2.446  1.0100 -1.0701 -0.0050
18004TIP3   OH275502   1.492   4.181  11.975 -0.4603  0.1002  0.8398
18004TIP3    H175503   1.457   4.254  11.924  2.5864  1.1811  0.1238
18004TIP3    H275504   1.492   4.107  11.913 -0.3942  0.3859  0.4954
18005TIP3   OH275505   2.326   5.317  14.436  0.1370 -0.4937 -0.0648
18005TIP3    H175506   2.248   5.358  14.474  0.3134  1.2009 -1.4170
18005TIP3    H275507   2.353   5.376  14.366  2.7906 -0.9122  0.4806
18006TIP3   OH275508   5.279   1.507  13.414  0.1139  0.1193 -0.1090
18006TIP3    H175509   5.189   1.518  13.445  0.3509  1.3554  0.1898
18006TIP3    H275510   5.286   1.565  13.338  0.7819  0.3722  0.1359
18007TIP3   OH275511   3.944   3.893  14.089 -0.0160  0.3190  0.0079
18007TIP3    H175512   3.948   3.957  14.019  1.8240 -0.1014 -0.3064
18007TIP3    H275513   4.001   3.928  14.158 -0.0522 -0.3303  0.3811
18008TIP3   OH275514   5.669   4.052   5.382  0.2923 -0.5541  0.5685
18008TIP3    H175515   5.648   4.000   5.305 -2.7711 -0.3001  1.0854
18008TIP3    H275516   5.686   4.139   5.348 -1.2561 -0.3877  0.1169
18009TIP3   OH275517   3.369   4.197   0.839  0.2356  0.0638 -0.1883
18009TIP3    H175518   3.289   4.183   0.788  1.0990 -1.4566 -1.2200
18009TIP3    H275519   3.422   4.256   0.784  1.3609 -1.9403 -1.3717
18010TIP3   OH275520   4.940   3.644  12.301 -0.0498  0.2075  0.6140
18010TIP3    H175521   4.911   3.553  12.293  1.7509 -0.2271 -1.8930
18010TIP3    H275522   5.029   3.638  12.337  1.0291  0.7237 -1.7615
18011TIP3   OH275523   2.982   3.760  12.974 -0.3097  0.6939  0.9337
18011TIP3    H175524   3.033   3.836  12.948  0.1755  0.3557  0.8784
18011TIP3    H275525   2.932   3.736  12.896 -0.6836  1.1248  1.0364
18012TIP3   OH275526   1.507   3.436   0.305  0.1186  0.1668  0.0615
18012TIP3    H175527   1.519   3.529   0.324  0.5209  0.3073 -0.8520
18012TIP3    H275528   1.416   3.418   0.330 -0.1559  0.9495 -0.3398
18013TIP3   OH275529   4.313   6.193  16.462 -0.0604  0.1662  0.1323
18013TIP3    H175530   4.297   6.252  16.536  0.2808  0.2992  0.0997
18013TIP3    H275531   4.407   6.200  16.445  0.1862 -1.1844  0.8015
18014TIP3   OH275532   4.996   0.232  11.337  0.3925 -0.4803 -0.0280
18014TIP3    H175533   5.031   0.180  11.265 -0.5351 -0.2949 -0.6345
18014TIP3    H275534   4.943   0.171  11.388 -1.1500 -0.0593 -1.0530
18015TIP3   OH275535   0.776   5.221   0.931  0.4445  0.2788 -0.5431
18015TIP3    H175536   0.817   5.193   1.013  1.2825 -0.2052 -1.1082
18015TIP3    H275537   0.775   5.142   0.877 -1.7170  0.1468 -0.3900
18016TIP3   OH275538   1.101   6.618  11.411  0.0090  0.4862 -0.0651
18016TIP3    H175539   1.110   6.538  11.359 -1.2847  0.2593  0.0135
18016TIP3    H275540   1.020   6.604  11.461 -1.2785  2.5987 -1.4058
18017TIP3   OH275541   1.103   5.185  11.548 -0.3143  0.1848  0.6337
18017TIP3    H175542   1.131   5.098  11.521 -0.5151  0.5731 -0.9566
18017TIP3    H275543   1.170   5.215  11.609  0.2885 -0.6923  0.4099
18018TIP3   OH275544   3.370   6.096  13.168  0.0750  0.1227  0.3802
18018TIP3    H175545   3.323   6.020  13.203 -0.1751  0.1532  0.1175
18018TIP3    H275546   3.325   6.116  13.086 -0.4062  1.0857  0.8659
18019TIP3   OH275547   4.376   6.299   1.701 -0.4154 -0.2459  0.7903
18019TIP3    H175548   4.416   6.235   1.761  2.4513 -0.0253 -0.7031
18019TIP3    H275549   4.375   6.381   1.750  1.9294 -0.0609  0.6349
18020TIP3   OH275550   1.251   3.052  13.211  0.7981  0.0311  0.1936
18020TIP3    H175551   1.311   3.057  13.286 -0.3222 -0.6014  1.1640
18020TIP3    H275552   1.170   3.093  13.242  0.5040  0.2892 -0.8751
18021TIP3   OH275553   0.036   4.467   0.285  0.5998 -0.0005 -0.3725
18021TIP3    H175554   0.027   4.383   0.240  0.9037  0.2918 -0.9898
18021TIP3    H275555  -0.024   4.525   0.239 -0.4370 -0.1411  0.7481
18022TIP3   OH275556   3.224   5.975   0.735 -0.2882  0.0799  0.0760
18022TIP3    H175557   3.280   6.053   0.736 -1.0624  0.6447  0.2146
18022TIP3    H275558   3.152   5.996   0.794 -1.3974 -0.0543 -1.1688
18023TIP3   OH275559   3.123   5.558  15.313  0.0038 -0.0126 -0.1892
18023TIP3    H175560   3.129   5.504  15.391 -0.7042  0.8602  0.4951
18023TIP3    H275561   3.125   5.496  15.240  0.3875 -0.8592  0.5301
18024TIP3   OH275562   5.420   0.968   3.025 -0.2201  0.2206 -0.2698
18024TIP3    H175563   5.453   0.910   2.957  0.4579 -0.7747  0.8675
18024TIP3    H275564   5.354   0.916   3.072  0.6156  0.2234  0.9527
18025TIP3   OH275565   3.616   1.597   0.085 -0.0062 -0.2688 -0.1086
18025TIP3    H175566   3.588   1.539   0.013  0.0038 -1.3080  0.7041
18025TIP3    H275567   3.611   1.542   0.163  1.9890  0.2225  0.4084
18026TIP3   OH275568   0.282   1.181  14.391 -0.3924 -0.5574 -0.5569
18026TIP3    H175569   0.313   1.224  14.312 -2.4633  0.5479 -0.8429
18026TIP3    H275570   0.291   1.247  14.460 -0.9196 -0.6335 -0.4046
18027TIP3   OH275571   3.735   4.688  10.614 -0.0334 -0.1371  0.2372
18027TIP3    H175572   3.799   4.758  10.620 -0.5969  0.5621 -1.3893
18027TIP3    H275573   3.747   4.638  10.695 -0.9507  2.9470  2.4819
18028TIP3   OH275574   6.003   1.831  15.447 -0.6700  0.7844 -0.2560
18028TIP3    H175575   5.922   1.808  15.494  1.1509 -3.0353  1.4667
18028TIP3    H275576   6.005   1.771  15.373  1.8105 -1.3872  1.3904
18029TIP3   OH275577   0.963   0.077   0.088 -0.1375  0.3899 -0.1194
18029TIP3    H175578   1.032   0.130   0.127  1.9340 -1.3169 -1.2785
18029TIP3    H275579   0.952   0.003   0.146  0.7430 -0.5592 -1.1215
18030TIP3   OH275580   1.809   0.293  16.062  0.8491  0.0388 -0.1432
18030TIP3    H175581   1.877   0.345  16.105  0.7719  0.4503 -0.5035
18030TIP3    H275582   1.738   0.356  16.045 -0.4859 -0.7936  2.0307
18031TIP3   OH275583   2.228   0.098  14.628  0.0808 -0.4190 -0.4617
18031TIP3    H175584   2.146   0.060  14.597 -0.4942  1.1456 -0.9856
18031TIP3    H275585   2.219   0.192  14.609 -0.0752  0.6448  3.8996
18032TIP3   OH275586   5.930   2.685  12.056 -0.2074  0.3023  0.8644
18032TIP3    H175587   5.919   2.740  11.978 -1.2007  0.3078  0.9959
18032TIP3    H275588   5.845   2.642  12.067 -0.1009  0.3487  1.9762
18033TIP3   OH275589   0.955   4.029   1.628  0.4859  0.8957  0.1538
18033TIP3    H175590   0.981   3.945   1.665 -0.9325 -1.0297 -2.8190
18033TIP3    H275591   0.866   4.044   1.662  0.7890  1.2961  0.7881
18034TIP3   OH275592   5.206   0.545   4.040 -0.4227 -0.1065  0.8525
18034TIP3    H175593   5.207   0.465   4.091  0.2537 -1.4200 -1.1150
18034TIP3    H275594   5.140   0.530   3.973  1.2232  0.0214 -0.8926
18035TIP3   OH275595   1.330   4.978   0.358 -0.1210 -0.0290  0.1208
18035TIP3    H175596   1.265   4.916   0.392 -0.2312  0.9928  1.8634
18035TIP3    H275597   1.281   5.031   0.295 -1.1107  0.9398  1.6468
18036TIP3   OH275598   4.415   2.766  12.264  0.5865 -0.1940  0.1344
18036TIP3    H175599   4.471   2.727  12.197 -0.2547  0.9597 -1.3221
18036TIP3    H275600   4.348   2.813  12.214 -0.9008 -0.4310  1.8048
18037TIP3   OH275601   0.181   5.992  13.754  0.6034  0.0960  0.0772
18037TIP3    H175602   0.253   6.029  13.703  0.5245 -0.3565 -0.3761
18037TIP3    H275603   0.137   6.067  13.793  1.4086  0.3627  0.4742
18038TIP3   OH275604   0.801   2.238   5.234 -0.4756 -0.0033 -0.3001
18038TIP3    H175605   0.870   2.292   5.196  2.4194 -1.0254  2.9203
18038TIP3    H275606   0.807   2.155   5.186  1.0533 -0.2947  0.3407
18039TIP3   OH275607   6.457   0.310   4.326  0.2328 -0.6050  0.3883
18039TIP3    H175608   6.519   0.297   4.254  1.0419  0.0433  0.9555
18039TIP3    H275609   6.403   0.230   4.326  1.2800 -1.3259  0.0982
18040TIP3   OH275610   4.090   1.965  10.166 -0.1382  0.1364 -0.2316
18040TIP3    H175611   4.101   1.928  10.253 -0.5276  2.1803  0.7457
18040TIP3    H275612   4.176   1.958  10.125  0.4040  0.3733  0.8328
18041TIP3   OH275613   1.137   2.898   0.523  0.0804 -0.0312  0.4906
18041TIP3    H175614   1.186   2.838   0.580 -1.0417  0.1571  1.7169
18041TIP3    H275615   1.198   2.968   0.503  0.7338 -0.4850  0.8621
18042TIP3   OH275616   2.829   5.050  15.809  0.2106  0.2537  0.5931
18042TIP3    H175617   2.759   5.072  15.870  1.8640  1.2263  2.2025
18042TIP3    H275618   2.786   5.053  15.723 -1.3022  2.7650  1.3356
18043TIP3   OH275619   6.403   6.624  14.594  0.5643  0.3416  0.9035
18043TIP3    H175620   6.451   6.605  14.513  0.5308 -2.6324  1.4809
18043TIP3    H275621   6.466   6.609  14.664 -0.2760 -0.3570  1.5310
18044TIP3   OH275622   6.657   5.525   0.838  0.6632  0.0364  0.1355
18044TIP3    H175623   6.690   5.598   0.890 -0.2723 -0.0453  0.8686
18044TIP3    H275624   6.562   5.529   0.848  0.2093  1.3598 -3.3578
18045TIP3   OH275625   3.097   1.394   3.388  0.3250 -0.2550  0.7609
18045TIP3    H175626   3.155   1.382   3.313 -0.3995 -0.0942  0.1683
18045TIP3    H275627   3.009   1.397   3.351 -0.1841 -1.7147  1.7775
18046TIP3   OH275628   2.911   4.839   1.563  0.7681  0.3481  0.5119
18046TIP3    H175629   2.823   4.814   1.591  0.3338  1.3758  0.1382
18046TIP3    H275630   2.958   4.857   1.644  0.5603  0.0102  0.7083
18047TIP3   OH275631   3.148   4.888  16.226 -0.2181 -0.0429 -0.4082
18047TIP3    H175632   3.235   4.849  16.229 -0.0240  0.3690 -0.5491
18047TIP3    H275633   3.094   4.833  16.284  0.1783 -0.1915 -0.1786
18048TIP3   OH275634   6.032   3.507  13.070 -0.0677 -0.5305 -0.4460
18048TIP3    H175635   6.030   3.497  13.165  1.2746 -0.1728 -0.3519
18048TIP3    H275636   6.077   3.429  13.038 -2.1388 -1.5724 -0.9900
18049TIP3   OH275637   4.460   1.098   5.190  0.0687 -0.1415 -0.2334
18049TIP3    H175638   4.492   1.188   5.196  2.0600 -0.8698  1.7694
18049TIP3    H275639   4.533   1.050   5.150 -1.1860 -0.8244 -1.8169
18050TIP3   OH275640   1.717   5.013  11.144 -0.1302 -0.2265 -0.8199
18050TIP3    H175641   1.700   4.933  11.194  1.2459  0.6495  1.1901
18050TIP3    H275642   1.804   5.000  11.107  0.9990  1.0127  1.1716
18051TIP3   OH275643   4.634   3.146  15.398 -0.3007 -0.4088 -0.0227
18051TIP3    H175644   4.551   3.163  15.444 -0.3763 -2.5735  0.7084
18051TIP3    H275645   4.689   3.221  15.421 -0.9414 -0.5374  2.1508
18052TIP3   OH275646   1.627   3.012  16.799 -0.3488  0.4871 -0.2172
18052TIP3    H175647   1.558   2.995  16.734 -0.9638  1.2225  0.2292
18052TIP3    H275648   1.677   3.084  16.762  2.2006 -1.9943 -2.0581
18053TIP3   OH275649   6.366   5.095  17.030  0.4764 -0.7129  0.1373
18053TIP3    H175650   6.316   5.177  17.025 -0.7256 -1.5189 -2.8004
18053TIP3    H275651   6.359   5.069  17.122 -2.9260  0.2106  0.2894
18054TIP3   OH275652   1.802   4.449  13.346 -0.3774  0.3872 -0.4455
18054TIP3    H175653   1.736   4.516  13.355 -0.3627  0.0634  4.8056
18054TIP3    H275654   1.883   4.497  13.327 -0.8430  1.5990  0.5289
18055TIP3   OH275655   1.744   4.114  15.613  0.1737 -0.7509 -0.9797
18055TIP3    H175656   1.754   4.153  15.526  0.7263  0.8624 -0.2239
18055TIP3    H275657   1.827   4.069  15.630  0.8291  0.5823 -0.5220
18056TIP3   OH275658   2.434   4.892   0.425  0.2133 -0.8803  0.1256
18056TIP3    H175659   2.369   4.825   0.402 -0.1350 -1.1865  1.8898
18056TIP3    H275660   2.485   4.853   0.495 -0.9401  1.1690  2.2648
18057TIP3   OH275661   4.261   0.647  13.693  0.1984 -0.7055 -0.5896
18057TIP3    H175662   4.224   0.652  13.781  2.0265  0.2517  0.1971
18057TIP3    H275663   4.186   0.644  13.634 -1.0700 -2.2076  1.0221
18058TIP3   OH275664   2.259   2.551   2.718 -0.0371  0.4281  0.7443
18058TIP3    H175665   2.345   2.564   2.759  0.0773 -1.4441  1.1813
18058TIP3    H275666   2.279   2.524   2.629 -0.2277  1.1916  0.4575
18059TIP3   OH275667   0.340   0.644   5.310 -0.2090 -0.2186 -0.1671
18059TIP3    H175668   0.413   0.584   5.297 -0.2668  0.0439 -1.9041
18059TIP3    H275669   0.308   0.625   5.398  2.6914  0.5116  1.1498
18060TIP3   OH275670   2.215   1.494   2.524 -0.2814  0.3972  0.2643
18060TIP3    H175671   2.215   1.499   2.428  1.3972 -2.5492 -0.0166
18060TIP3    H275672   2.307   1.480   2.547 -0.8471 -0.5689  2.1457
18061TIP3   OH275673   6.673   0.565   3.723  0.2194 -0.0300 -0.4129
18061TIP3    H175674   6.666   0.615   3.642  0.1604 -0.2737 -0.5623
18061TIP3    H275675   6.595   0.589   3.773 -1.0553 -1.6708 -1.4689
18062TIP3   OH275676   2.522   3.283  16.727 -0.0596  0.1560 -0.1943
18062TIP3    H175677   2.606   3.262  16.688 -0.7646  0.1388 -1.7915
18062TIP3    H275678   2.478   3.199  16.738 -0.9755  0.3160 -2.0982
18063TIP3   OH275679   4.587   1.367  15.364  0.5773 -0.1009  0.0272
18063TIP3    H175680   4.558   1.347  15.453  2.2949  1.5409  1.0248
18063TIP3    H275681   4.516   1.337  15.308 -1.2706  0.2641  2.0575
18064TIP3   OH275682   3.664   5.035  14.269  0.4085  0.1262  0.0598
18064TIP3    H175683   3.595   4.978  14.235  1.4801 -0.8540 -0.5237
18064TIP3    H275684   3.728   4.976  14.308  2.2796  0.7566 -1.8499
18065TIP3   OH275685   5.807   6.424   1.643  0.0079 -0.5097 -0.7039
18065TIP3    H175686   5.870   6.482   1.600  0.4027 -1.0528 -0.8681
18065TIP3    H275687   5.840   6.414   1.732  1.4114 -2.5623 -1.3971
18066TIP3   OH275688   3.663   6.721  12.045  0.0821  0.7873 -0.6297
18066TIP3    H175689   3.719   6.651  12.009  1.1097  0.4898  1.3664
18066TIP3    H275690   3.623   6.761  11.969 -0.1190 -1.6331 -1.9071
18067TIP3   OH275691   1.182   3.405   2.373 -0.0214  0.0406 -0.7043
18067TIP3    H175692   1.270   3.395   2.337  0.4453  0.7795  0.1926
18067TIP3    H275693   1.181   3.494   2.409 -0.8249 -0.2862  0.1067
18068TIP3   OH275694   5.891   4.433  14.810  0.0998 -0.1392 -0.5836
18068TIP3    H175695   5.869   4.372  14.740 -0.4172 -1.2905  0.5448
18068TIP3    H275696   5.935   4.506  14.765  2.3469 -2.0927 -1.7761
18069TIP3   OH275697   4.894   6.723  12.146  0.1100  0.1148 -0.5692
18069TIP3    H175698   4.980   6.698  12.113  0.9350  2.6654 -0.5624
18069TIP3    H275699   4.875   6.807  12.104 -1.5199  0.5284  0.8489
18070TIP3   OH275700   5.576   5.324  10.768 -0.2376  0.4203  0.1142
18070TIP3    H175701   5.534   5.381  10.705  1.8735  0.6075 -1.2292
18070TIP3    H275702   5.586   5.377  10.847 -1.0039  0.8836 -0.0988
18071TIP3   OH275703   2.973   0.902   3.276  0.5448  1.0172 -0.2217
18071TIP3    H175704   3.065   0.893   3.249 -0.1412 -1.1049 -2.0437
18071TIP3    H275705   2.928   0.933   3.198 -0.2430  2.7712  0.8646
18072TIP3   OH275706   3.131   2.838  14.370 -0.0447  0.3694 -0.5127
18072TIP3    H175707   3.089   2.796  14.445  1.8009 -0.9986 -0.1691
18072TIP3    H275708   3.070   2.906  14.344 -1.2112  0.2422  1.6079
18073TIP3   OH275709   4.398   5.100   3.446 -0.1913  0.1629  0.4423
18073TIP3    H175710   4.484   5.085   3.486 -0.8337 -1.8193  1.2435
18073TIP3    H275711   4.406   5.065   3.357  0.0377  0.6416  0.2756
18074TIP3   OH275712   5.317   5.217   4.661  0.2519 -0.2078 -0.3470
18074TIP3    H175713   5.364   5.245   4.740 -1.2315  2.1262 -0.1657
18074TIP3    H275714   5.369   5.252   4.589 -0.1949  0.7609 -0.2196
18075TIP3   OH275715   0.093   6.240  11.510  0.4942 -0.2954  0.3631
18075TIP3    H175716   0.148   6.284  11.445  1.2224 -2.1525 -0.3529
18075TIP3    H275717   0.003   6.258  11.483  0.7299  1.7141  0.8037
18076TIP3   OH275718   4.814   1.459   2.144  0.1599 -0.2775 -0.1859
18076TIP3    H175719   4.738   1.409   2.117  0.0287  0.6005 -1.5472
18076TIP3    H275720   4.888   1.417   2.100  0.2035  0.0069 -0.3876
18077TIP3   OH275721   6.001   1.894   1.751  0.1467  0.0044  0.4204
18077TIP3    H175722   6.048   1.876   1.669 -0.3771 -0.4673  0.2164
18077TIP3    H275723   5.983   1.988   1.748  0.4073  0.0483  0.1429
18078TIP3   OH275724   3.729   3.861   1.734  0.2080 -0.5727  0.4027
18078TIP3    H175725   3.680   3.891   1.810 -0.4947 -2.6659  0.8513
18078TIP3    H275726   3.760   3.941   1.692  0.2454  0.6456  2.6294
18079TIP3   OH275727   6.175   2.318  15.356 -0.0648  0.3280 -0.4520
18079TIP3    H175728   6.143   2.257  15.289 -1.5461 -0.4442  0.9047
18079TIP3    H275729   6.124   2.398  15.342 -1.7803 -0.4669  0.8835
18080TIP3   OH275730   1.071   0.579  15.181 -0.7469 -0.4071 -0.4550
18080TIP3    H175731   1.002   0.638  15.151 -0.5949 -0.3290 -0.6490
18080TIP3    H275732   1.138   0.584  15.113 -0.2448  0.0458  0.0584
18081TIP3   OH275733   0.322   6.529  12.865 -0.5442  0.0756  0.5997
18081TIP3    H175734   0.329   6.470  12.939  1.3423  1.2975  1.4794
18081TIP3    H275735   0.277   6.606  12.899  1.1426  1.0225  0.7895
18082TIP3   OH275736   3.730   1.279  15.938 -0.1763 -0.2420 -0.4687
18082TIP3    H175737   3.747   1.187  15.917  1.3776  0.1957 -1.2450
18082TIP3    H275738   3.707   1.320  15.855  2.0936  0.6678 -0.7185
18083TIP3   OH275739   3.490   4.355   1.877  0.6304 -0.0249 -0.2755
18083TIP3    H175740   3.505   4.326   1.787  0.8155 -0.4602 -0.1025
18083TIP3    H275741   3.576   4.382   1.908  0.5729  0.0875 -0.2124
18084TIP3   OH275742   3.799   0.562   1.734  0.2461 -0.3207  0.3141
18084TIP3    H175743   3.781   0.477   1.773  0.6756  0.4919  2.4107
18084TIP3    H275744   3.762   0.625   1.796 -0.2341  1.0442 -1.2841
18085TIP3   OH275745   1.284   2.783  16.362 -0.6534 -0.0966 -0.5811
18085TIP3    H175746   1.252   2.695  16.341 -0.2355 -0.5172  0.4767
18085TIP3    H275747   1.216   2.820  16.419  0.5640 -0.9183  1.5043
18086TIP3   OH275748   6.602   4.288  16.303  0.5807 -0.2686 -0.1056
18086TIP3    H175749   6.685   4.313  16.262  0.5518  2.7978  1.4316
18086TIP3    H275750   6.535   4.321  16.243  0.4643 -0.6452 -0.1884
18087TIP3   OH275751   4.482   2.936   4.036 -0.6838  0.0130 -0.3734
18087TIP3    H175752   4.433   2.856   4.017 -1.3235  0.3366 -0.1093
18087TIP3    H275753   4.556   2.934   3.975 -0.5192 -0.9342 -0.1454
18088TIP3   OH275754   0.550   0.158  14.392 -0.1139  0.2766 -0.4127
18088TIP3    H175755   0.613   0.230  14.393 -0.5358  0.6501 -0.1533
18088TIP3    H275756   0.556   0.121  14.304  1.0540 -0.2263 -0.1365
18089TIP3   OH275757   1.562   3.753  14.110 -0.0669 -0.4190  0.2385
18089TIP3    H175758   1.513   3.783  14.187  0.3532  0.1254  0.2968
18089TIP3    H275759   1.538   3.814  14.040  0.2390 -0.3725  0.1715
18090TIP3   OH275760   4.343   0.459  13.137  0.1974 -0.3919  0.0272
18090TIP3    H175761   4.396   0.521  13.187  2.0677 -1.3292 -0.7069
18090TIP3    H275762   4.339   0.381  13.193  0.0561 -0.5146 -0.1548
18091TIP3   OH275763   5.913   4.262  11.840 -0.1080  0.7675  0.9324
18091TIP3    H175764   5.892   4.287  11.750 -0.2190  1.2296  1.0877
18091TIP3    H275765   5.991   4.312  11.862  0.1387  0.3757  0.9696
18092TIP3   OH275766   5.977   0.297   5.731  0.6182  0.3366  0.7496
18092TIP3    H175767   5.908   0.250   5.684  1.4249 -1.7053  1.5139
18092TIP3    H275768   5.935   0.330   5.810 -0.0654  1.3281 -0.0111
18093TIP3   OH275769   1.623   0.146  14.149  0.2116  0.1087 -0.1654
18093TIP3    H175770   1.667   0.100  14.077  0.7787  0.2854  0.0630
18093TIP3    H275771   1.693   0.197  14.191 -0.2086  0.3684  0.2211
18094TIP3   OH275772   5.895   0.437   4.318  0.4897 -0.0279 -0.0796
18094TIP3    H175773   5.874   0.449   4.225  0.0247 -0.1572  0.0066
18094TIP3    H275774   5.964   0.371   4.318  2.2147  1.6876 -0.4777
18095TIP3   OH275775   3.863   5.013  16.402 -0.2280  0.7584 -0.0538
18095TIP3    H175776   3.895   4.962  16.328  0.5284  1.7265 -0.4217
18095TIP3    H275777   3.941   5.026  16.457 -0.8689 -0.3230  1.1537
18096TIP3   OH275778   2.165   0.616  11.716 -0.3094 -0.1058 -0.1910
18096TIP3    H175779   2.212   0.667  11.650  0.6289  0.0608  0.5974
18096TIP3    H275780   2.143   0.679  11.784 -0.2997 -0.4930  0.1729
18097TIP3   OH275781   3.009   1.057   4.597 -0.4870 -0.3478 -0.5792
18097TIP3    H175782   2.920   1.085   4.573 -0.2477  0.5247 -0.4745
18097TIP3    H275783   3.005   0.961   4.595 -1.8155 -0.3481  0.8025
18098TIP3   OH275784   0.315   0.262   1.296  0.7208  0.2187 -0.0641
18098TIP3    H175785   0.365   0.227   1.370 -3.8358  0.5887  3.6422
18098TIP3    H275786   0.290   0.350   1.324 -0.3891  0.7730 -2.5388
18099TIP3   OH275787   0.975   0.209   4.109 -0.0081 -0.2941 -0.1008
18099TIP3    H175788   1.045   0.153   4.145 -0.8622 -2.9271 -2.1782
18099TIP3    H275789   0.942   0.160   4.034 -2.9546  1.6703 -0.2410
18100TIP3   OH275790   1.659   0.122   0.749 -0.2903 -0.1902 -0.2126
18100TIP3    H175791   1.746   0.083   0.746 -0.4881 -0.6713  0.2462
18100TIP3    H275792   1.671   0.204   0.797 -0.0739 -0.2080 -0.2369
18101TIP3   OH275793   1.999   2.853   0.180  0.1957 -0.2149  0.4016
18101TIP3    H175794   2.057   2.782   0.151 -1.1023 -0.7119 -1.1055
18101TIP3    H275795   2.005   2.919   0.111 -2.6227 -1.2160 -0.9150
18102TIP3   OH275796   1.185   0.595  12.413  0.9478  0.0587 -0.3654
18102TIP3    H175797   1.190   0.499  12.409  0.2184 -0.1355  1.9060
18102TIP3    H275798   1.118   0.618  12.349 -1.6215 -1.3550  1.5995
18103TIP3   OH275799   0.315   6.084   1.861 -0.0445  0.6376  0.1617
18103TIP3    H175800   0.368   6.067   1.939  0.0225  0.5816  0.1049
18103TIP3    H275801   0.342   6.016   1.799 -2.7240 -1.7263  1.3590
18104TIP3   OH275802   3.965   1.398   0.857 -0.4718  0.0200 -0.1500
18104TIP3    H175803   3.994   1.423   0.769 -0.6780 -0.4804 -0.3622
18104TIP3    H275804   3.890   1.341   0.842 -1.2704  0.8965  0.3824
18105TIP3   OH275805   1.637   3.117   3.362  0.0951 -0.2488 -0.0143
18105TIP3    H175806   1.665   3.037   3.317 -3.4995 -1.2196 -0.8437
18105TIP3    H275807   1.630   3.091   3.454 -1.7334 -1.1789 -0.3757
18106TIP3   OH275808   5.689   5.617  16.345  0.2555 -0.1752 -0.4340
18106TIP3    H175809   5.725   5.703  16.368  2.0216 -0.4397 -1.9538
18106TIP3    H275810   5.597   5.621  16.372  0.4275  2.0007 -0.0037
18107TIP3   OH275811   3.584   6.075   1.363 -0.1372  0.7783  0.0817
18107TIP3    H175812   3.622   6.086   1.450 -0.5726  0.4382  0.3184
18107TIP3    H275813   3.635   6.006   1.322  0.1471  1.0242  0.0225
18108TIP3   OH275814   1.665   0.388  16.834  0.5098 -0.2243 -0.0156
18108TIP3    H175815   1.692   0.354  16.749  0.3328 -1.0259  0.2424
18108TIP3    H275816   1.612   0.318  16.873 -1.9537  1.2599 -0.4781
18109TIP3   OH275817   3.638   1.306  15.679  0.4504 -0.2909 -0.0364
18109TIP3    H175818   3.548   1.275  15.689  0.1556  0.7977  0.8804
18109TIP3    H275819   3.661   1.283  15.589 -1.0655  0.2256 -0.5931
18110TIP3   OH275820   0.193   1.379  10.552  0.2290  0.4039 -0.0744
18110TIP3    H175821   0.106   1.356  10.521  0.3874 -0.1727 -0.1017
18110TIP3    H275822   0.203   1.472  10.530 -1.2173  1.0879  1.8291
18111TIP3   OH275823   2.598   2.479   0.939  0.0511 -0.5374 -0.4324
18111TIP3    H175824   2.624   2.417   0.871 -0.8359 -0.4941 -0.8299
18111TIP3    H275825   2.620   2.435   1.021 -0.2482 -1.2472 -0.7178
18112TIP3   OH275826   4.006   1.966   5.736 -0.1364  0.4783  0.2292
18112TIP3    H175827   3.966   1.974   5.822  0.4373  0.1553  0.5347
18112TIP3    H275828   3.933   1.971   5.674 -0.5707  0.5174  0.7433
18113TIP3   OH275829   5.359   5.313   1.457  0.3417  0.2904 -0.1146
18113TIP3    H175830   5.446   5.341   1.428 -1.0330  1.2183 -3.9641
18113TIP3    H275831   5.305   5.392   1.450 -1.0611 -0.5096  1.1475
18114TIP3   OH275832   5.260   4.862  16.843  0.1888  0.4751  0.4460
18114TIP3    H175833   5.215   4.945  16.827 -2.7483 -1.3365 -1.7588
18114TIP3    H275834   5.304   4.842  16.760  2.6449  0.7127  1.6063
18115TIP3   OH275835   2.222   1.939  14.235  0.0734 -0.0072  0.4283
18115TIP3    H175836   2.310   1.974  14.244  0.0973  0.7201 -1.8319
18115TIP3    H275837   2.234   1.845  14.223  0.5678  0.0917  0.1267
18116TIP3   OH275838   5.808   4.029  16.207 -0.0302  0.1474 -0.0854
18116TIP3    H175839   5.767   4.017  16.293  1.3270  0.3306  0.6192
18116TIP3    H275840   5.897   4.058  16.227  0.3543  0.0589 -1.5587
18117TIP3   OH275841   0.653   5.607  13.643 -0.1077  0.3860 -0.7907
18117TIP3    H175842   0.737   5.564  13.656  0.7341  1.8674 -1.0462
18117TIP3    H275843   0.600   5.581  13.718  0.0953 -1.5926 -1.2790
18118TIP3   OH275844   2.528   2.424  17.052 -0.6079  0.6598 -0.3190
18118TIP3    H175845   2.573   2.466  17.125 -1.8905  0.9860  0.3162
18118TIP3    H275846   2.575   2.455  16.974  0.8099  0.2637  0.3478
18119TIP3   OH275847   1.197   0.596   6.272 -0.2117  0.2235 -0.3955
18119TIP3    H175848   1.180   0.516   6.223 -0.2813 -0.1763  0.2602
18119TIP3    H275849   1.192   0.569   6.364  2.4266  0.3758 -0.1202
18120TIP3   OH275850   1.291   1.368   1.546 -0.0038 -0.3286  0.0863
18120TIP3    H175851   1.279   1.400   1.636  1.6880  0.2220  0.1361
18120TIP3    H275852   1.373   1.320   1.549  0.0966 -0.2495 -1.1951
18121TIP3   OH275853   0.360   3.625  14.333  0.1622  0.6672  0.0237
18121TIP3    H175854   0.403   3.672  14.405 -0.6204  2.3651 -0.5491
18121TIP3    H275855   0.276   3.598  14.371  0.1666  0.6814  0.0441
18122TIP3   OH275856   1.474   6.565   3.687 -0.0032  0.2671  0.5659
18122TIP3    H175857   1.468   6.660   3.678 -0.9897  0.2091  0.5882
18122TIP3    H275858   1.475   6.550   3.781  2.7134  0.3869  0.6471
18123TIP3   OH275859   0.862   0.157   4.977 -0.3555 -0.2630  0.3061
18123TIP3    H175860   0.874   0.067   4.946 -0.6541 -0.0640 -0.4268
18123TIP3    H275861   0.949   0.197   4.972 -0.2879 -0.4137  0.2933
18124TIP3   OH275862   5.170   3.335   0.369 -0.8213  0.5614  0.1508
18124TIP3    H175863   5.098   3.366   0.314  0.5701 -0.7482 -2.6138
18124TIP3    H275864   5.219   3.275   0.312  1.4865  0.0967  2.4621
18125TIP3   OH275865   3.779   1.734   5.757 -0.1696 -0.3678  0.1873
18125TIP3    H175866   3.865   1.731   5.714 -1.4789 -0.4180 -2.6904
18125TIP3    H275867   3.764   1.645   5.788  0.9516 -0.2694  1.0433
18126TIP3   OH275868   0.702   4.912  11.164 -0.1121 -0.4388 -0.5802
18126TIP3    H175869   0.736   4.938  11.079  0.5525  0.9289  0.0774
18126TIP3    H275870   0.780   4.893  11.216 -0.4736 -0.4413 -0.0275
18127TIP3   OH275871   6.516   5.795  13.053 -0.3112  0.3424 -0.2404
18127TIP3    H175872   6.552   5.730  13.113  0.3322  0.3905 -0.5642
18127TIP3    H275873   6.462   5.852  13.109 -1.0409 -0.5704  0.0130
18128TIP3   OH275874   1.446   3.432   1.096  0.5773 -0.4517 -0.2666
18128TIP3    H175875   1.353   3.424   1.116  0.7807 -0.6290  0.6153
18128TIP3    H275876   1.480   3.491   1.163  0.9480  0.2635 -1.0692
18129TIP3   OH275877   0.832   6.517   1.594 -0.1621 -0.3713  0.0875
18129TIP3    H175878   0.778   6.516   1.672 -1.4981 -2.1682 -0.7789
18129TIP3    H275879   0.898   6.449   1.609  0.7270  0.5344  0.3749
18130TIP3   OH275880   4.210   1.102   0.378 -0.5429 -0.0768  0.2644
18130TIP3    H175881   4.232   1.107   0.471  0.7590 -1.3407  0.0517
18130TIP3    H275882   4.118   1.130   0.374  0.1514  2.8167  1.5434
18131TIP3   OH275883   0.038   4.046   3.119  0.0045 -0.0471 -0.1657
18131TIP3    H175884  -0.046   4.085   3.144 -0.2806 -1.0582  0.5405
18131TIP3    H275885   0.022   3.951   3.125  1.5148 -0.2585  1.0656
18132TIP3   OH275886   1.078   3.009   1.766  0.3143 -0.0255 -0.0469
18132TIP3    H175887   1.050   2.980   1.680 -1.5840 -1.2934  0.9197
18132TIP3    H275888   1.011   3.071   1.794 -0.5125 -1.5007  1.4653
18133TIP3   OH275889   4.737   0.511  14.050 -0.1548  0.1040  0.1975
18133TIP3    H175890   4.676   0.438  14.038 -1.0257  0.6951  0.9335
18133TIP3    H275891   4.800   0.479  14.114 -0.2020 -0.2006  0.0957
18134TIP3   OH275892   6.047   1.624   3.504 -0.5748 -0.5238  0.7364
18134TIP3    H175893   5.981   1.592   3.442 -0.0061 -0.1501 -0.0875
18134TIP3    H275894   6.025   1.582   3.587 -0.3588 -2.4123 -0.1093
18135TIP3   OH275895   6.494   5.276  16.783 -0.1635  0.4143 -0.4716
18135TIP3    H175896   6.412   5.243  16.819  0.4155  0.7528  1.2180
18135TIP3    H275897   6.472   5.364  16.752  0.0044  1.4335  2.0458
18136TIP3   OH275898   2.329   1.533  16.186  0.6895  0.0709 -0.1463
18136TIP3    H175899   2.272   1.461  16.159  2.7471 -1.9229  0.5695
18136TIP3    H275900   2.417   1.506  16.160  1.4946  2.6126 -0.3751
18137TIP3   OH275901   6.399   0.865   0.428  0.2296 -0.3656 -0.0108
18137TIP3    H175902   6.433   0.873   0.339 -1.1925 -0.7019 -0.6203
18137TIP3    H275903   6.471   0.892   0.485  0.4589  2.1054 -1.3345
18138TIP3   OH275904   3.724   2.877  13.876  0.0917 -0.1292 -0.7276
18138TIP3    H175905   3.654   2.936  13.905 -0.7843 -0.6284 -1.7430
18138TIP3    H275906   3.795   2.936  13.851 -1.2962  0.6648 -3.1470
18139TIP3   OH275907   6.492   5.371  17.157  0.2344 -0.1974 -0.1278
18139TIP3    H175908   6.423   5.358  17.092  1.0196  0.4972 -1.1227
18139TIP3    H275909   6.481   5.298  17.218 -1.4969  0.0070 -0.1416
18140TIP3   OH275910   5.785   4.666  14.388  0.3874  0.1466  0.4695
18140TIP3    H175911   5.790   4.759  14.410  2.3977  0.2642 -0.2805
18140TIP3    H275912   5.701   4.657  14.342 -1.4546  0.8693  3.4391
18141TIP3   OH275913   5.103   4.480   3.816  0.7731  0.3015  0.2340
18141TIP3    H175914   5.046   4.509   3.746 -0.1251 -2.0460 -0.1019
18141TIP3    H275915   5.107   4.554   3.877 -0.6068  1.4005 -0.9485
18142TIP3   OH275916   1.208   0.102  13.514 -0.1883 -0.1017  0.1168
18142TIP3    H175917   1.285   0.099  13.571 -0.1135 -0.1794  0.0121
18142TIP3    H275918   1.233   0.050  13.437 -0.7443 -1.0560  0.5598
18143TIP3   OH275919   2.523   4.728  16.038 -0.4837  0.0965 -0.3962
18143TIP3    H175920   2.578   4.687  16.104 -0.5385  1.3457  0.4548
18143TIP3    H275921   2.486   4.654  15.989 -1.3199 -0.9435  1.6705
18144TIP3   OH275922   3.110   6.717   2.783 -0.6349 -0.1295  0.1721
18144TIP3    H175923   3.112   6.780   2.855  1.1360 -1.0788  1.0073
18144TIP3    H275924   3.030   6.667   2.798 -0.6752  0.1744  1.0356
18145TIP3   OH275925   4.280   0.483  16.932  0.5972  0.5030 -0.3441
18145TIP3    H175926   4.340   0.531  16.875 -0.4275  3.0886  0.5891
18145TIP3    H275927   4.269   0.540  17.008 -2.7399  0.0297 -0.3205
18146TIP3   OH275928   6.694   5.369   2.220 -0.5908  0.0667  0.3561
18146TIP3    H175929   6.727   5.282   2.198 -0.3425  0.0290  0.8502
18146TIP3    H275930   6.660   5.404   2.138 -0.6262 -0.4683  0.1424
18147TIP3   OH275931   5.062   6.308   2.029 -0.0021  0.4290 -0.1422
18147TIP3    H175932   5.155   6.308   2.008 -0.1381  0.4953 -0.7426
18147TIP3    H275933   5.019   6.346   1.953 -0.3932  1.7587  0.7000
18148TIP3   OH275934   2.493   6.410   1.701 -0.5102  0.1445 -0.1689
18148TIP3    H175935   2.443   6.330   1.717  0.9058 -0.5340  1.0887
18148TIP3    H275936   2.556   6.414   1.773 -0.2741  2.1869 -0.4331
18149TIP3   OH275937   3.974   3.010   1.870 -0.7264 -0.2113  0.0304
18149TIP3    H175938   3.959   2.927   1.914 -0.1517 -1.0057 -1.2436
18149TIP3    H275939   4.066   3.031   1.889 -1.3709  1.1986  2.0396
18150TIP3   OH275940   0.592   6.317  14.072  0.0259  0.1637  0.1254
18150TIP3    H175941   0.497   6.303  14.070  0.3005 -2.1010  0.0418
18150TIP3    H275942   0.602   6.411  14.088 -2.2306  0.2953  1.1925
18151TIP3   OH275943   1.347   2.102   0.916 -0.0760 -0.0514 -0.0263
18151TIP3    H175944   1.256   2.075   0.925  0.0876 -1.3199 -1.7605
18151TIP3    H275945   1.343   2.195   0.895 -0.9539 -0.0474  0.1374
18152TIP3   OH275946   3.804   0.578   2.924  0.0388 -0.0129  0.1277
18152TIP3    H175947   3.842   0.525   2.854  0.6138  1.0107 -0.3767
18152TIP3    H275948   3.741   0.635   2.879  0.8775  1.0968  0.3082
18153TIP3   OH275949   5.553   3.728  11.044 -0.8448  0.0842 -0.1253
18153TIP3    H175950   5.549   3.819  11.017  1.2762 -0.6534 -3.4866
18153TIP3    H275951   5.481   3.686  10.998 -0.4490 -0.3134 -0.3872
18154TIP3   OH275952   6.582   1.137  10.236 -0.4117  0.1685 -0.2522
18154TIP3    H175953   6.510   1.142  10.174 -1.4849 -1.3113  0.8075
18154TIP3    H275954   6.547   1.173  10.317 -0.0451 -0.7208  0.3250
18155TIP3   OH275955   2.229   4.540  12.171  0.0366 -0.3402 -0.0044
18155TIP3    H175956   2.214   4.629  12.203 -0.4697  0.0180 -1.1679
18155TIP3    H275957   2.189   4.539  12.084  0.4143 -1.5848 -0.1858
18156TIP3   OH275958   2.841   1.568  14.790  0.2937 -0.3023 -0.0177
18156TIP3    H175959   2.908   1.518  14.743 -1.3495  0.4299 -3.4251
18156TIP3    H275960   2.776   1.502  14.817  0.0827 -0.4807 -0.9475
18157TIP3   OH275961   6.512   2.354  15.173  0.1919  0.0111 -0.3752
18157TIP3    H175962   6.489   2.303  15.250 -0.3882  0.0977 -0.4897
18157TIP3    H275963   6.570   2.423  15.206 -1.4599  1.1188  0.2888
18158TIP3   OH275964   0.810   5.921   3.551 -0.2831 -0.6864 -0.3364
18158TIP3    H175965   0.835   5.993   3.608 -1.4238 -0.0731 -0.5775
18158TIP3    H275966   0.892   5.891   3.513  0.4483 -0.8199  1.2618
18159TIP3   OH275967   6.110   2.104  13.631  0.6208  0.3277 -0.4177
18159TIP3    H175968   6.114   2.024  13.579  1.1262  0.1290 -0.0750
18159TIP3    H275969   6.033   2.151  13.597 -0.7649 -1.1213  0.5877
18160TIP3   OH275970   6.686   1.336   4.151 -0.4010  0.2332  0.5935
18160TIP3    H175971   6.637   1.404   4.104 -0.9072 -0.0428  0.7156
18160TIP3    H275972   6.619   1.283   4.194 -0.0231 -0.4358  0.3793
18161TIP3   OH275973   0.723   4.720   5.105  0.1461  0.0141  0.0465
18161TIP3    H175974   0.810   4.697   5.073 -0.2022 -0.8414 -0.3024
18161TIP3    H275975   0.708   4.808   5.071  0.2069 -0.4666 -1.3025
18162TIP3   OH275976   2.860   0.034  12.826 -0.0870  0.0545 -0.5957
18162TIP3    H175977   2.932  -0.013  12.868 -0.6686 -0.4123 -0.0960
18162TIP3    H275978   2.856   0.117  12.873  0.0127  0.0073 -0.5008
18163TIP3   OH275979   5.616   0.372  11.891  0.3752  0.5417 -0.8289
18163TIP3    H175980   5.621   0.442  11.957 -1.4632  1.6882 -1.8215
18163TIP3    H275981   5.592   0.294  11.941 -1.5584  1.5088 -0.1295
18164TIP3   OH275982   5.918   0.175   1.169 -0.5694 -0.4395  0.4041
18164TIP3    H175983   5.917   0.209   1.079 -0.8873  1.2860  1.0227
18164TIP3    H275984   5.917   0.079   1.158  2.7996 -0.4308 -1.4559
18165TIP3   OH275985   3.783   0.592  15.117 -0.1791 -0.1438  0.2686
18165TIP3    H175986   3.853   0.527  15.105 -1.3478 -1.4375  0.2479
18165TIP3    H275987   3.824   0.660  15.170  0.6458 -1.6584  1.6949
18166TIP3   OH275988   3.743   0.164   3.500 -0.3250 -0.1961 -0.3104
18166TIP3    H175989   3.711   0.074   3.496 -0.2838 -0.1639 -2.4724
18166TIP3    H275990   3.825   0.158   3.549 -1.2416 -0.9977  1.2184
18167TIP3   OH275991   1.660   4.390  12.266 -0.1411  0.4152 -0.2284
18167TIP3    H175992   1.594   4.453  12.237 -0.1904  0.4381 -0.0682
18167TIP3    H275993   1.609   4.318  12.304 -0.0911  0.1954 -0.5734
18168TIP3   OH275994   4.879   6.341  15.885 -0.0438 -0.5103  0.1955
18168TIP3    H175995   4.957   6.368  15.935  0.3757 -0.5234 -0.4434
18168TIP3    H275996   4.905   6.351  15.794 -1.1868  0.6130 -0.0250
18169TIP3   OH275997   4.509   3.230  15.929  0.0820 -0.0361  0.0262
18169TIP3    H175998   4.434   3.200  15.876  1.1557 -1.1858 -0.9046
18169TIP3    H275999   4.514   3.166  16.000 -1.4516  1.5884  1.7257
18170TIP3   OH276000   1.093   1.972   0.854 -0.0268  0.1486 -0.5673
18170TIP3    H176001   1.122   1.922   0.778  1.7812 -0.4134  0.4384
18170TIP3    H276002   1.026   2.031   0.820 -1.2620 -1.9929 -2.0427
18171TIP3   OH276003   2.486   1.162  16.981 -0.1125  0.3689 -0.5422
18171TIP3    H176004   2.581   1.157  16.974 -0.0963 -0.1264 -0.0618
18171TIP3    H276005   2.455   1.164  16.891  0.2497 -1.7540 -0.7774
18172TIP3   OH276006   3.509   3.944   4.178  0.1287  0.1318 -0.7004
18172TIP3    H176007   3.423   3.981   4.195  0.5039  0.7592 -0.0982
18172TIP3    H276008   3.504   3.911   4.088 -0.8376 -0.1481 -0.5486
18173TIP3   OH276009   3.843   3.138   3.908 -0.4403  0.4131  0.3293
18173TIP3    H176010   3.825   3.095   3.992 -0.1405  0.3358  0.3551
18173TIP3    H276011   3.892   3.073   3.858 -1.3645  0.1370 -0.2344
18174TIP3   OH276012   3.878   5.355  15.725  0.0910 -0.2499 -0.0507
18174TIP3    H176013   3.935   5.367  15.649 -0.4387 -1.5680 -0.7026
18174TIP3    H276014   3.803   5.411  15.708  0.3334  0.0561 -0.1148
18175TIP3   OH276015   1.378   0.268   4.034  0.4248  0.1263 -0.2267
18175TIP3    H176016   1.372   0.183   4.079  1.8320 -0.3326 -0.8476
18175TIP3    H276017   1.424   0.324   4.096 -1.5384  0.8192  0.6658
18176TIP3   OH276018   1.607   3.168  12.418  0.1541 -0.8326  0.1338
18176TIP3    H176019   1.647   3.162  12.331 -0.2137 -0.0507 -0.0979
18176TIP3    H276020   1.522   3.208  12.402  0.0177 -0.8333  0.8382
18177TIP3   OH276021   6.679   3.053   2.924  0.2260  0.8193 -0.0115
18177TIP3    H176022   6.690   3.053   2.829  0.3676  0.3905  0.0031
18177TIP3    H276023   6.598   3.100   2.939  0.2511  0.9703 -0.3408
18178TIP3   OH276024   3.948   1.353  13.949 -0.4588  0.2848 -0.5518
18178TIP3    H176025   3.993   1.387  13.872  0.5448  1.9871  0.7240
18178TIP3    H276026   4.007   1.370  14.022 -1.0556 -1.9405  0.5547
18179TIP3   OH276027   4.047   1.635   1.360 -0.4594  0.2759  0.9920
18179TIP3    H176028   3.966   1.585   1.355 -1.6796  2.2368 -1.3341
18179TIP3    H276029   4.024   1.721   1.325  2.5688  1.0216  0.5181
18180TIP3   OH276030   2.908   2.908  12.986 -0.5276  0.7981 -0.4832
18180TIP3    H176031   2.990   2.928  13.030 -0.8983 -1.1706  1.2587
18180TIP3    H276032   2.889   2.817  13.010 -1.7366  0.2162 -3.2209
18181TIP3   OH276033   2.814   4.251   0.886  0.1395 -0.0510  0.5891
18181TIP3    H176034   2.879   4.307   0.928  1.3124 -1.8398  1.3059
18181TIP3    H276035   2.827   4.265   0.793  0.7919  0.4407  0.7459
18182TIP3   OH276036   3.093   3.375   4.219  0.0810  0.0090  0.4418
18182TIP3    H176037   3.147   3.445   4.254  0.6287  1.2567 -2.5995
18182TIP3    H276038   3.019   3.369   4.279  1.8842  0.5281  2.8677
18183TIP3   OH276039   5.913   2.897  10.840 -0.6847  0.1961  0.1488
18183TIP3    H176040   5.839   2.838  10.849 -2.3357  2.0234 -0.6768
18183TIP3    H276041   5.886   2.977  10.885  0.3173  1.2899 -1.0876
18184TIP3   OH276042   4.693   5.849  11.748  0.1042  0.0759  0.3257
18184TIP3    H176043   4.638   5.826  11.673 -2.5442  2.0103  1.4956
18184TIP3    H276044   4.663   5.792  11.818  0.5037  0.2881  0.6733
18185TIP3   OH276045   6.077   5.981   3.099  0.2411  0.8971  0.1331
18185TIP3    H176046   6.128   5.959   3.021  1.7155  0.3859  1.1950
18185TIP3    H276047   6.112   5.924   3.168 -2.8280 -0.6461  0.6010
18186TIP3   OH276048   4.043   2.248  16.256 -0.6842 -0.0860 -0.2205
18186TIP3    H176049   4.036   2.253  16.161  3.1406  1.4378 -0.6094
18186TIP3    H276050   4.016   2.334  16.287 -2.1824 -0.6655  0.1687
18187TIP3   OH276051   5.059   4.925  13.475  0.0331 -0.0587  0.5598
18187TIP3    H176052   5.069   4.976  13.555  0.2336  0.1920  0.3782
18187TIP3    H276053   4.965   4.927  13.456 -0.2201 -1.3437  1.5741
18188TIP3   OH276054   1.326   3.108   2.853 -0.1806 -0.6668 -0.0012
18188TIP3    H176055   1.368   3.106   2.767 -0.8907 -0.1274 -0.3650
18188TIP3    H276056   1.398   3.091   2.915  0.5309  0.0029 -0.6272
18189TIP3   OH276057   5.758   3.335  15.783  0.0774 -0.2140  0.9919
18189TIP3    H176058   5.715   3.418  15.762  0.9615  0.1240  0.4745
18189TIP3    H276059   5.823   3.324  15.714  1.0046 -0.5742  1.9028
18190TIP3   OH276060   1.124   0.040   2.583  0.6391 -0.1584 -0.5168
18190TIP3    H176061   1.191   0.046   2.651  1.0631  0.7516 -0.9980
18190TIP3    H276062   1.138  -0.046   2.543  0.2348 -0.8031  0.6797
18191TIP3   OH276063   2.049   2.985   3.494 -0.2974 -0.1323  0.4125
18191TIP3    H176064   2.015   2.905   3.534  0.9276  0.0704  1.9448
18191TIP3    H276065   1.999   3.056   3.534  1.4234  0.1272  2.2952
18192TIP3   OH276066   3.268   1.226  14.902  0.5437 -0.5212  0.6613
18192TIP3    H176067   3.333   1.204  14.835  1.2316 -1.8346  1.7138
18192TIP3    H276068   3.310   1.202  14.985 -0.2771  1.0641  1.5890
18193TIP3   OH276069   6.223   3.030   2.513  0.4043 -0.3586  0.0549
18193TIP3    H176070   6.264   3.079   2.442 -1.1328  1.1847  0.1676
18193TIP3    H276071   6.156   3.089   2.548  0.2485 -1.5600  1.9599
18194TIP3   OH276072   1.448   3.406   2.291  0.5256 -0.1035  0.6876
18194TIP3    H176073   1.477   3.339   2.229 -0.0696 -0.7654  1.0999
18194TIP3    H276074   1.519   3.470   2.292  0.8175 -0.3860 -0.2138
18195TIP3   OH276075   2.261   5.144  13.728 -0.0489 -0.0718 -0.3049
18195TIP3    H176076   2.290   5.137  13.819  0.9395  1.5622 -0.4622
18195TIP3    H276077   2.209   5.065  13.713 -0.6764 -0.1038  1.8305
18196TIP3   OH276078   3.290   4.913   5.482 -0.3894 -0.8422  0.4050
18196TIP3    H176079   3.309   4.832   5.531 -0.8825 -2.2398 -1.5772
18196TIP3    H276080   3.375   4.942   5.449 -0.4933 -2.2655 -1.2978
18197TIP3   OH276081   5.462   6.243   4.081  0.6886  0.3195 -0.0247
18197TIP3    H176082   5.539   6.261   4.136  0.4953 -0.1990  0.4177
18197TIP3    H276083   5.421   6.329   4.069  0.9618  0.4970  0.2918
18198TIP3   OH276084   3.397   0.434   0.130  0.1259  0.0852  0.2626
18198TIP3    H176085   3.307   0.433   0.097  0.4547 -1.8233 -0.7601
18198TIP3    H276086   3.437   0.512   0.092 -1.0746  0.9224  0.6935
18199TIP3   OH276087   5.787   3.653   0.881  0.8641  0.5481 -0.0291
18199TIP3    H176088   5.706   3.673   0.928  0.3496  0.5625 -0.9026
18199TIP3    H276089   5.774   3.563   0.849  0.7138  0.9389 -1.1168
18200TIP3   OH276090   4.905   3.043  13.007 -0.0759  0.2605  0.2036
18200TIP3    H176091   4.839   3.055  13.075  0.8131 -0.6679  1.2861
18200TIP3    H276092   4.941   3.130  12.992 -0.3816  0.5049  0.8401
18201TIP3   OH276093   1.937   1.572   5.897 -0.0219  0.0588 -0.1407
18201TIP3    H176094   1.947   1.629   5.821  0.2375 -0.4243 -0.4737
18201TIP3    H276095   1.979   1.619   5.969 -2.2523  1.5798  0.2744
18202TIP3   OH276096   6.339   1.779  11.807 -0.3713 -0.2173  0.2776
18202TIP3    H176097   6.323   1.685  11.812 -0.1676 -0.3232 -0.6934
18202TIP3    H276098   6.349   1.796  11.713  0.4480  0.6263  0.5029
18203TIP3   OH276099   2.877   3.119  13.884 -0.6337  0.2048  0.1352
18203TIP3    H176100   2.795   3.069  13.884 -1.1705  1.0578  0.6448
18203TIP3    H276101   2.855   3.199  13.931 -0.0606  1.3722 -1.5202
18204TIP3   OH276102   1.895   5.709   5.920 -0.4894 -0.3154  0.5060
18204TIP3    H176103   1.805   5.706   5.954 -0.1043  1.2714  1.8419
18204TIP3    H276104   1.910   5.802   5.902  0.8385 -0.5789  0.1664
18205TIP3   OH276105   3.471   6.462  12.874 -0.2001  0.4363 -0.2816
18205TIP3    H176106   3.453   6.548  12.913  0.5467 -0.1920  1.5427
18205TIP3    H276107   3.510   6.483  12.789  0.6308  1.9342  0.4164
18206TIP3   OH276108   0.112   3.809  13.704 -0.7176 -0.4126  0.2313
18206TIP3    H176109   0.182   3.806  13.638 -0.9167 -0.4860  0.0219
18206TIP3    H276110   0.054   3.737  13.679 -1.4496  0.3325 -0.2494
18207TIP3   OH276111   4.917   3.037   0.796  0.1114 -0.1882 -0.3180
18207TIP3    H176112   4.870   3.083   0.866  0.5112  0.4198 -0.4377
18207TIP3    H276113   4.892   3.084   0.716 -0.3856 -0.9142 -0.5981
18208TIP3   OH276114   3.063   4.292   5.491 -0.3906 -0.1555 -0.3447
18208TIP3    H176115   3.043   4.385   5.482 -0.6008 -0.3995 -3.1597
18208TIP3    H276116   3.037   4.271   5.581 -2.1029  2.0726 -0.2276
18209TIP3   OH276117   6.407   5.892  17.289  0.3061 -0.5522  0.1539
18209TIP3    H176118   6.392   5.804  17.324  4.4417 -1.7590 -0.5663
18209TIP3    H276119   6.445   5.878  17.203  2.8668  1.8011  0.7559
18210TIP3   OH276120   3.038   1.584   6.219  0.5768  0.6633  0.6028
18210TIP3    H176121   2.972   1.592   6.288  3.2429  1.5861  3.2197
18210TIP3    H276122   3.096   1.514   6.250  0.8277 -0.2279 -1.7028
18211TIP3   OH276123   6.532   3.703  15.315 -0.2518  0.8279  0.3725
18211TIP3    H176124   6.587   3.644  15.366 -0.3362  0.1919 -0.2537
18211TIP3    H276125   6.447   3.700  15.358 -0.6657 -0.6529 -0.4826
18212TIP3   OH276126   0.960   6.392  16.175 -0.2213  0.1066  0.1635
18212TIP3    H176127   0.895   6.434  16.231 -0.3261 -0.6140  0.5890
18212TIP3    H276128   1.032   6.455  16.171  0.0819 -0.1041  1.6585
18213TIP3   OH276129   1.958   3.238   1.202  0.5011 -0.1058 -0.6900
18213TIP3    H176130   1.954   3.146   1.227 -0.0793 -0.0123 -0.4146
18213TIP3    H276131   1.872   3.256   1.163  0.6545  0.2894 -0.8558
18214TIP3   OH276132   4.310   1.820   0.937 -0.5206 -0.0681  0.1153
18214TIP3    H176133   4.296   1.778   1.022 -0.8265  0.9283  0.5618
18214TIP3    H276134   4.406   1.821   0.928 -0.5065 -1.5313 -0.2611
18215TIP3   OH276135   6.616   3.830   1.167 -0.0640 -0.0240  0.1526
18215TIP3    H176136   6.692   3.785   1.131 -0.8931 -0.5438 -1.0260
18215TIP3    H276137   6.553   3.760   1.184 -0.8706  0.5385 -0.4164
18216TIP3   OH276138   0.356   3.750   0.881 -0.0115  0.2271  0.5265
18216TIP3    H176139   0.352   3.660   0.851  1.5732  0.4605 -0.4747
18216TIP3    H276140   0.311   3.800   0.813  0.0830  0.3144  0.5279
18217TIP3   OH276141   1.464   5.322  16.535 -0.1620 -0.3675 -0.3210
18217TIP3    H176142   1.415   5.254  16.582 -2.4223  1.0934 -0.3840
18217TIP3    H276143   1.555   5.292  16.536 -0.4053 -1.3855  3.1896
18218TIP3   OH276144   2.819   2.180   1.063 -0.3754 -0.2959  0.0124
18218TIP3    H176145   2.750   2.221   1.115  0.3201  0.5239  0.3065
18218TIP3    H276146   2.899   2.226   1.087  0.2023 -0.8793 -0.7111
18219TIP3   OH276147   0.486   4.159  11.675 -0.0884  0.1449 -0.1012
18219TIP3    H176148   0.458   4.150  11.584  0.4425  0.5423 -0.3100
18219TIP3    H276149   0.503   4.069  11.704  0.2990  0.0556 -0.5807
18220TIP3   OH276150   4.372   3.024   0.461 -0.2327  0.1139  0.5394
18220TIP3    H176151   4.339   3.000   0.374  2.0148 -1.9922  0.1499
18220TIP3    H276152   4.413   3.109   0.449 -1.5992  0.7189  0.0208
18221TIP3   OH276153   2.429   4.429   3.730 -0.2567  0.1155  0.1295
18221TIP3    H176154   2.437   4.494   3.800 -0.1179  0.2568 -0.0163
18221TIP3    H276155   2.424   4.481   3.650  0.9160 -0.0650 -0.0847
18222TIP3   OH276156   5.145   5.476  14.882  0.2003  0.0094  0.1340
18222TIP3    H176157   5.077   5.507  14.943 -0.1706 -0.5704  0.0205
18222TIP3    H276158   5.226   5.481  14.932  0.1518  1.1670  0.1180
18223TIP3   OH276159   0.549   1.672  16.981 -0.1178  0.4048  0.2169
18223TIP3    H176160   0.625   1.715  17.021 -0.5747  1.0913  0.3629
18223TIP3    H276161   0.581   1.585  16.956  0.2451  0.0351  1.8597
18224TIP3   OH276162   3.522   1.253   5.537 -0.2937 -0.0079 -0.1717
18224TIP3    H176163   3.586   1.245   5.466  0.7202  2.1597  0.4001
18224TIP3    H276164   3.528   1.170   5.584  1.1864 -0.3383 -0.8758
18225TIP3   OH276165   3.430   6.344  16.499 -0.3445  0.4794  0.0994
18225TIP3    H176166   3.358   6.290  16.465 -1.0207  2.3463 -1.5951
18225TIP3    H276167   3.421   6.337  16.594 -0.3405 -2.4052 -0.0065
18226TIP3   OH276168   3.202   0.558  13.529  0.1661  0.2199 -0.8141
18226TIP3    H176169   3.252   0.505  13.591 -1.0362 -0.8746 -0.7375
18226TIP3    H276170   3.152   0.619  13.584 -0.9325 -0.7785 -0.6521
18227TIP3   OH276171   5.833   1.797   0.180 -0.0024 -0.1214 -0.1242
18227TIP3    H176172   5.879   1.735   0.124 -1.9347 -1.5896 -0.1848
18227TIP3    H276173   5.879   1.793   0.264 -0.5946 -2.3937  0.1690
18228TIP3   OH276174   6.051   6.164  11.972  0.5101 -0.1600 -0.4082
18228TIP3    H176175   6.095   6.224  12.032  2.4239  0.7740 -2.5449
18228TIP3    H276176   6.034   6.217  11.894 -0.4944 -1.6702 -1.2712
18229TIP3   OH276177   5.099   1.604  11.265 -0.0809  0.2909 -0.3401
18229TIP3    H176178   5.055   1.673  11.315 -1.6191 -1.1003  0.3422
18229TIP3    H276179   5.092   1.632  11.174 -1.4432  0.6667 -0.1482
18230TIP3   OH276180   0.792   3.144   0.004  0.0614  0.3748  0.3800
18230TIP3    H176181   0.877   3.187   0.017  1.0724 -1.5355  0.5303
18230TIP3    H276182   0.743   3.163   0.084  0.6001  0.9591  0.5778
18231TIP3   OH276183   2.413   1.990   2.283  0.1907  0.3127 -0.3262
18231TIP3    H176184   2.401   1.896   2.297  1.8173  0.1545  0.2585
18231TIP3    H276185   2.345   2.032   2.335  0.2910 -0.5262  0.5001
18232TIP3   OH276186   4.705   3.319   1.673  0.5881  0.2533 -0.1177
18232TIP3    H176187   4.721   3.390   1.736  0.7208  0.0867  0.0380
18232TIP3    H276188   4.673   3.364   1.594 -1.9171  0.2867  0.8289
18233TIP3   OH276189   4.287   6.658  14.927  0.2432 -0.9435  0.2609
18233TIP3    H176190   4.329   6.576  14.954  0.7449 -0.5055  0.8409
18233TIP3    H276191   4.217   6.671  14.991  1.4828  0.1377  1.4607
18234TIP3   OH276192   0.628   1.785  16.636 -0.0417 -0.4743  0.2798
18234TIP3    H176193   0.626   1.736  16.553  3.3960 -2.6074  1.2187
18234TIP3    H276194   0.674   1.727  16.696 -1.0972  1.6144  3.3151
18235TIP3   OH276195   1.671   5.260   4.622 -0.0161  0.6137  0.4597
18235TIP3    H176196   1.715   5.337   4.657  0.6924  0.4894 -0.1333
18235TIP3    H276197   1.728   5.230   4.550 -0.2772 -0.4507  0.6771
18236TIP3   OH276198   3.413   2.127   5.671  0.1567 -0.1619 -0.3687
18236TIP3    H176199   3.479   2.081   5.722  1.6483  0.0663 -1.9927
18236TIP3    H276200   3.354   2.058   5.640 -0.2115 -0.4050  0.8385
18237TIP3   OH276201   5.793   0.032  16.548  0.2936 -0.1511  0.1673
18237TIP3    H176202   5.744   0.096  16.497  1.3497 -0.0509 -0.7555
18237TIP3    H276203   5.731  -0.040  16.562 -0.1960  0.0829 -0.7411
18238TIP3   OH276204   4.546   5.385   3.279 -0.2012 -0.0943 -0.2971
18238TIP3    H176205   4.516   5.440   3.208 -2.3216  1.5617  1.7285
18238TIP3    H276206   4.573   5.303   3.237 -0.8323  0.9836 -2.9882
18239TIP3   OH276207   6.024   1.254  12.353 -0.0881 -0.0447 -0.3748
18239TIP3    H176208   6.037   1.195  12.279 -1.5078 -1.3244  0.3428
18239TIP3    H276209   6.089   1.226  12.417  1.1680  1.0892 -1.1010
18240TIP3   OH276210   6.509   2.334   4.700 -0.0695  0.0738  0.3970
18240TIP3    H176211   6.544   2.410   4.746  0.7942 -0.8998  1.4246
18240TIP3    H276212   6.555   2.333   4.617 -1.2171  1.5239 -0.2906
18241TIP3   OH276213   6.547   5.100   1.953 -0.3763 -0.3762  0.6087
18241TIP3    H176214   6.573   5.191   1.968 -0.5782 -0.3369  0.7204
18241TIP3    H276215   6.566   5.055   2.035  2.2765 -1.0376 -0.2800
18242TIP3   OH276216   0.536   2.297   3.747  0.5446 -0.5083 -0.6139
18242TIP3    H176217   0.589   2.338   3.816  3.1685 -0.0884 -2.6844
18242TIP3    H276218   0.484   2.231   3.792  1.1238  0.6551  1.9250
18243TIP3   OH276219   0.883   5.869   1.207  0.0976 -0.1578  0.1912
18243TIP3    H176220   0.806   5.919   1.181  0.0899  0.0531  0.6048
18243TIP3    H276221   0.848   5.797   1.260 -0.0407 -1.5297 -1.6650
18244TIP3   OH276222   1.576   0.852  12.382  0.2725 -0.4361  0.6050
18244TIP3    H176223   1.619   0.785  12.329  0.2848  0.5854 -0.7613
18244TIP3    H276224   1.482   0.838  12.366  0.2696 -0.2328  0.4345
18245TIP3   OH276225   2.679   2.544  14.021  0.4475 -0.2165  0.9812
18245TIP3    H176226   2.696   2.464  13.971  1.7323  0.4231  0.3431
18245TIP3    H276227   2.616   2.592  13.968 -0.0787 -0.6511  1.2064
18246TIP3   OH276228   3.609   3.371  13.992  0.2484 -0.4816  0.0977
18246TIP3    H176229   3.592   3.459  14.025  0.5847 -1.0441  1.9027
18246TIP3    H276230   3.687   3.342  14.039  0.7237 -1.3947 -1.1936
18247TIP3   OH276231   4.338   0.092  14.803  0.0000 -0.3668 -0.7051
18247TIP3    H176232   4.335   0.141  14.886  4.1290 -0.1982 -0.4507
18247TIP3    H276233   4.343   0.000  14.830 -1.5433 -0.5462 -0.9481
18248TIP3   OH276234   1.280   4.638   1.078 -0.3448  0.2596  0.3085
18248TIP3    H176235   1.309   4.578   1.147 -0.9189 -0.5668 -0.1454
18248TIP3    H276236   1.254   4.718   1.125 -2.3238 -0.8650  1.2857
18249TIP3   OH276237   2.061   0.174  10.665 -0.4554 -0.0853 -0.4194
18249TIP3    H176238   2.149   0.138  10.671  0.6552  2.3544 -0.6653
18249TIP3    H276239   2.027   0.170  10.754  0.0142 -0.7709 -0.2653
18250TIP3   OH276240   1.985   2.686  13.113  0.3653 -0.0952 -0.2059
18250TIP3    H176241   1.990   2.685  13.208  0.6794 -0.9913 -0.2237
18250TIP3    H276242   1.925   2.615  13.091 -0.5759  0.8143 -0.6385
18251TIP3   OH276243   6.226   6.687  14.195 -0.1522  0.3125 -0.1675
18251TIP3    H176244   6.215   6.592  14.188 -1.7223  0.4531  0.1979
18251TIP3    H276245   6.264   6.713  14.111 -1.5128 -0.3960 -1.0186
18252TIP3   OH276246   3.461   2.046   3.307  0.0350 -0.4445  0.1417
18252TIP3    H176247   3.521   2.031   3.380 -1.0360  2.3086  1.7410
18252TIP3    H276248   3.505   2.112   3.253 -0.4426 -0.3390 -0.1265
18253TIP3   OH276249   3.731   0.890   4.573  0.5241  0.2217 -0.0451
18253TIP3    H176250   3.707   0.800   4.595  0.8221 -0.2183 -1.4323
18253TIP3    H276251   3.669   0.944   4.623 -2.7181 -0.8199 -2.5698
18254TIP3   OH276252   0.984   0.621   4.916 -0.3289  0.7192  0.1739
18254TIP3    H176253   0.899   0.606   4.876 -0.0890  0.5889 -0.2973
18254TIP3    H276254   1.026   0.534   4.916 -0.2275  0.7684  0.4695
18255TIP3   OH276255   3.922   0.354  15.074 -0.1168  0.1639  0.2135
18255TIP3    H176256   3.991   0.396  15.124 -3.1273  1.6250  3.5288
18255TIP3    H276257   3.906   0.271  15.119 -0.9664  0.1553 -0.0809
18256TIP3   OH276258   3.398   5.487  14.971 -0.0497 -0.5694 -0.1712
18256TIP3    H176259   3.345   5.408  14.965 -0.8238 -0.1694  1.0203
18256TIP3    H276260   3.404   5.505  15.065 -0.7222  1.3308 -0.4480
18257TIP3   OH276261   3.357   3.388   4.699  0.2428 -0.4011  0.1917
18257TIP3    H176262   3.371   3.372   4.792 -3.0045  0.6561  0.9863
18257TIP3    H276263   3.370   3.482   4.688 -1.4046 -0.1473  0.0981
18258TIP3   OH276264   3.987   5.227  16.721  0.0548  0.1115  0.4346
18258TIP3    H176265   4.066   5.228  16.667 -0.3711 -0.2332 -0.2038
18258TIP3    H276266   3.986   5.140  16.761  0.8815  0.7009  1.7775
18259TIP3   OH276267   2.487   2.100  17.236  0.1345  0.0486 -0.3675
18259TIP3    H176268   2.420   2.117  17.171 -0.2942 -0.4186 -0.0569
18259TIP3    H276269   2.471   2.166  17.305 -1.5782 -1.5650  0.8767
18260TIP3   OH276270   0.090   2.155   5.711 -0.0987 -0.5114 -0.1843
18260TIP3    H176271   0.084   2.086   5.645  0.6020  0.2103 -1.0302
18260TIP3    H276272   0.118   2.109   5.791 -1.9161 -1.5411 -0.0911
18261TIP3   OH276273   0.981   2.258  15.479 -0.7570 -0.0194 -0.0235
18261TIP3    H176274   1.056   2.315  15.498 -0.7799  0.8212 -2.1681
18261TIP3    H276275   0.940   2.298  15.402 -1.4912 -2.2569 -0.8604
18262TIP3   OH276276   4.397   3.730  15.180  0.5876 -0.3028 -0.2348
18262TIP3    H176277   4.401   3.639  15.149  0.8880  0.1990 -1.7486
18262TIP3    H276278   4.438   3.728  15.266  0.2042 -1.6762 -0.0570
18263TIP3   OH276279   0.828   6.497   0.789  0.3074  0.3183 -0.6624
18263TIP3    H176280   0.794   6.430   0.730  0.9664 -1.4010  0.8418
18263TIP3    H276281   0.752   6.524   0.840  0.2969 -0.2661 -0.3617
18264TIP3   OH276282   5.632   1.682  16.200  0.2976 -0.0230  0.1364
18264TIP3    H176283   5.669   1.595  16.182 -1.6598 -0.6678 -1.0360
18264TIP3    H276284   5.538   1.672  16.186  0.1090  2.5259 -1.0440
18265TIP3   OH276285   2.274   0.582   2.436 -0.3177  1.0283  0.0793
18265TIP3    H176286   2.252   0.635   2.512 -0.8378 -0.4872  1.0360
18265TIP3    H276287   2.331   0.513   2.471  0.2631  0.8807 -1.1024
18266TIP3   OH276288   0.641   0.485   3.370  0.3284  0.2736  0.2609
18266TIP3    H176289   0.657   0.440   3.453 -0.9779 -0.5072  0.0988
18266TIP3    H276290   0.726   0.523   3.348  1.1851 -1.1145  0.9926
18267TIP3   OH276291   5.236   0.581  15.221  0.1786  0.1125 -0.0744
18267TIP3    H176292   5.209   0.666  15.254 -0.7022  0.6794 -2.1156
18267TIP3    H276293   5.314   0.559  15.271  0.1152  1.8732  0.8490
18268TIP3   OH276294   5.856   5.281   1.600 -0.5487  0.0088  0.2295
18268TIP3    H176295   5.912   5.249   1.530  0.2386 -0.5898  1.1115
18268TIP3    H276296   5.917   5.308   1.669 -1.3282 -1.5019  1.5745
18269TIP3   OH276297   1.482   4.133   5.277  0.0661  0.6398  0.4093
18269TIP3    H176298   1.502   4.041   5.292 -0.5901  0.2423 -0.9434
18269TIP3    H276299   1.566   4.173   5.256  0.0639 -0.2086 -1.4587
18270TIP3   OH276300   4.533   5.456   1.394  0.2654 -0.6326  0.4576
18270TIP3    H176301   4.540   5.399   1.318 -0.5498 -2.1072  1.4323
18270TIP3    H276302   4.545   5.544   1.360  0.2182 -1.2775 -1.3109
18271TIP3   OH276303   6.220   5.030   4.672  0.1703  0.1116  0.1273
18271TIP3    H176304   6.212   5.124   4.689  2.5496  0.2610  0.7321
18271TIP3    H276305   6.186   5.020   4.583 -1.4003  1.2876  0.5442
18272TIP3   OH276306   4.134   1.860  10.434  0.3563  0.1660  0.5170
18272TIP3    H176307   4.224   1.852  10.466  1.3400  0.9430 -1.7917
18272TIP3    H276308   4.090   1.782  10.466  1.4862  0.3688  2.7370
18273TIP3   OH276309   4.448   1.220   3.390 -0.2319  0.2196  0.2337
18273TIP3    H176310   4.479   1.215   3.299 -1.0538  1.3136 -0.1225
18273TIP3    H276311   4.479   1.304   3.422 -2.2386  1.0968  0.0500
18274TIP3   OH276312   2.234   3.326  14.604 -0.4363 -0.1484  0.0266
18274TIP3    H176313   2.272   3.339  14.517  0.6416  1.1200  0.6429
18274TIP3    H276314   2.237   3.412  14.645  2.9210 -1.3323  2.7732
18275TIP3   OH276315   1.051   2.602  16.577  0.1756  0.5165  0.2506
18275TIP3    H176316   0.979   2.662  16.597  0.2454  0.8437 -0.4281
18275TIP3    H276317   1.040   2.530  16.638 -0.5916  0.6805  0.3168
18276TIP3   OH276318   2.018   4.909   1.336  0.0315  0.5070  0.5645
18276TIP3    H176319   2.056   4.987   1.296  0.5396  1.1174  2.1592
18276TIP3    H276320   2.093   4.857   1.365 -0.3136 -0.1054  0.3701
18277TIP3   OH276321   3.847   4.770   1.426 -0.4161  0.3941 -0.1170
18277TIP3    H176322   3.936   4.763   1.391  0.0312  2.0206  0.5948
18277TIP3    H276323   3.811   4.849   1.385 -0.2127  1.8226  2.2416
18278TIP3   OH276324   4.102   0.550   2.507  0.3906 -0.6403 -0.3514
18278TIP3    H176325   4.063   0.544   2.420 -0.7878  1.2229 -0.0169
18278TIP3    H276326   4.058   0.482   2.558  0.9889 -1.6479 -1.1491
18279TIP3   OH276327   3.890   5.070   1.500  0.6890 -0.0890 -0.2877
18279TIP3    H176328   3.831   5.089   1.573  0.5579 -1.4352 -0.0241
18279TIP3    H276329   3.840   5.013   1.443  1.5017 -0.6999 -0.4027
18280TIP3   OH276330   0.132   5.833   1.901 -0.1211  0.2037  0.8311
18280TIP3    H176331   0.052   5.829   1.849 -0.5674 -0.6149  1.5538
18280TIP3    H276332   0.202   5.823   1.836 -0.7001 -2.1546  0.4584
18281TIP3   OH276333   0.087   6.162  11.763 -0.2786 -0.2265  0.4317
18281TIP3    H176334   0.088   6.157  11.668  0.8060  0.4136  0.3966
18281TIP3    H276335   0.027   6.093  11.790 -0.5719 -0.4343 -0.7113
18282TIP3   OH276336   3.439   1.931  14.909 -0.0664  0.2278  0.4203
18282TIP3    H176337   3.415   2.023  14.912 -1.5454 -0.1640  1.1712
18282TIP3    H276338   3.505   1.926  14.839 -1.9368  1.3990 -1.5429
18283TIP3   OH276339   2.724   6.435   1.901  0.3119  0.0695  0.5137
18283TIP3    H176340   2.780   6.367   1.937  0.3055 -0.0267  0.3418
18283TIP3    H276341   2.773   6.470   1.826 -1.1142 -2.0563 -1.5265
18284TIP3   OH276342   1.763   6.557  16.027 -0.1480  0.0472 -0.0805
18284TIP3    H176343   1.688   6.526  15.976 -0.2902  0.7758 -0.3185
18284TIP3    H276344   1.826   6.587  15.962 -0.5529  1.4962  0.1556
18285TIP3   OH276345   6.190   4.421   3.495 -0.0195 -0.5780  0.1685
18285TIP3    H176346   6.145   4.485   3.550 -0.1319  0.0697 -0.6489
18285TIP3    H276347   6.140   4.422   3.413  0.1658 -1.4953  0.0380
18286TIP3   OH276348   5.087   0.265   2.628  0.3975 -0.1868 -0.0061
18286TIP3    H176349   5.172   0.245   2.668 -0.3561 -0.2299  1.6571
18286TIP3    H276350   5.076   0.198   2.560  2.2111  0.5537 -1.1107
18287TIP3   OH276351   2.829   3.851   3.827 -0.6042  0.5833 -0.3751
18287TIP3    H176352   2.815   3.943   3.852 -0.7523  0.6570 -0.7177
18287TIP3    H276353   2.758   3.804   3.869 -1.2783  0.8092 -1.2456
18288TIP3   OH276354   0.261   6.652  11.669 -0.3194  0.6008  0.4730
18288TIP3    H176355   0.300   6.568  11.693 -1.0046  0.2782  0.4843
18288TIP3    H276356   0.212   6.634  11.589 -0.4789  0.9893  0.4820
18289TIP3   OH276357   4.667   5.085  11.517  0.2057 -0.4656 -0.5061
18289TIP3    H176358   4.602   5.121  11.456  1.4881  2.5656 -0.2459
18289TIP3    H276359   4.645   5.125  11.601  0.1177 -2.4692  0.4824
18290TIP3   OH276360   6.072   6.576   4.634  0.0754  0.3257 -0.2826
18290TIP3    H176361   6.115   6.615   4.710  1.7660 -0.3395 -0.8570
18290TIP3    H276362   6.115   6.491   4.623 -0.4526  0.2187 -1.7190
18291TIP3   OH276363   3.163   3.628  14.387 -0.5469 -0.0445 -0.1726
18291TIP3    H176364   3.148   3.541  14.423  1.3402 -1.0303 -1.5975
18291TIP3    H276365   3.223   3.670  14.448 -0.7264 -0.0847  0.0311
18292TIP3   OH276366   1.702   3.928   6.747 -0.1208 -0.2689  0.0859
18292TIP3    H176367   1.756   4.004   6.769  1.0417 -0.7073 -1.1860
18292TIP3    H276368   1.734   3.858   6.805 -1.6642  0.3377  1.7656
18293TIP3   OH276369   3.190   0.604   3.681 -0.1234  0.0860  0.2779
18293TIP3    H176370   3.103   0.606   3.722 -0.0501  0.3429  0.4249
18293TIP3    H276371   3.176   0.641   3.593 -0.0589  0.6836  0.5106
18294TIP3   OH276372   5.537   5.194   5.064  0.0218  0.5152 -0.0707
18294TIP3    H176373   5.556   5.120   5.006 -0.9767  0.3891 -0.2584
18294TIP3    H276374   5.612   5.199   5.123  1.0199  0.5997 -1.3258
18295TIP3   OH276375   0.299   5.519   2.189 -0.0031 -0.0797 -0.5825
18295TIP3    H176376   0.249   5.581   2.137 -1.0962 -1.1990 -0.9096
18295TIP3    H276377   0.348   5.468   2.125  0.7463  0.2908 -0.3264
18296TIP3   OH276378   4.490   2.469  12.916  0.1064  0.2084  0.4769
18296TIP3    H176379   4.398   2.443  12.904  0.1552  0.9923 -1.9583
18296TIP3    H276380   4.531   2.454  12.831  1.7225  1.9349  0.8885
18297TIP3   OH276381   3.921   1.860  13.764 -0.3218 -0.2040  0.3500
18297TIP3    H176382   3.888   1.867  13.854 -0.7678  2.2668  0.0594
18297TIP3    H276383   3.862   1.798  13.722 -0.3221 -1.1291  1.6506
18298TIP3   OH276384   1.108   6.016  13.884  0.3177 -0.5091 -0.2049
18298TIP3    H176385   1.103   6.110  13.900  1.0320 -0.6674  1.0524
18298TIP3    H276386   1.016   5.989  13.876  0.0611  0.1502  0.3387
18299TIP3   OH276387   3.770   1.896   1.961  0.5559  0.3861  0.3691
18299TIP3    H176388   3.824   1.974   1.946  0.5378  0.5843  1.2711
18299TIP3    H276389   3.703   1.900   1.893  0.7740  0.9572  0.1777
18300TIP3   OH276390   0.599   3.749   5.286  0.0073 -0.4720  0.0388
18300TIP3    H176391   0.608   3.760   5.191 -1.0922 -0.3828 -0.0646
18300TIP3    H276392   0.512   3.711   5.297  0.1108 -0.4323  1.0199
18301TIP3   OH276393   1.287   4.593  15.869  0.2339 -0.1579 -0.4478
18301TIP3    H176394   1.271   4.527  15.801 -2.7006 -1.1428  1.0383
18301TIP3    H276395   1.361   4.559  15.918 -1.9428 -3.1894  1.0399
18302TIP3   OH276396   0.932   3.131   4.650  0.1659  0.0215 -0.4482
18302TIP3    H176397   0.967   3.220   4.637  2.5238 -0.5374  1.3796
18302TIP3    H276398   0.959   3.083   4.572 -1.0821  0.8518 -1.4264
18303TIP3   OH276399   3.094   3.030  11.508  0.1313  0.2956 -0.3905
18303TIP3    H176400   3.020   3.084  11.479  0.8671  0.5840 -1.8474
18303TIP3    H276401   3.170   3.066  11.461  0.9727 -0.8358  0.0416
18304TIP3   OH276402   1.885   3.087  12.525  0.2612 -0.3123  0.3569
18304TIP3    H176403   1.867   3.174  12.562 -0.0402  0.4043 -1.3694
18304TIP3    H276404   1.911   3.034  12.600 -0.9039  0.8866  1.6847
18305TIP3   OH276405   6.079   0.630  15.050 -0.0723  0.2208 -0.1273
18305TIP3    H176406   6.141   0.604  14.982 -0.2136  1.3107 -0.6956
18305TIP3    H276407   5.993   0.614  15.012 -0.1516  0.5119 -0.0744
18306TIP3   OH276408   4.878   3.974  13.094  0.4075  0.6434 -0.0680
18306TIP3    H176409   4.891   3.916  13.019  1.1781  0.3015  0.3145
18306TIP3    H276410   4.882   4.062  13.058 -2.4743  0.5355 -0.9547
18307TIP3   OH276411   5.144   2.015   3.823  0.6805 -0.0796 -0.1510
18307TIP3    H176412   5.175   1.949   3.885 -0.0596 -0.6335 -0.3520
18307TIP3    H276413   5.147   2.098   3.872 -1.7894 -0.7703  1.3556
18308TIP3   OH276414   3.861   1.655  13.976  0.0862 -0.2510 -0.5124
18308TIP3    H176415   3.931   1.649  14.041  0.0933  0.2000 -0.4791
18308TIP3    H276416   3.903   1.629  13.894  0.4780  0.6948 -0.6234
18309TIP3   OH276417   0.256   5.103  14.458  0.0493  0.3141  0.1302
18309TIP3    H176418   0.352   5.096  14.450 -0.0348 -0.0126 -0.7032
18309TIP3    H276419   0.223   5.026  14.410 -0.5913 -0.5612  1.9070
18310TIP3   OH276420   2.395   2.615   5.250  0.2202  0.0659  0.2791
18310TIP3    H176421   2.361   2.704   5.258  1.1538  0.4645 -0.0273
18310TIP3    H276422   2.325   2.566   5.207  0.3951  1.0858 -1.2405
18311TIP3   OH276423   0.036   2.708   3.419  1.0032  0.2047 -0.4035
18311TIP3    H176424   0.040   2.761   3.498 -1.2907  0.5543 -0.4693
18311TIP3    H276425  -0.049   2.729   3.380  0.5134 -2.6360 -1.0563
18312TIP3   OH276426   6.364   2.916  15.841  0.3739 -0.4208  0.1532
18312TIP3    H176427   6.420   2.888  15.913 -0.1551  0.3412  0.8792
18312TIP3    H276428   6.276   2.893  15.869  0.0253  1.0837  0.3492
18313TIP3   OH276429   6.433   6.093   1.740 -0.0650 -0.4625 -0.1760
18313TIP3    H176430   6.386   6.105   1.822 -0.6523  0.1469 -0.5921
18313TIP3    H276431   6.373   6.043   1.685  0.7226 -1.7631  0.0937
18314TIP3   OH276432   4.069   6.474   2.154  0.2629  0.7401  0.1962
18314TIP3    H176433   3.986   6.467   2.202 -0.0394 -0.0351 -0.4126
18314TIP3    H276434   4.136   6.455   2.219 -0.0573  0.9716  0.6039
18315TIP3   OH276435   2.541   4.506   0.669 -0.4147  0.2159  0.0359
18315TIP3    H176436   2.590   4.584   0.697  0.1530  0.4054 -1.3996
18315TIP3    H276437   2.503   4.472   0.750 -2.1991  2.9894  0.5138
18316TIP3   OH276438   2.097   2.646   5.874 -0.3446  0.2774  0.2407
18316TIP3    H176439   2.007   2.663   5.848 -0.2663 -0.2310 -0.3946
18316TIP3    H276440   2.142   2.730   5.863 -0.7346  0.5268  0.5498
18317TIP3   OH276441   1.669   0.322   3.558  0.6349 -0.2778  0.3690
18317TIP3    H176442   1.648   0.352   3.470  0.0135 -0.6565  0.3806
18317TIP3    H276443   1.636   0.391   3.616  1.4291  0.1746  0.2920
18318TIP3   OH276444   0.622   1.883   4.816  0.4762  0.1282 -0.1079
18318TIP3    H176445   0.621   1.802   4.868  2.0542  0.4315  0.4509
18318TIP3    H276446   0.635   1.852   4.726  1.6421 -0.2551  0.1636
18319TIP3   OH276447   1.084   2.443  14.543  0.2179  0.0005 -0.9658
18319TIP3    H176448   1.169   2.420  14.506  1.5447 -0.8598  2.2643
18319TIP3    H276449   1.026   2.370  14.518  1.5087 -1.4278  0.0179
18320TIP3   OH276450   1.596   5.728   5.826 -0.1783  0.0175 -0.0258
18320TIP3    H176451   1.630   5.785   5.895  0.9184 -1.0898  0.3887
18320TIP3    H276452   1.500   5.731   5.838 -0.0155 -0.4581  1.8283
18321TIP3   OH276453   2.294   1.658  14.491 -0.6459 -0.3692 -0.3454
18321TIP3    H176454   2.372   1.611  14.519  0.4149  0.8719 -1.1015
18321TIP3    H276455   2.312   1.749  14.512 -1.5356  0.0426 -1.2842
18322TIP3   OH276456   2.062   2.870   4.809  0.1211 -1.0490  0.1192
18322TIP3    H176457   2.003   2.814   4.758  0.8523 -1.8022  0.0667
18322TIP3    H276458   2.121   2.808   4.853  0.1779 -0.3601  1.0403
18323TIP3   OH276459   3.646   0.424  15.964 -0.7591 -0.0327  0.5051
18323TIP3    H176460   3.580   0.389  15.904 -0.8144  0.1886  0.4338
18323TIP3    H276461   3.661   0.513  15.933 -1.5693  0.4625  1.4504
18324TIP3   OH276462   6.456   0.612   4.780  0.4509  0.2620 -0.1330
18324TIP3    H176463   6.428   0.669   4.852  0.0281  1.3905 -1.1596
18324TIP3    H276464   6.476   0.528   4.822 -1.4759  0.3498  1.0754
18325TIP3   OH276465   2.704   4.174  16.128  0.5235  0.3420  0.3680
18325TIP3    H176466   2.720   4.256  16.176  1.0267  0.7362 -0.4640
18325TIP3    H276467   2.611   4.157  16.141 -0.2002  2.4326 -1.5653
18326TIP3   OH276468   1.873   0.261  12.268 -0.2702  0.2358 -0.1118
18326TIP3    H176469   1.946   0.200  12.279 -0.8253 -0.8006 -1.7870
18326TIP3    H276470   1.825   0.228  12.192 -1.1268  2.2551 -0.5226
18327TIP3   OH276471   2.117   4.487   4.353 -0.3363  0.0829  0.1130
18327TIP3    H176472   2.022   4.479   4.353 -0.5958  2.2684 -1.2574
18327TIP3    H276473   2.148   4.405   4.315 -1.6140 -0.8768  1.0783
18328TIP3   OH276474   2.175   4.934  13.132  0.0972  0.0747 -0.2366
18328TIP3    H176475   2.092   4.927  13.179  0.2390  0.8651  0.1598
18328TIP3    H276476   2.196   4.844  13.106 -2.8522  0.2163 -3.8602
18329TIP3   OH276477   2.490   1.898   0.632 -0.2907 -0.4817  0.4724
18329TIP3    H176478   2.396   1.900   0.617 -0.5537  1.9947  1.8910
18329TIP3    H276479   2.518   1.989   0.622  1.5569 -0.7894  2.1212
18330TIP3   OH276480   3.764   1.778   6.713 -0.3858 -0.2277  0.1950
18330TIP3    H176481   3.734   1.781   6.622  0.9333 -0.3400 -0.2657
18330TIP3    H276482   3.825   1.852   6.720  2.1156 -2.1160 -0.0223
18331TIP3   OH276483   3.879   1.777  14.829 -0.7225  0.4254  0.0863
18331TIP3    H176484   3.800   1.783  14.775 -0.2801  1.9536 -0.4215
18331TIP3    H276485   3.873   1.849  14.890  1.0134  1.5857 -1.0081
18332TIP3   OH276486   3.810   6.319  10.859  0.0384 -0.1414 -0.1461
18332TIP3    H176487   3.746   6.291  10.794 -0.7956 -0.1616  0.6630
18332TIP3    H276488   3.837   6.406  10.829 -0.1653 -0.2413 -0.6372
18333TIP3   OH276489   0.329   0.546  15.349  0.3285 -0.2514  0.6887
18333TIP3    H176490   0.419   0.577  15.336  0.6528  0.5051  3.8720
18333TIP3    H276491   0.275   0.617  15.313  0.9979 -0.2241 -0.3010
18334TIP3   OH276492   3.723   0.474  15.580  0.1657  0.3836 -0.1318
18334TIP3    H176493   3.651   0.511  15.528  0.6683  0.5484 -0.7161
18334TIP3    H276494   3.701   0.381  15.588 -0.7914  0.6710  0.8261
18335TIP3   OH276495   2.591   3.560   0.851  0.6837  0.4960  0.5097
18335TIP3    H176496   2.638   3.530   0.773  0.4334 -1.6233  1.1204
18335TIP3    H276497   2.519   3.613   0.816  2.4488  2.3920 -0.5092
18336TIP3   OH276498   5.447   3.774  11.694 -0.0111  0.5389  0.1871
18336TIP3    H176499   5.372   3.750  11.748 -1.6471  1.7482 -1.4164
18336TIP3    H276500   5.457   3.869  11.707 -0.3560  0.8330 -1.4550
18337TIP3   OH276501   5.049   0.885   4.266 -0.4549  0.0969  0.4379
18337TIP3    H176502   4.973   0.902   4.321  0.0629 -0.0204  1.1946
18337TIP3    H276503   5.038   0.944   4.191 -1.2487  0.1296  0.5736
18338TIP3   OH276504   6.165   0.966   6.078 -0.9259 -0.2912 -0.2715
18338TIP3    H176505   6.136   0.891   6.130 -0.6801  0.1197  0.4756
18338TIP3    H276506   6.084   1.007   6.047 -1.1261  0.1276  0.7618
18339TIP3   OH276507   1.682   3.238  14.738  0.1805 -0.4512  0.1553
18339TIP3    H176508   1.756   3.260  14.795  0.4558  0.6310 -0.5940
18339TIP3    H276509   1.616   3.204  14.798  0.6521  0.1794  1.0601
18340TIP3   OH276510   0.031   4.990  13.600  0.4272  0.8164 -0.2375
18340TIP3    H176511   0.031   4.983  13.504  0.3377 -1.0418 -0.1257
18340TIP3    H276512  -0.009   4.909  13.630  1.8154  0.6962  1.4278
18341TIP3   OH276513   1.132   6.784  12.831 -0.2961 -0.2314  0.1330
18341TIP3    H176514   1.083   6.702  12.824 -0.3265 -0.1774 -0.2879
18341TIP3    H276515   1.069   6.847  12.866 -0.4163 -0.2627 -0.0245
18342TIP3   OH276516   6.548   2.257   5.907  0.0358  0.2818  0.0312
18342TIP3    H176517   6.595   2.241   5.825 -2.8878  0.9813 -1.9457
18342TIP3    H276518   6.515   2.346   5.898 -2.0476 -0.3316  1.0052
18343TIP3   OH276519   4.265   2.890   2.474  0.7402  0.1163  0.7753
18343TIP3    H176520   4.355   2.910   2.501  1.1827 -0.9757  0.1683
18343TIP3    H276521   4.275   2.825   2.404 -0.6123 -1.8017  2.2780
18344TIP3   OH276522   5.728   6.666  12.441 -0.8997 -0.2898 -0.0886
18344TIP3    H176523   5.745   6.658  12.535  0.4058  0.5995 -0.2237
18344TIP3    H276524   5.783   6.600  12.400  2.1015  2.2222 -0.4853
18345TIP3   OH276525   3.165   0.313   2.640 -0.6630  0.4055 -0.1328
18345TIP3    H176526   3.252   0.272   2.639 -0.8715 -0.0354 -0.0358
18345TIP3    H276527   3.147   0.333   2.548 -2.5129 -3.8505 -0.9097
18346TIP3   OH276528   2.888   5.022   5.015  0.1214 -0.1014 -0.2971
18346TIP3    H176529   2.901   5.108   4.974  0.7462 -0.5360 -1.0561
18346TIP3    H276530   2.977   4.995   5.040 -0.1434 -0.2769  0.4728
18347TIP3   OH276531   3.446   3.515   1.885 -0.2011  0.5271  0.2936
18347TIP3    H176532   3.357   3.490   1.910  0.4589 -0.9924  1.2452
18347TIP3    H276533   3.460   3.599   1.929 -1.7931  1.7921 -1.4237
18348TIP3   OH276534   3.244   1.610   1.923  0.2216  0.0991 -0.3883
18348TIP3    H176535   3.284   1.648   1.845  0.4110  2.9908  0.9757
18348TIP3    H276536   3.155   1.588   1.897  1.0414 -1.4728 -2.0558
18349TIP3   OH276537   4.730   2.259  13.679 -0.2254  0.0609 -0.1278
18349TIP3    H176538   4.787   2.319  13.727  0.4008 -1.6676  1.4188
18349TIP3    H276539   4.704   2.308  13.601  1.5271  1.7337  0.2520
18350TIP3   OH276540   1.397   5.105   1.812  0.1813  0.7970  0.1671
18350TIP3    H176541   1.488   5.088   1.786  0.0888  1.2119 -0.4564
18350TIP3    H276542   1.389   5.200   1.810 -0.3742  0.7481 -0.1847
18351TIP3   OH276543   1.825   3.076   1.587 -0.5966  0.1898  0.3725
18351TIP3    H176544   1.818   2.980   1.587 -0.4932  0.1819  0.2748
18351TIP3    H276545   1.918   3.093   1.571 -0.4535  0.2945  1.2992
18352TIP3   OH276546   3.867   2.198  13.674 -0.2827  0.0759  0.2259
18352TIP3    H176547   3.933   2.152  13.726 -0.2072  1.7311  1.6835
18352TIP3    H276548   3.796   2.134  13.665  0.8985 -1.2407 -0.1632
18353TIP3   OH276549   3.075   6.311  14.676 -0.1313  0.0868  0.4539
18353TIP3    H176550   2.994   6.361  14.678 -0.1734 -0.0163  1.6057
18353TIP3    H276551   3.060   6.237  14.735  0.3216 -0.7041 -0.3763
18354TIP3   OH276552   2.188   1.214  15.310 -0.4476  0.5465 -0.3205
18354TIP3    H176553   2.236   1.204  15.393 -0.7109 -2.8948 -0.4206
18354TIP3    H276554   2.096   1.208  15.335 -0.5077 -2.2022 -0.8869
18355TIP3   OH276555   1.195   2.018   2.707 -0.4821  0.3039 -0.2428
18355TIP3    H176556   1.176   2.106   2.673 -1.0680 -0.1103 -1.0325
18355TIP3    H276557   1.112   1.971   2.700 -0.5131  0.0463  1.3730
18356TIP3   OH276558   4.291   5.523   3.892 -0.2125 -0.1656 -0.1426
18356TIP3    H176559   4.360   5.463   3.921 -0.9689 -0.9750  0.0404
18356TIP3    H276560   4.329   5.568   3.817  0.6229 -0.3752  0.1394
18357TIP3   OH276561   3.106   2.827   1.223 -0.2292  0.1894 -0.1655
18357TIP3    H176562   3.162   2.865   1.156 -0.3924 -0.5550 -0.7339
18357TIP3    H276563   3.141   2.860   1.305  0.4632  0.4685 -0.5667
18358TIP3   OH276564   5.446   4.013  12.719  0.5048  0.4817  0.0513
18358TIP3    H176565   5.519   3.988  12.662 -0.8831 -0.2392 -1.5076
18358TIP3    H276566   5.439   4.108  12.708 -0.6164  0.2120 -2.1925
18359TIP3   OH276567   3.577   6.535  12.615 -0.1174 -0.1734  0.4904
18359TIP3    H176568   3.515   6.594  12.573  1.1444 -1.0555 -3.0070
18359TIP3    H276569   3.546   6.447  12.590  0.5156 -0.7842  1.7878
18360TIP3   OH276570   3.486   5.885  13.722  0.3250 -0.0220  0.1894
18360TIP3    H176571   3.577   5.869  13.700  1.0497 -0.4172  3.0292
18360TIP3    H276572   3.479   5.980  13.729 -0.4089  0.2866 -3.1517
18361TIP3   OH276573   0.675   5.959  17.227  0.0329 -0.1523  0.5346
18361TIP3    H176574   0.663   6.049  17.198 -0.0281  0.3302  1.9762
18361TIP3    H276575   0.767   5.939  17.206 -0.2210 -0.0972 -0.6566
18362TIP3   OH276576   4.547   2.867   6.602 -0.2794  0.2322 -0.0619
18362TIP3    H176577   4.607   2.915   6.658  1.6361 -0.4933 -1.4119
18362TIP3    H276578   4.472   2.847   6.659  0.5861  1.4415  1.5716
18363TIP3   OH276579   3.142   2.445  11.885 -0.2144  0.7277 -0.4536
18363TIP3    H176580   3.074   2.511  11.882 -1.9132 -0.9549 -3.7815
18363TIP3    H276581   3.209   2.476  11.823  0.3563  0.6461  0.1063
18364TIP3   OH276582   0.838   5.975   0.924 -0.3041 -0.1871 -1.1069
18364TIP3    H176583   0.760   5.995   0.975  0.1917 -0.9422 -0.0026
18364TIP3    H276584   0.882   6.059   0.913 -1.2174  0.2310 -1.6736
18365TIP3   OH276585   4.515   0.183   3.874  0.0634 -0.6981  0.0728
18365TIP3    H176586   4.553   0.270   3.888 -0.7008 -0.4425  0.6381
18365TIP3    H276587   4.565   0.125   3.932 -0.3911 -0.3639  0.8123
18366TIP3   OH276588   3.621   5.033  12.677 -0.1726 -0.2503 -0.2789
18366TIP3    H176589   3.677   4.981  12.734  1.6730 -0.3859 -2.0865
18366TIP3    H276590   3.614   5.118  12.721 -1.6823 -1.3767  1.7868
18367TIP3   OH276591   3.984   0.754  14.524 -0.3597  0.3085 -0.3613
18367TIP3    H176592   3.964   0.811  14.598 -0.0867 -0.6137  0.4535
18367TIP3    H276593   4.034   0.681  14.563 -1.9282 -1.2365 -1.0874
18368TIP3   OH276594   1.642   2.913   5.280 -0.1703  0.3149  0.1704
18368TIP3    H176595   1.646   2.850   5.208  0.2229 -0.1462  0.5980
18368TIP3    H276596   1.548   2.920   5.300 -0.1525 -0.7869  0.6921
18369TIP3   OH276597   4.310   0.453  14.881 -0.1939 -0.9363 -0.7035
18369TIP3    H176598   4.285   0.436  14.971 -0.4489 -0.2868 -0.6464
18369TIP3    H276599   4.237   0.421  14.828 -0.6231 -0.1444 -0.6030
18370TIP3   OH276600   0.966   4.213  13.498 -0.1155 -0.0768 -0.6057
18370TIP3    H176601   0.973   4.308  13.489 -0.3292  0.1812  1.3620
18370TIP3    H276602   1.056   4.182  13.499  0.0430  0.3646  0.6779
18371TIP3   OH276603   2.947   0.271   1.001 -0.5050  0.3836 -0.3892
18371TIP3    H176604   2.879   0.223   1.049 -0.3095 -0.5231 -1.0045
18371TIP3    H276605   2.904   0.297   0.919  0.0379 -0.6873 -1.0347
18372TIP3   OH276606   1.941   0.522   2.671  0.1448  0.0442 -0.2830
18372TIP3    H176607   1.860   0.480   2.701  1.0190 -1.1301  0.5185
18372TIP3    H276608   1.998   0.450   2.646  1.9561  0.6271  1.8255
18373TIP3   OH276609   5.562   4.868   0.384 -0.5655 -0.3213  0.5795
18373TIP3    H176610   5.600   4.782   0.368 -2.3890 -1.9600  3.8726
18373TIP3    H276611   5.468   4.852   0.385 -0.9612  1.7786  0.9623
18374TIP3   OH276612   6.217   3.369  11.847 -0.0228 -0.0335  0.0260
18374TIP3    H176613   6.259   3.336  11.927  1.0521  0.9634 -0.1099
18374TIP3    H276614   6.250   3.458  11.837 -2.0367  0.7407 -0.2044
18375TIP3   OH276615   6.369   3.548  12.685  0.6131 -0.7664  0.2331
18375TIP3    H176616   6.382   3.520  12.594 -0.5338 -0.6002  0.0009
18375TIP3    H276617   6.457   3.570  12.716  0.9111  0.2226 -1.1943
18376TIP3   OH276618   6.086   1.262  12.758  0.2066  0.0846  0.2467
18376TIP3    H176619   6.003   1.264  12.711 -0.2636  1.9860  1.0990
18376TIP3    H276620   6.116   1.171  12.750 -2.2500 -0.8032  0.4870
18377TIP3   OH276621   3.070   1.668  15.452 -0.3345  0.4878 -0.5094
18377TIP3    H176622   3.125   1.661  15.374 -0.1622  0.1859 -0.3600
18377TIP3    H276623   2.982   1.650  15.421 -0.1752 -0.3113 -0.5077
18378TIP3   OH276624   0.658   0.609   5.373 -0.3651  0.4523  0.3492
18378TIP3    H176625   0.657   0.518   5.343 -1.2818  0.5727 -0.0029
18378TIP3    H276626   0.664   0.661   5.293 -0.5063  0.7152  0.5066
18379TIP3   OH276627   0.594   4.381   0.148  0.0220 -0.3921 -0.4862
18379TIP3    H176628   0.505   4.354   0.171 -0.1459 -1.4057 -2.1873
18379TIP3    H276629   0.581   4.459   0.093  0.0380 -1.5318 -2.1787
18380TIP3   OH276630   6.273   3.060   1.523  0.3570 -0.5779  0.2426
18380TIP3    H176631   6.337   2.989   1.514  0.2009 -0.6598 -0.2233
18380TIP3    H276632   6.310   3.133   1.473  0.4765 -0.3504  0.6502
18381TIP3   OH276633   1.702   3.261   4.212  0.0585 -0.2867 -0.6939
18381TIP3    H176634   1.625   3.231   4.164  0.0233 -2.0349  0.3723
18381TIP3    H276635   1.700   3.356   4.203 -2.4292 -0.2493 -0.4324
18382TIP3   OH276636   1.948   0.431   3.565  0.0244  0.0955  0.6204
18382TIP3    H176637   1.873   0.373   3.578  0.5365 -0.9781 -0.8856
18382TIP3    H276638   1.924   0.485   3.489  0.8366 -0.4074 -0.0096
18383TIP3   OH276639   0.118   5.625   3.425 -0.1010  0.0369 -0.2253
18383TIP3    H176640   0.122   5.679   3.503  0.6074  0.4773 -0.5538
18383TIP3    H276641   0.209   5.618   3.395 -0.5318  1.4179 -2.0338
18384TIP3   OH276642   6.232   3.111  14.970 -0.2252 -0.0528  0.1762
18384TIP3    H176643   6.187   3.112  14.885 -0.9639 -0.3600  0.5547
18384TIP3    H276644   6.288   3.189  14.967  0.1940 -0.3724 -0.8145
18385TIP3   OH276645   0.785   0.925  11.618  0.7437 -0.1128  0.3263
18385TIP3    H176646   0.755   0.924  11.709 -0.9736 -0.3709 -0.2080
18385TIP3    H276647   0.880   0.914  11.624  0.4166 -3.0490  1.9769
18386TIP3   OH276648   3.198   1.831   4.172 -0.0924 -0.5538  0.3319
18386TIP3    H176649   3.206   1.746   4.217  0.4794 -0.8347 -0.2954
18386TIP3    H276650   3.288   1.858   4.156 -0.2617 -1.1293 -1.9032
18387TIP3   OH276651   2.149   4.407  12.425  0.5735  0.7526  0.0894
18387TIP3    H176652   2.174   4.472  12.360  2.2686 -0.2482 -0.3264
18387TIP3    H276653   2.114   4.334  12.374 -1.2600  1.2727  0.5459
18388TIP3   OH276654   1.599   4.418   1.149 -0.3245 -0.1171  0.5053
18388TIP3    H176655   1.518   4.445   1.193  0.2490  0.6041  1.1479
18388TIP3    H276656   1.648   4.371   1.217  0.2347  0.3383  0.4251
18389TIP3   OH276657   2.745   6.092  11.783  0.0155  0.1805  0.0201
18389TIP3    H176658   2.783   6.148  11.715 -0.0284  0.9908  0.6500
18389TIP3    H276659   2.736   6.149  11.859  0.6470 -0.8640  0.9086
18390TIP3   OH276660   5.034   3.862  16.075  0.3158  0.0550  0.1256
18390TIP3    H176661   4.971   3.807  16.121 -0.5965 -0.4318 -1.6447
18390TIP3    H276662   5.012   3.952  16.102 -0.1998 -0.2191  0.6307
18391TIP3   OH276663   6.262   5.479   2.222  0.0998  0.0898 -0.4089
18391TIP3    H176664   6.339   5.470   2.280  0.9323  0.0259 -1.4898
18391TIP3    H276665   6.191   5.504   2.281  0.9815  0.3018  0.6095
18392TIP3   OH276666   1.263   0.346   2.764 -0.3001  0.2524  0.1091
18392TIP3    H176667   1.335   0.400   2.798 -0.2708  1.0217 -1.1092
18392TIP3    H276668   1.276   0.260   2.805  0.3488  0.8281  1.1694
18393TIP3   OH276669   6.700   5.735  17.183 -0.0100  0.1598 -0.5906
18393TIP3    H176670   6.775   5.791  17.205 -1.9567  2.0620  1.8734
18393TIP3    H276671   6.643   5.791  17.130 -0.4419 -0.6936 -1.0472
18394TIP3   OH276672   2.097   1.513  10.906 -0.2108  0.2279  0.1075
18394TIP3    H176673   2.040   1.447  10.867  1.5408 -0.5752 -1.2457
18394TIP3    H276674   2.039   1.586  10.926 -2.1565 -1.5519  1.3384
18395TIP3   OH276675   6.793   4.161  17.131 -0.2056 -0.4751 -0.0807
18395TIP3    H176676   6.842   4.182  17.052 -1.3406  1.0617 -0.4351
18395TIP3    H276677   6.754   4.076  17.114 -0.9672  0.1231 -1.4711
18396TIP3   OH276678   5.956   0.384  17.033  0.0294 -0.1718  0.3394
18396TIP3    H176679   6.000   0.453  16.983 -0.5874  0.0121  0.0346
18396TIP3    H276680   5.879   0.362  16.980  0.3242 -1.2347  0.3324
18397TIP3   OH276681   0.951   5.660   2.614 -0.1353  0.1586  0.3328
18397TIP3    H176682   0.959   5.688   2.523 -0.6087  0.2309  0.3080
18397TIP3    H276683   1.004   5.580   2.620 -1.7630 -1.0628 -0.5596
18398TIP3   OH276684   6.600   6.438   6.116  0.3121  0.0342  0.4176
18398TIP3    H176685   6.625   6.530   6.107 -0.6356  0.3093  0.4229
18398TIP3    H276686   6.664   6.391   6.064  0.6344  0.7287  0.1652
18399TIP3   OH276687   2.439   5.261  13.062 -0.8496 -0.3260 -0.0091
18399TIP3    H176688   2.345   5.276  13.067 -0.7766 -0.1211  1.0661
18399TIP3    H276689   2.453   5.182  13.115 -0.5922 -1.2761 -1.4319
18400TIP3   OH276690   6.270   1.242   4.822 -0.1883  0.0837 -0.5340
18400TIP3    H176691   6.346   1.185   4.810  0.8776  1.4161 -0.3284
18400TIP3    H276692   6.306   1.323   4.860 -1.4467  1.3804 -1.9734
18401TIP3   OH276693   6.053   0.288  14.891 -0.2430 -0.1160  0.1122
18401TIP3    H176694   6.008   0.312  14.810 -2.0734  0.9845  1.3807
18401TIP3    H276695   6.123   0.352  14.899  0.3992 -0.6651 -0.9323
18402TIP3   OH276696   0.188   2.365  13.885  0.1053 -0.5882 -0.3781
18402TIP3    H176697   0.139   2.430  13.936  2.4465  1.3865 -0.4163
18402TIP3    H276698   0.138   2.355  13.805  0.2676  2.2612 -0.9392
18403TIP3   OH276699   1.845   3.881  14.140  0.1200 -0.5518 -0.0804
18403TIP3    H176700   1.807   3.968  14.150 -1.5688 -1.3666  1.2726
18403TIP3    H276701   1.843   3.844  14.229 -0.1538 -2.3213 -0.7803
18404TIP3   OH276702   5.450   0.657   3.637  0.2586  0.2580  0.0753
18404TIP3    H176703   5.445   0.636   3.730  0.5962 -2.2617 -0.3966
18404TIP3    H276704   5.371   0.618   3.599  1.6341 -1.5420 -1.0987
18405TIP3   OH276705   0.664   5.466  16.701 -0.3528  0.0501 -0.3453
18405TIP3    H176706   0.637   5.435  16.787  2.3795 -3.5419 -0.5255
18405TIP3    H276707   0.617   5.409  16.639  0.8473 -0.2824 -0.9844
18406TIP3   OH276708   5.910   2.389   3.963 -0.6065 -0.5824  0.5201
18406TIP3    H176709   5.963   2.371   4.041  1.1959 -0.5629 -0.6317
18406TIP3    H276710   5.948   2.469   3.927 -0.8770 -1.0355 -0.8126
18407TIP3   OH276711   3.552   4.835   1.056 -0.3817  0.0573  0.3082
18407TIP3    H176712   3.533   4.913   1.107  0.3134 -0.1417  0.8924
18407TIP3    H276713   3.571   4.867   0.968 -0.9720  0.4577  0.3197
18408TIP3   OH276714   6.078   5.597   0.060 -0.1682  0.4894  0.4389
18408TIP3    H176715   6.040   5.685   0.056 -1.2992  0.1472  2.1338
18408TIP3    H276716   6.167   5.611   0.091  0.0606  1.1028 -0.4569
18409TIP3   OH276717   6.082   2.338   1.115 -0.0947 -0.3652  0.1039
18409TIP3    H176718   6.088   2.400   1.188  1.7677 -2.1198  1.5513
18409TIP3    H276719   6.090   2.252   1.156 -2.0532 -1.5986 -1.8970
18410TIP3   OH276720   0.787   1.540  12.252  0.0977  0.2456 -0.1971
18410TIP3    H176721   0.716   1.478  12.268  0.7393 -0.6234 -0.6326
18410TIP3    H276722   0.755   1.623  12.287  0.2836 -0.8859  2.9824
18411TIP3   OH276723   5.077   2.888  11.349  0.3652  0.2156  0.2382
18411TIP3    H176724   5.144   2.904  11.282  0.0729  0.0450 -0.0985
18411TIP3    H276725   5.022   2.819  11.312  0.6629 -0.4449  0.9932
18412TIP3   OH276726   4.818   5.852  15.790  0.3660 -0.9161  0.0800
18412TIP3    H176727   4.784   5.799  15.718  0.7517  0.3792 -1.0855
18412TIP3    H276728   4.898   5.891  15.756  0.5324 -0.2389  1.2012
18413TIP3   OH276729   5.668   4.631   0.338  0.4326  0.1253  0.5431
18413TIP3    H176730   5.677   4.619   0.243 -1.0352  0.5557  0.3235
18413TIP3    H276731   5.754   4.661   0.366  0.8540  0.1472 -0.6821
18414TIP3   OH276732   2.397   3.742  16.554 -0.0141  0.2036  0.1796
18414TIP3    H176733   2.473   3.789  16.587  0.5707  1.6822 -2.8728
18414TIP3    H276734   2.353   3.804  16.496 -2.3931 -1.2929  0.2337
18415TIP3   OH276735   5.608   1.944  16.549 -0.1546  0.1825 -0.4857
18415TIP3    H176736   5.696   1.964  16.580 -0.6948  0.7545  0.7453
18415TIP3    H276737   5.558   2.024  16.564 -0.7497  0.0543 -1.7077
18416TIP3   OH276738   4.082   0.265   2.199  0.0903 -0.1914 -0.0042
18416TIP3    H176739   4.033   0.202   2.252  0.0924  0.2924  0.5785
18416TIP3    H276740   4.167   0.224   2.185  0.1902 -0.2057  0.6063
18417TIP3   OH276741   5.654   0.186   0.998  0.2186 -0.7363  0.5406
18417TIP3    H176742   5.694   0.158   0.915 -1.3341  1.1550 -0.9318
18417TIP3    H276743   5.660   0.281   0.997 -0.9879 -0.6065  2.0083
18418TIP3   OH276744   5.837   0.689  15.846 -0.2088 -0.4824 -0.6322
18418TIP3    H176745   5.809   0.736  15.924  0.8347 -1.1869  0.1846
18418TIP3    H276746   5.761   0.634  15.823 -1.3355  1.3099 -1.4401
18419TIP3   OH276747   1.134   6.173  15.600 -0.0131 -0.0344 -1.1138
18419TIP3    H176748   1.226   6.148  15.606 -0.7318 -2.5737  0.4383
18419TIP3    H276749   1.134   6.267  15.618  2.1330 -0.2677  0.4870
18420TIP3   OH276750   3.370   2.001  16.170 -0.3516 -0.3991  0.5293
18420TIP3    H176751   3.390   1.926  16.226  1.5997 -1.0334 -0.9205
18420TIP3    H276752   3.417   1.983  16.088 -1.7976  1.2667 -0.7316
18421TIP3   OH276753   4.456   5.858   4.910 -0.7468 -0.2065 -0.0585
18421TIP3    H176754   4.487   5.771   4.886  0.1227 -0.0610  0.4961
18421TIP3    H276755   4.519   5.889   4.976 -1.7138  0.3679  0.6161
18422TIP3   OH276756   0.188   1.525  13.224  0.2182 -1.1370  0.2298
18422TIP3    H176757   0.279   1.542  13.199 -0.2452  2.3296  0.4210
18422TIP3    H276758   0.182   1.556  13.315 -1.5612  0.7800 -0.4574
18423TIP3   OH276759   5.799   1.514   5.818  0.4679 -0.2822  0.2972
18423TIP3    H176760   5.828   1.542   5.904  1.5870 -2.4574  0.7078
18423TIP3    H276761   5.721   1.461   5.835  0.1325  0.0640 -0.1353
18424TIP3   OH276762   5.659   5.223   4.694 -0.3483  0.3233  0.6546
18424TIP3    H176763   5.718   5.214   4.770  1.2142 -0.0254 -0.5390
18424TIP3    H276764   5.639   5.133   4.668 -1.4647  0.4391  1.0497
18425TIP3   OH276765   4.432   1.207   0.252 -0.3330 -0.1139  0.2502
18425TIP3    H176766   4.349   1.162   0.271 -0.0982  0.0138  1.7089
18425TIP3    H276767   4.440   1.272   0.322  1.5077 -0.8317  0.7669
18426TIP3   OH276768   2.270   5.652  13.510  0.0829  0.1361 -0.1268
18426TIP3    H176769   2.297   5.561  13.526 -1.3755 -1.0142 -3.3105
18426TIP3    H276770   2.350   5.696  13.483  0.8338 -0.0796  1.5863
18427TIP3   OH276771   6.700   0.372   3.489  0.6761 -0.0579  0.1570
18427TIP3    H176772   6.737   0.457   3.512  0.1248  0.1012  0.4555
18427TIP3    H276773   6.624   0.392   3.434  1.8240 -0.4149 -1.6565
18428TIP3   OH276774   2.570   2.169   2.157  0.0612 -0.1664  0.6707
18428TIP3    H176775   2.656   2.129   2.139 -0.0303 -0.1130  0.1063
18428TIP3    H276776   2.513   2.095   2.177 -0.2146 -0.3843 -0.7976
18429TIP3   OH276777   4.890   3.339  14.291  0.5544  0.3118  0.1557
18429TIP3    H176778   4.868   3.326  14.199 -0.4743  0.0329  0.4320
18429TIP3    H276779   4.832   3.280  14.339  2.1191 -0.6776  0.9178
18430TIP3   OH276780   5.873   4.270  15.785  0.3988  0.4415 -0.4067
18430TIP3    H176781   5.868   4.313  15.871  0.5897  2.9619 -1.5860
18430TIP3    H276782   5.949   4.309  15.743 -1.1265  1.1424 -2.6704
18431TIP3   OH276783   5.114   4.551   2.826 -0.2784  0.0709 -0.0497
18431TIP3    H176784   5.064   4.604   2.888  1.3518  2.9291 -0.9755
18431TIP3    H276785   5.196   4.531   2.871 -0.1523 -0.1114 -0.3543
18432TIP3   OH276786   0.992   0.312  11.612 -0.1717  0.2870 -0.2433
18432TIP3    H176787   1.039   0.385  11.572 -0.7930 -0.8737 -3.3319
18432TIP3    H276788   0.994   0.243  11.546 -1.6135 -1.7030  1.6468
18433TIP3   OH276789   6.650   3.228   2.441 -0.3824  0.1546 -0.7936
18433TIP3    H176790   6.576   3.171   2.420 -1.4805  0.8305  1.0956
18433TIP3    H276791   6.616   3.290   2.504  1.4090  1.4958 -1.0769
18434TIP3   OH276792   4.410   4.294   0.578  0.0438 -0.1624  0.2919
18434TIP3    H176793   4.315   4.295   0.587 -0.0490 -0.0256 -0.6040
18434TIP3    H276794   4.433   4.201   0.573 -0.0824 -0.1840  0.1201
18435TIP3   OH276795   3.697   1.977   4.738 -0.0325 -0.0429 -0.2442
18435TIP3    H176796   3.672   2.066   4.712 -1.9614  0.1766  2.0495
18435TIP3    H276797   3.787   1.986   4.769  0.3413  0.7623 -1.4806
18436TIP3   OH276798   3.657   4.095   5.911 -0.4697  0.4895 -0.0740
18436TIP3    H176799   3.664   4.121   5.819 -0.6827 -1.9593 -0.8423
18436TIP3    H276800   3.744   4.061   5.933 -0.7371  0.0043  0.2605
18437TIP3   OH276801   6.196   3.982   3.798  0.2633 -0.0142  0.0491
18437TIP3    H176802   6.192   4.072   3.764  0.2539 -0.7407 -2.0525
18437TIP3    H276803   6.267   3.941   3.748 -0.7533 -1.6037 -0.1710
18438TIP3   OH276804   5.265   6.296   2.279 -0.5151 -0.2656 -0.0694
18438TIP3    H176805   5.202   6.224   2.272 -0.1641 -0.5649 -0.2007
18438TIP3    H276806   5.215   6.375   2.261 -0.5590 -0.6180 -1.6174
18439TIP3   OH276807   5.156   2.303  12.251 -0.0113  0.3005 -0.2128
18439TIP3    H176808   5.167   2.345  12.336  0.5784  0.3824 -0.3254
18439TIP3    H276809   5.067   2.269  12.253  0.4612 -0.9702  1.0128
18440TIP3   OH276810   2.169   6.514   5.728 -0.3109 -0.1644 -0.5047
18440TIP3    H176811   2.218   6.462   5.664 -0.8948 -0.4357 -0.7497
18440TIP3    H276812   2.095   6.457   5.751 -1.2646  0.7631 -1.1841
18441TIP3   OH276813   0.676   0.459  14.816  0.0475 -0.5469 -0.5852
18441TIP3    H176814   0.612   0.418  14.875  2.1799 -0.2868  2.1074
18441TIP3    H276815   0.712   0.386  14.766 -0.1595 -1.1547  0.1295
18442TIP3   OH276816   0.508   2.398   2.240  0.2640  0.3628 -0.2482
18442TIP3    H176817   0.438   2.392   2.175 -0.0114  2.2065 -0.1759
18442TIP3    H276818   0.581   2.438   2.193  0.2586  1.1698  0.4107
18443TIP3   OH276819   5.849   0.407   4.585 -0.4849 -0.2829 -0.4001
18443TIP3    H176820   5.844   0.492   4.628  2.6647  0.5260 -1.3471
18443TIP3    H276821   5.853   0.428   4.491  1.5402 -1.3464 -0.5968
18444TIP3   OH276822   0.202   1.720  14.427  0.3621  0.4686 -0.6168
18444TIP3    H176823   0.162   1.770  14.356  2.1752  2.1532 -0.5270
18444TIP3    H276824   0.296   1.730  14.413  0.7665 -0.4481  1.1657
18445TIP3   OH276825   4.047   1.496   1.877 -0.2679  0.2010 -0.0581
18445TIP3    H176826   3.987   1.435   1.834 -0.2183 -0.5959  0.9761
18445TIP3    H276827   4.055   1.463   1.967 -2.4278  3.2594  1.4464
18446TIP3   OH276828   0.036   5.402   1.019  0.1330  0.3115  0.3113
18446TIP3    H176829   0.061   5.318   0.981 -3.7069 -2.1098  2.4198
18446TIP3    H276830  -0.011   5.447   0.949 -0.6669 -0.8623  0.0652
18447TIP3   OH276831   0.917   1.171   5.041  0.3199  0.2542 -0.0808
18447TIP3    H176832   0.902   1.239   5.107 -0.3686  0.7395 -0.7207
18447TIP3    H276833   0.960   1.100   5.089  1.1551  1.1781  0.5761
18448TIP3   OH276834   3.163   4.754  11.224 -0.2647 -0.5088  0.3897
18448TIP3    H176835   3.125   4.683  11.172 -0.8255 -0.6423  0.9684
18448TIP3    H276836   3.092   4.818  11.234 -0.6774 -1.1770  2.2489
18449TIP3   OH276837   4.905   2.039   4.138 -0.1977 -0.4075 -0.5793
18449TIP3    H176838   4.929   2.128   4.112  4.0578 -1.9979 -3.0787
18449TIP3    H276839   4.865   2.001   4.060 -0.5965 -1.1334 -0.0367
18450TIP3   OH276840   3.052   0.018  10.899 -0.5255 -0.5180 -0.0752
18450TIP3    H176841   3.063   0.075  10.823 -2.0945 -0.9641 -0.6793
18450TIP3    H276842   3.054  -0.070  10.863 -1.8106 -0.7186  0.3162
18451TIP3   OH276843   3.846   4.790   0.740 -0.5125  0.8010  0.1397
18451TIP3    H176844   3.865   4.874   0.782  1.2476  0.0849  0.8673
18451TIP3    H276845   3.872   4.724   0.804 -1.2360 -0.3154 -0.6766
18452TIP3   OH276846   5.551   0.569   1.615  0.3491 -0.0831 -0.1659
18452TIP3    H176847   5.576   0.477   1.615 -1.0512 -0.4779  0.1897
18452TIP3    H276848   5.464   0.571   1.655  0.5210  1.4378  0.1916
18453TIP3   OH276849   5.912   3.088   5.264  0.2014  0.3994  0.3594
18453TIP3    H176850   5.991   3.139   5.245  1.0680 -0.2958  1.8871
18453TIP3    H276851   5.940   2.997   5.255 -0.2805  0.1339  1.3683
18454TIP3   OH276852   5.277   3.225   5.587 -0.1062 -0.3213  0.9162
18454TIP3    H176853   5.196   3.244   5.634  0.3002 -1.5900  2.2057
18454TIP3    H276854   5.343   3.280   5.631 -0.5253  2.2938 -1.4341
18455TIP3   OH276855   2.167   6.034   4.726 -0.4445  0.2013  0.0306
18455TIP3    H176856   2.133   5.964   4.670  0.3788  0.7640 -1.2092
18455TIP3    H276857   2.126   6.018   4.811  0.9395 -2.7493  0.2657
18456TIP3   OH276858   2.767   5.172   0.233 -0.3172 -0.4070  0.4259
18456TIP3    H176859   2.782   5.089   0.277  0.7240 -0.3430  0.2168
18456TIP3    H276860   2.842   5.226   0.257  0.1073 -0.2543 -1.1208
18457TIP3   OH276861   1.742   3.633   0.516 -0.3360 -0.5039  0.0027
18457TIP3    H176862   1.821   3.595   0.476 -0.6834 -0.7465 -0.4639
18457TIP3    H276863   1.729   3.582   0.596  0.6154  0.2724  0.6831
18458TIP3   OH276864   0.831   1.620   3.771 -0.3639  0.0198 -0.1715
18458TIP3    H176865   0.763   1.662   3.823 -0.5103 -0.3700 -0.0448
18458TIP3    H276866   0.865   1.689   3.715 -0.7119  0.2679 -0.0756
18459TIP3   OH276867   3.097   5.282   1.330 -0.2804  0.2406 -0.0294
18459TIP3    H176868   3.083   5.364   1.282  0.0749  0.4167  0.1645
18459TIP3    H276869   3.157   5.232   1.276  0.5119  0.6444  0.4532
18460TIP3   OH276870   1.349   0.908  14.805  0.5373 -0.2081  0.2209
18460TIP3    H176871   1.397   0.865  14.734  0.7947  1.3812 -0.6127
18460TIP3    H276872   1.410   0.910  14.878  1.4203  0.9164 -0.5206
18461TIP3   OH276873   3.018   2.679  14.127 -0.1527  0.6074  0.2080
18461TIP3    H176874   2.959   2.713  14.194 -0.9077  0.4942 -0.3850
18461TIP3    H276875   3.091   2.741  14.126  0.6860 -0.2460  2.2392
18462TIP3   OH276876   2.317   3.245  13.088 -0.0133  0.3332  0.2086
18462TIP3    H176877   2.386   3.310  13.074  1.0593 -0.9035 -0.4979
18462TIP3    H276878   2.327   3.184  13.015 -1.7673  0.0215  0.1871
18463TIP3   OH276879   2.780   6.138   5.760 -0.1588 -0.3037 -0.3256
18463TIP3    H176880   2.687   6.158   5.754 -0.0012  0.5869  0.0682
18463TIP3    H276881   2.813   6.198   5.826  0.5283 -1.2389  0.2017
18464TIP3   OH276882   0.979   3.188   4.352 -0.2692  0.2924  0.5590
18464TIP3    H176883   1.038   3.231   4.413 -0.0089 -0.2716  0.7085
18464TIP3    H276884   0.996   3.095   4.363 -0.4887  0.1677 -0.1038
18465TIP3   OH276885   5.298   4.958  11.895  0.1792 -0.4723 -0.0835
18465TIP3    H176886   5.291   4.873  11.852  0.3083  0.2565 -1.6262
18465TIP3    H276887   5.306   4.937  11.988 -1.9302 -2.0738 -0.1640
18466TIP3   OH276888   1.612   5.254   0.126  0.1097 -0.4656  0.1856
18466TIP3    H176889   1.661   5.253   0.208  0.1857 -0.1255  0.1454
18466TIP3    H276890   1.671   5.296   0.063 -1.0167  2.0333  0.6555
18467TIP3   OH276891   5.398   4.963  13.919  0.0109 -0.1729 -0.4995
18467TIP3    H176892   5.369   5.054  13.924 -1.4984 -0.5801 -1.1435
18467TIP3    H276893   5.446   4.957  13.836 -0.6833 -0.1497 -0.9127
18468TIP3   OH276894   3.016   6.110   4.796 -0.0395 -0.1981 -0.2191
18468TIP3    H176895   3.076   6.096   4.723  1.0560 -2.0925  0.9372
18468TIP3    H276896   3.030   6.201   4.822  1.8575 -0.3809 -0.4376
18469TIP3   OH276897   5.809   1.769   4.072 -0.2425 -0.4216 -0.0807
18469TIP3    H176898   5.735   1.738   4.123 -1.0762 -0.2214 -1.1367
18469TIP3    H276899   5.770   1.815   3.998  0.9022 -1.7857 -1.6039
18470TIP3   OH276900   1.951   4.171  16.010 -0.0352  0.6543 -0.7963
18470TIP3    H176901   2.037   4.141  16.039 -0.0967 -0.0976 -1.3497
18470TIP3    H276902   1.959   4.266  16.004  0.3845  0.7036  0.3280
18471TIP3   OH276903   5.740   5.404   0.472 -0.3180 -0.0939  0.0064
18471TIP3    H176904   5.802   5.440   0.536 -2.1028  1.7959  0.7879
18471TIP3    H276905   5.795   5.380   0.397  1.6730 -1.1371  1.6987
18472TIP3   OH276906   2.780   4.677  15.500  0.3166 -0.2513  0.3894
18472TIP3    H176907   2.736   4.729  15.434  2.0870  0.4603 -0.2960
18472TIP3    H276908   2.748   4.588  15.487 -1.8602  0.4201  0.8013
18473TIP3   OH276909   4.024   4.958  11.363  0.3351 -0.1304 -0.2968
18473TIP3    H176910   4.075   5.014  11.305  0.6253  0.0695  0.1533
18473TIP3    H276911   4.087   4.895  11.397  0.4306  0.5326  0.7894
18474TIP3   OH276912   3.075   4.670   4.642 -0.3951  0.4819  0.1023
18474TIP3    H176913   3.034   4.757   4.647 -2.8838 -0.4797 -1.6228
18474TIP3    H276914   3.043   4.634   4.560  2.1462 -1.3546 -0.1598
18475TIP3   OH276915   6.509   2.400   3.472 -0.3323  0.7297  0.2731
18475TIP3    H176916   6.532   2.315   3.509 -1.6024 -0.3889 -1.3573
18475TIP3    H276917   6.592   2.437   3.442  0.0457 -0.7145 -0.5445
18476TIP3   OH276918   4.995   3.803   1.592 -0.1550  0.0082  0.1770
18476TIP3    H176919   4.942   3.746   1.536  1.3866 -2.5704  1.1362
18476TIP3    H276920   4.932   3.863   1.632 -1.9729 -1.2212 -0.6853
18477TIP3   OH276921   1.508   2.130  16.439  0.3709 -0.2695  0.3544
18477TIP3    H176922   1.521   2.080  16.519 -1.8365  0.8762  1.5331
18477TIP3    H276923   1.558   2.211  16.452  0.6852 -0.4378  0.2009
18478TIP3   OH276924   5.626   0.886  10.500  0.0988  0.1719 -0.3562
18478TIP3    H176925   5.605   0.831  10.575 -1.1387 -0.4782 -1.1481
18478TIP3    H276926   5.706   0.847  10.463 -0.1979 -0.4845 -0.3163
18479TIP3   OH276927   0.194   1.276  11.334  0.0426  0.1618 -0.2219
18479TIP3    H176928   0.179   1.196  11.284 -0.8091  0.5264 -0.5845
18479TIP3    H276929   0.287   1.275  11.355 -0.0086 -1.0645  0.0316
18480TIP3   OH276930   0.646   3.953   1.932  0.1578 -0.3084  0.8059
18480TIP3    H176931   0.635   3.969   1.838  0.0013  0.4376  0.9401
18480TIP3    H276932   0.675   4.038   1.967  0.7146 -0.7117  1.3529
18481TIP3   OH276933   5.169   1.019   0.710  0.1312  0.3255  0.0409
18481TIP3    H176934   5.183   1.057   0.797  0.3153 -1.4497  0.8244
18481TIP3    H276935   5.102   1.075   0.670  1.3663  2.2851  0.5646
18482TIP3   OH276936   3.488   3.217  15.552  0.0563 -0.3145 -0.4314
18482TIP3    H176937   3.495   3.136  15.603  0.8347  0.7265  1.2002
18482TIP3    H276938   3.428   3.272  15.604 -0.4067  0.1875 -1.4772
18483TIP3   OH276939   1.639   6.793  15.596 -0.0587  0.0093 -0.7042
18483TIP3    H176940   1.689   6.857  15.646  1.7755 -1.3441 -0.6737
18483TIP3    H276941   1.697   6.770  15.522 -0.7752 -1.3584 -0.8792
18484TIP3   OH276942   4.654   4.560   4.162 -0.2242  0.3301 -0.0194
18484TIP3    H176943   4.565   4.595   4.152 -1.4927 -2.4890  0.4060
18484TIP3    H276944   4.666   4.555   4.257 -0.7795 -1.7953 -0.0069
18485TIP3   OH276945   1.670   6.402  15.479 -0.8079  0.0469 -0.5544
18485TIP3    H176946   1.660   6.326  15.538 -0.1579  1.6553  1.7881
18485TIP3    H276947   1.596   6.458  15.501  0.8120  1.8349  0.6835
18486TIP3   OH276948   0.008   6.192   2.374 -0.2139 -0.2195  0.1698
18486TIP3    H176949  -0.025   6.281   2.361 -1.6657 -0.6143  0.9649
18486TIP3    H276950  -0.014   6.147   2.293 -0.5717 -0.1625  0.2322
18487TIP3   OH276951   6.485   1.789  12.948 -0.4419 -0.1979  0.6340
18487TIP3    H176952   6.453   1.794  12.858  1.3153 -0.2567 -0.0427
18487TIP3    H276953   6.545   1.863  12.956 -0.8612  0.0291  1.8988
18488TIP3   OH276954   5.358   4.571  14.982  0.1581 -0.2995  0.1872
18488TIP3    H176955   5.266   4.561  14.956  0.0940 -0.8096  0.5819
18488TIP3    H276956   5.389   4.648  14.934 -1.0828  1.2143  1.7128
18489TIP3   OH276957   4.636   3.753  15.636  0.3135 -0.2020 -0.3187
18489TIP3    H176958   4.580   3.771  15.712 -0.3769  1.0250 -1.0925
18489TIP3    H276959   4.719   3.795  15.657 -0.0779  0.6839 -0.4920
18490TIP3   OH276960   3.901   5.170  15.414 -0.0469 -0.0167  0.4159
18490TIP3    H176961   3.947   5.106  15.361  0.1087 -0.0507  0.5913
18490TIP3    H276962   3.959   5.247  15.415  0.8023 -0.6203  1.9907
18491TIP3   OH276963   2.129   5.623  16.090 -0.0269 -0.1414 -0.1098
18491TIP3    H176964   2.140   5.711  16.126 -1.2172  0.1788 -0.5112
18491TIP3    H276965   2.188   5.620  16.015  0.4429  0.1066  0.2425
18492TIP3   OH276966   0.967   2.240   4.362  0.4128 -0.4167 -0.0293
18492TIP3    H176967   0.936   2.169   4.418 -0.2798 -0.6735 -0.7213
18492TIP3    H276968   0.895   2.258   4.302  0.4774  1.0752  0.3013
18493TIP3   OH276969   3.188   6.678  17.195  0.1164  0.2501  0.2980
18493TIP3    H176970   3.272   6.698  17.234  1.4101 -0.0630 -2.0962
18493TIP3    H276971   3.154   6.762  17.166  0.9022  0.1450 -1.0395
18494TIP3   OH276972   1.192   2.207  14.800 -0.0171  0.1382  0.2825
18494TIP3    H176973   1.266   2.174  14.851  0.3464 -0.3548 -0.5318
18494TIP3    H276974   1.182   2.298  14.827 -1.3713 -0.6943  2.9819
18495TIP3   OH276975   4.518   6.661   3.756  0.2101 -0.5999 -0.7603
18495TIP3    H176976   4.550   6.671   3.667 -0.7715  0.7254 -1.0050
18495TIP3    H276977   4.517   6.567   3.771  2.1651 -0.7669 -1.4574
18496TIP3   OH276978   6.796   6.304   5.989 -0.0273  0.0083 -0.3083
18496TIP3    H176979   6.850   6.290   5.911  1.5267  0.5284  0.6435
18496TIP3    H276980   6.811   6.226   6.043  0.5265  0.5903  0.3845
18497TIP3   OH276981   6.183   6.711  13.392  0.0674  0.0552  0.2291
18497TIP3    H176982   6.151   6.764  13.319 -0.1228  2.4164  1.9128
18497TIP3    H276983   6.191   6.773  13.465  2.9889 -1.5836  1.4695
18498TIP3   OH276984   0.503   5.848  12.876 -0.3736 -0.1281 -0.7779
18498TIP3    H176985   0.497   5.769  12.930  0.6471 -0.5245 -1.2010
18498TIP3    H276986   0.553   5.910  12.930  1.4913 -0.8575 -1.5767
18499TIP3   OH276987   2.791   3.591  15.546 -0.1616  0.0460  0.0824
18499TIP3    H176988   2.851   3.652  15.504 -0.6538  0.4023 -0.1033
18499TIP3    H276989   2.834   3.506  15.538 -0.5065  0.0046 -1.6589
18500TIP3   OH276990   4.535   5.496  13.921  0.6275 -0.8779  0.3048
18500TIP3    H176991   4.605   5.551  13.884  1.2170 -1.9540 -0.2134
18500TIP3    H276992   4.492   5.553  13.985  0.5285  0.5466 -0.9716
18501TIP3   OH276993   4.869   0.890  13.878 -0.1141 -0.4505  0.2488
18501TIP3    H176994   4.911   0.916  13.960 -1.4018 -0.4262  0.9264
18501TIP3    H276995   4.940   0.853  13.825  0.7487 -0.4092  1.3446
18502TIP3   OH276996   2.004   1.431  12.620 -0.2336 -0.1613  0.1295
18502TIP3    H176997   1.975   1.381  12.544 -1.2725 -0.1527  0.4995
18502TIP3    H276998   1.995   1.523  12.593 -0.8478 -0.1549  0.3392
18503TIP3   OH276999   1.218   5.611   1.457 -0.1384  0.2146  0.3876
18503TIP3    H177000   1.204   5.687   1.401 -1.7249 -0.1016  0.2894
18503TIP3    H277001   1.133   5.596   1.499  0.2588 -1.2107  0.7621
18504TIP3   OH277002   4.898   1.382   1.642 -0.5247  0.1374 -0.4833
18504TIP3    H177003   4.874   1.403   1.552  0.7667 -0.7086 -1.0485
18504TIP3    H277004   4.986   1.345   1.636 -0.9956 -1.3334  0.9580
18505TIP3   OH277005   5.161   2.289   4.390  0.7305  0.6806 -0.1268
18505TIP3    H177006   5.067   2.284   4.410  0.7074 -0.0610 -0.3949
18505TIP3    H277007   5.173   2.229   4.317  1.7204 -0.5676  1.0190
18506TIP3   OH277008   5.485   0.006  14.727  0.4463  0.3847  0.2122
18506TIP3    H177009   5.427   0.019  14.802 -0.4469 -1.8289 -0.0145
18506TIP3    H277010   5.444  -0.064  14.677  1.1696  1.6150 -2.2499
18507TIP3   OH277011   6.397   4.419  16.183  0.5988 -0.0955  0.4138
18507TIP3    H177012   6.322   4.463  16.222  0.6021  0.7959 -0.5541
18507TIP3    H277013   6.369   4.398  16.094  0.3347 -2.7142  1.0148
18508TIP3   OH277014   1.477   5.326   2.396  0.5688  0.5984  0.3630
18508TIP3    H177015   1.464   5.317   2.301 -1.6385 -0.0855  0.6937
18508TIP3    H277016   1.532   5.252   2.420  1.8502  1.2323 -0.4665
18509TIP3   OH277017   6.741   1.588  14.079  0.1253  0.3100 -0.3633
18509TIP3    H177018   6.710   1.506  14.040  0.5917  0.3534 -0.8473
18509TIP3    H277019   6.728   1.653  14.010 -0.8160  0.7744  0.2329
18510TIP3   OH277020   6.636   6.639  14.702 -0.3959 -0.0673 -0.0947
18510TIP3    H177021   6.686   6.720  14.697  2.5088 -1.7225 -0.3239
18510TIP3    H277022   6.648   6.608  14.792  0.9858 -1.5612 -0.7292
18511TIP3   OH277023   0.363   1.554   0.429 -0.7546  0.1848  0.1428
18511TIP3    H177024   0.319   1.513   0.355 -1.0227  1.2377 -0.2996
18511TIP3    H277025   0.345   1.648   0.419  3.0224  0.9406 -1.0702
18512TIP3   OH277026   4.341   0.632  12.746 -0.4467 -0.4275  0.0151
18512TIP3    H177027   4.307   0.640  12.657 -0.0383  0.6282 -0.0629
18512TIP3    H277028   4.313   0.546  12.775 -1.9088 -0.1742 -0.5806
18513TIP3   OH277029   2.000   4.883   3.569  0.8477  0.0222  0.0218
18513TIP3    H177030   1.989   4.814   3.635  0.1811 -0.2324 -0.3462
18513TIP3    H277031   1.951   4.851   3.493  0.1585  1.0956 -0.0059
18514TIP3   OH277032   0.064   1.812  12.163  0.0160  0.2305  0.1279
18514TIP3    H177033   0.018   1.737  12.126  0.4767 -0.2552  0.5206
18514TIP3    H277034   0.030   1.819  12.253  0.7995 -0.2156  0.4666
18515TIP3   OH277035   1.855   2.456  13.035  0.1851  0.6017 -0.0280
18515TIP3    H177036   1.770   2.421  13.060  0.9721  0.1586  2.1918
18515TIP3    H277037   1.893   2.388  12.979  0.0883 -0.3654  1.0343
18516TIP3   OH277038   5.319   1.780   1.341 -0.1689  0.3226 -0.2598
18516TIP3    H177039   5.249   1.732   1.385  1.2870 -0.5326  1.2330
18516TIP3    H277040   5.382   1.713   1.315  0.6692  1.1641 -0.4616
18517TIP3   OH277041   3.402   6.619   0.275  0.4098 -0.1561 -0.4942
18517TIP3    H177042   3.495   6.597   0.276  0.8960  1.5494  2.0379
18517TIP3    H277043   3.387   6.660   0.190  2.0134 -0.2128 -0.8345
18518TIP3   OH277044   4.147   5.153  16.961 -0.4019 -0.4911  0.1760
18518TIP3    H177045   4.216   5.101  17.002 -0.6899 -1.0499 -0.0378
18518TIP3    H277046   4.075   5.091  16.947 -0.6527 -0.0980 -0.3221
18519TIP3   OH277047   5.859   2.244  14.857  0.3192 -0.2063  0.4876
18519TIP3    H177048   5.930   2.207  14.806 -0.6088 -1.3857  0.0007
18519TIP3    H277049   5.828   2.172  14.912 -0.2095  0.4042  1.0193
18520TIP3   OH277050   4.752   6.005  16.974 -0.0968  0.4240  0.0851
18520TIP3    H177051   4.689   6.068  16.940  0.1411  1.0088  0.6838
18520TIP3    H277052   4.743   6.011  17.069 -1.0657 -1.4942  0.1556
18521TIP3   OH277053   5.781   0.098   0.087  0.2181  0.0216 -0.3993
18521TIP3    H177054   5.870   0.108   0.121 -0.2864  0.8638  0.7316
18521TIP3    H277055   5.793   0.088  -0.008  1.5951 -1.3794 -0.1217
18522TIP3   OH277056   0.868   1.567   5.096 -0.0611  0.3912 -0.8158
18522TIP3    H177057   0.844   1.549   5.006  1.8864  1.0670 -1.5217
18522TIP3    H277058   0.864   1.482   5.140  0.2891 -0.1862 -1.8741
18523TIP3   OH277059   3.294   4.703  11.640  0.1722  0.1311  0.5500
18523TIP3    H177060   3.207   4.706  11.679 -0.5857  0.4104 -1.0660
18523TIP3    H277061   3.354   4.720  11.712 -0.9146 -2.5423  2.2657
18524TIP3   OH277062   1.140   1.640  13.222 -0.0611  0.7481  0.0129
18524TIP3    H177063   1.157   1.575  13.291 -1.3112  1.3446  0.9315
18524TIP3    H277064   1.105   1.589  13.149 -0.9182  0.3478  0.6810
18525TIP3   OH277065   6.420   3.259   1.423 -0.5065 -0.8525  0.0098
18525TIP3    H177066   6.385   3.286   1.338  0.3465  2.6606  0.6259
18525TIP3    H277067   6.515   3.259   1.411 -0.4002 -1.0541  0.7816
18526TIP3   OH277068   2.926   4.693   2.577  0.4828  0.4426 -0.5218
18526TIP3    H177069   2.903   4.730   2.492 -1.3421  0.2598 -0.1544
18526TIP3    H277070   2.901   4.601   2.571  1.6999  0.0730 -0.2513
18527TIP3   OH277071   1.976   3.367  17.144 -0.1006 -0.1308  0.4684
18527TIP3    H177072   1.981   3.328  17.231 -1.1720 -1.6635 -0.0994
18527TIP3    H277073   1.897   3.329  17.105  1.4818 -1.2069 -1.9670
18528TIP3   OH277074   3.921   6.043  16.062 -0.3220 -0.2335 -0.4948
18528TIP3    H177075   3.949   5.996  16.141 -1.1504 -0.6485 -0.4436
18528TIP3    H277076   3.981   6.118  16.058  1.0285 -1.2756 -0.5963
18529TIP3   OH277077   4.595   6.141  10.853 -0.5476 -0.4494  0.0871
18529TIP3    H177078   4.520   6.132  10.912 -0.6486  0.2730  0.0765
18529TIP3    H277079   4.671   6.122  10.907 -0.7314 -1.1333  0.1134
18530TIP3   OH277080   2.331   1.952   2.882  0.1861  0.4482  0.1055
18530TIP3    H177081   2.395   1.978   2.948 -2.1276 -0.8656  3.0957
18530TIP3    H277082   2.247   1.978   2.919 -1.3059 -1.0761 -1.9758
18531TIP3   OH277083   1.698   0.813   0.882  0.1214  0.4114 -0.0971
18531TIP3    H177084   1.726   0.732   0.924 -2.7098 -0.2551  0.7832
18531TIP3    H277085   1.706   0.880   0.951  2.5411  0.9745 -0.8496
18532TIP3   OH277086   1.478   3.666   2.992  0.7089 -0.7606  0.1552
18532TIP3    H177087   1.492   3.716   2.912 -0.1425  0.2111  0.5947
18532TIP3    H277088   1.415   3.718   3.043  0.5872 -1.7719  1.0828
18533TIP3   OH277089   1.009   2.950  12.134  0.6142  1.1389 -0.2208
18533TIP3    H177090   0.938   2.986  12.186 -0.9074 -0.4724 -1.0850
18533TIP3    H277091   1.055   2.891  12.193  0.6357  1.4392  0.0629
18534TIP3   OH277092   3.250   1.603  15.235 -0.0876  0.3219 -0.0937
18534TIP3    H177093   3.281   1.546  15.165 -0.8362  0.0356 -0.1990
18534TIP3    H277094   3.295   1.686  15.220 -0.8893  0.5344 -1.4248
18535TIP3   OH277095   4.646   3.908   0.846  0.4703 -0.5933 -0.3114
18535TIP3    H177096   4.627   3.920   0.939 -0.4500 -2.9073 -0.1435
18535TIP3    H277097   4.738   3.881   0.844  0.9125  0.8244 -0.2362
18536TIP3   OH277098   2.075   5.708   6.595  0.3840  0.0148  0.4778
18536TIP3    H177099   2.048   5.692   6.686 -0.3087 -2.1513 -0.0554
18536TIP3    H277100   1.994   5.728   6.549  0.8304  1.9286  0.4373
18537TIP3   OH277101   2.208   2.321   6.677 -0.1437 -0.0602 -0.0566
18537TIP3    H177102   2.171   2.393   6.728  0.4826 -0.4026  0.9182
18537TIP3    H277103   2.142   2.252   6.681  1.0353 -1.2073  2.8730
18538TIP3   OH277104   6.337   4.844  16.912 -0.0867 -0.5699 -0.1639
18538TIP3    H177105   6.394   4.848  16.835  0.8254 -1.2130  0.4683
18538TIP3    H277106   6.347   4.930  16.953 -2.3079  0.6568 -1.9222
18539TIP3   OH277107   3.309   2.628   2.606  0.2967 -0.0019  0.1620
18539TIP3    H177108   3.232   2.652   2.658 -1.5061 -0.9722 -1.8565
18539TIP3    H277109   3.327   2.537   2.631  0.0910 -0.1261 -0.1355
18540TIP3   OH277110   2.257   0.339   4.797 -0.1450  0.5090 -0.2357
18540TIP3    H177111   2.272   0.360   4.705  0.4113  0.3578 -0.1858
18540TIP3    H277112   2.326   0.275   4.818 -0.0178  0.8432  0.3887
18541TIP3   OH277113   0.587   3.839   3.242 -0.1486  0.7388 -0.5847
18541TIP3    H177114   0.582   3.794   3.326  0.8462  1.6413 -0.0234
18541TIP3    H277115   0.495   3.854   3.218 -0.6014 -2.5892 -1.4127
18542TIP3   OH277116   0.837   6.261  12.759  0.2874 -0.2914 -0.0922
18542TIP3    H177117   0.743   6.249  12.769  0.3309  0.5399  1.7895
18542TIP3    H277118   0.876   6.214  12.832  1.1941  0.9363  0.2563
18543TIP3   OH277119   2.368   3.113   1.958  0.4673  0.0909  0.5776
18543TIP3    H177120   2.427   3.173   1.913  1.2704 -0.9149  0.2530
18543TIP3    H277121   2.338   3.053   1.890 -1.8029  1.2181  0.5125
18544TIP3   OH277122   5.634   2.199   3.214 -0.0797 -0.1619  0.0734
18544TIP3    H177123   5.615   2.211   3.307 -1.8219 -1.3730 -0.0827
18544TIP3    H277124   5.653   2.106   3.204  0.5029  0.0258 -0.7318
18545TIP3   OH277125   5.006   0.987  12.297  0.2519 -0.5677 -0.4461
18545TIP3    H177126   4.913   0.983  12.319  0.2629 -1.4840 -0.5204
18545TIP3    H277127   5.046   1.034  12.371 -0.2325 -0.3727 -0.3042
18546TIP3   OH277128   0.227   0.250   2.248 -0.1828  0.5005 -0.1774
18546TIP3    H177129   0.189   0.303   2.318 -1.2700  0.6323 -0.8397
18546TIP3    H277130   0.318   0.237   2.274 -0.6365  0.2647  1.4303
18547TIP3   OH277131   1.798   1.822   3.327 -0.0229  0.3933 -0.4007
18547TIP3    H177132   1.736   1.863   3.267  1.3569  1.4342 -1.1880
18547TIP3    H277133   1.763   1.838   3.414 -1.1219  0.4751 -0.8488
18548TIP3   OH277134   3.895   1.664   2.051 -0.0452 -1.1051 -0.1796
18548TIP3    H177135   3.848   1.735   2.008 -3.1383 -2.9934 -0.2442
18548TIP3    H277136   3.946   1.623   1.980 -0.3952 -0.5812 -0.7412
18549TIP3   OH277137   5.124   4.716   3.972  0.5964  0.1720 -0.1052
18549TIP3    H177138   5.052   4.695   4.031 -0.9838  2.0872 -1.2258
18549TIP3    H277139   5.202   4.715   4.027 -0.2607 -1.8481  1.1705
18550TIP3   OH277140   6.505   5.514   5.264  0.4033 -0.1823 -0.3280
18550TIP3    H177141   6.526   5.567   5.188  0.8185 -0.9061 -0.7270
18550TIP3    H277142   6.570   5.443   5.263  0.2227 -0.3767  0.5159
18551TIP3   OH277143   1.296   0.839   3.897 -0.7417  0.2866  0.1823
18551TIP3    H177144   1.252   0.820   3.979 -2.2175  1.2270 -0.3383
18551TIP3    H277145   1.258   0.778   3.834  0.3527 -0.4041  0.1565
18552TIP3   OH277146   4.901   6.738   5.796  0.1460 -0.2423  0.2084
18552TIP3    H177147   4.908   6.832   5.785 -0.3088 -0.0127  1.7122
18552TIP3    H277148   4.976   6.703   5.747  0.2941  0.8794 -0.4018
18553TIP3   OH277149   2.606   3.081  15.923 -0.4315 -0.1427 -0.2609
18553TIP3    H177150   2.655   3.125  15.992  0.7683  1.4846 -2.0218
18553TIP3    H277151   2.576   3.000  15.962  1.8002 -0.1771  1.6042
18554TIP3   OH277152   6.727   2.090  17.266  0.2146 -0.2076  0.0206
18554TIP3    H177153   6.667   2.018  17.245  0.9784 -0.5698 -0.9990
18554TIP3    H277154   6.730   2.142  17.186  1.5612 -0.4311 -0.1017
18555TIP3   OH277155   6.204   1.136  16.881 -0.6513 -0.4620 -0.1842
18555TIP3    H177156   6.280   1.094  16.840 -0.2319 -0.9198  1.0395
18555TIP3    H277157   6.231   1.227  16.893 -0.4300 -0.5382 -0.0951
18556TIP3   OH277158   4.538   6.468   5.049  0.2804 -0.0472 -0.2288
18556TIP3    H177159   4.476   6.460   5.121  1.0865  0.9798  0.6248
18556TIP3    H277160   4.509   6.404   4.984 -1.9001  0.6780 -0.0514
18557TIP3   OH277161   6.743   2.062  11.108 -0.0525 -0.3510 -0.0546
18557TIP3    H177162   6.736   2.063  11.012 -1.0692  1.7311 -0.0172
18557TIP3    H277163   6.823   2.012  11.125 -0.7093 -2.1754 -1.8791
18558TIP3   OH277164   5.205   1.439  11.732  0.3496  0.0669  0.0097
18558TIP3    H177165   5.139   1.496  11.771  0.9780  0.3103  0.7340
18558TIP3    H277166   5.202   1.460  11.638  0.5461  1.2886  0.2536
18559TIP3   OH277167   1.268   6.691  14.739 -0.2489 -0.4863 -0.0110
18559TIP3    H177168   1.176   6.707  14.761  0.3019  2.1976  0.7371
18559TIP3    H277169   1.312   6.689  14.824  0.4924 -1.0212 -0.4039
18560TIP3   OH277170   4.773   0.641  11.179 -0.1668  0.2124 -0.5762
18560TIP3    H177171   4.740   0.605  11.097  0.3982 -1.8154  0.0055
18560TIP3    H277172   4.704   0.621  11.243 -0.7611  2.0851 -0.5697
18561TIP3   OH277173   0.811   4.310  14.198  0.2629  0.0015 -0.3790
18561TIP3    H177174   0.804   4.228  14.150 -0.0336 -0.2071  0.0211
18561TIP3    H277175   0.721   4.333  14.221  0.5368 -1.1510  2.1819
18562TIP3   OH277176   5.144   5.235   3.838 -0.2350 -0.5933 -0.3957
18562TIP3    H177177   5.211   5.290   3.797  0.8631 -1.4900  0.1114
18562TIP3    H277178   5.121   5.281   3.918 -1.6109  0.6360 -1.4434
18563TIP3   OH277179   4.177   2.261  17.053  0.0843 -0.1957 -0.4602
18563TIP3    H177180   4.141   2.240  17.139 -0.7091  0.3983 -0.6390
18563TIP3    H277181   4.269   2.234  17.058 -0.7152 -3.2565 -0.5275
18564TIP3   OH277182   6.003   0.230   1.412 -0.3204  0.4986 -0.1674
18564TIP3    H177183   5.961   0.316   1.414 -0.7295  0.3383  2.7748
18564TIP3    H277184   5.962   0.185   1.338 -2.5915  1.6802  0.2836
18565TIP3   OH277185   1.096   1.581  11.618 -0.6485  0.3717 -0.3889
18565TIP3    H177186   1.014   1.555  11.659 -0.4371 -1.9688 -1.3196
18565TIP3    H277187   1.071   1.651  11.557 -1.3279  2.1419  1.7663
18566TIP3   OH277188   2.730   1.096  13.296  0.2362  0.3793  0.3172
18566TIP3    H177189   2.705   1.010  13.262 -0.1781 -0.3608  2.3549
18566TIP3    H277190   2.651   1.150  13.284 -0.1794 -0.1024  0.8556
18567TIP3   OH277191   0.982   4.246  16.662  0.0926 -0.6119  0.3878
18567TIP3    H177192   1.008   4.182  16.729 -0.9419 -0.5054  0.9182
18567TIP3    H277193   0.994   4.331  16.704  1.0675 -0.4591 -0.1717
18568TIP3   OH277194   4.289   1.378  16.444  0.2001  0.2373 -0.3361
18568TIP3    H177195   4.370   1.428  16.452 -0.0665  0.9363 -1.6849
18568TIP3    H277196   4.305   1.298  16.495  1.9136  0.1579 -0.9319
18569TIP3   OH277197   5.793   4.078   6.541  0.5184 -0.1772  0.6912
18569TIP3    H177198   5.810   4.053   6.450 -1.1759 -1.0572  0.5747
18569TIP3    H277199   5.803   3.996   6.590 -2.1009 -0.5506  0.7443
18570TIP3   OH277200   1.614   0.125  16.549  0.2102  0.7031 -0.2592
18570TIP3    H177201   1.641   0.120  16.457 -0.6575 -0.7731 -0.4681
18570TIP3    H277202   1.518   0.125  16.547  0.1704 -0.2889  0.6667
18571TIP3   OH277203   0.103   0.507  13.588 -0.1553 -0.8372  0.1028
18571TIP3    H177204   0.018   0.492  13.547 -0.5247  2.5608 -0.6825
18571TIP3    H277205   0.082   0.537  13.677  0.1394  0.4393 -0.2359
18572TIP3   OH277206   0.771   5.158  14.298  0.5744  0.1319 -0.1681
18572TIP3    H177207   0.766   5.198  14.385  2.0125  0.2058 -0.0858
18572TIP3    H277208   0.824   5.220  14.247 -1.0954  0.6106 -1.4248
18573TIP3   OH277209   2.227   2.246   3.337 -0.4591  0.3006  0.1952
18573TIP3    H177210   2.277   2.201   3.406  0.9957 -1.0455 -1.6239
18573TIP3    H277211   2.290   2.307   3.298 -0.2908 -1.0599 -1.8104
18574TIP3   OH277212   1.909   4.469   0.375 -0.2187  0.3789  0.2425
18574TIP3    H177213   1.927   4.407   0.304 -1.5647  1.3402 -0.9846
18574TIP3    H277214   1.964   4.544   0.355 -1.3788  1.0826 -0.4241
18575TIP3   OH277215   5.852   2.323   1.562  0.3729  0.3343 -0.2640
18575TIP3    H177216   5.853   2.245   1.506 -0.2691 -0.6141  0.9868
18575TIP3    H277217   5.815   2.391   1.506  0.2116 -0.4545 -1.1560
18576TIP3   OH277218   2.974   2.139  13.841  0.3398  0.2724  0.8792
18576TIP3    H177219   2.892   2.176  13.873 -0.1378  0.1301 -0.1388
18576TIP3    H277220   3.041   2.202  13.868 -0.3449  1.4137 -0.0190
18577TIP3   OH277221   2.566   4.445  12.968 -0.6918 -0.6448 -0.0312
18577TIP3    H177222   2.491   4.505  12.970  0.0825  0.3423 -0.1224
18577TIP3    H277223   2.606   4.461  12.883  0.2868 -0.3229  0.4754
18578TIP3   OH277224   1.751   3.353  14.140 -0.6047  0.2572 -0.4198
18578TIP3    H177225   1.802   3.419  14.187  0.1178 -0.2630 -0.4584
18578TIP3    H277226   1.662   3.389  14.137 -0.8807 -0.0168  2.0679
18579TIP3   OH277227   5.697   4.018   3.838 -0.9440 -0.3269  0.7089
18579TIP3    H177228   5.775   3.963   3.845 -1.6362 -1.2438  1.4780
18579TIP3    H277229   5.729   4.107   3.853 -0.0753 -0.7221  1.2755
18580TIP3   OH277230   5.680   0.722   5.010  0.1792 -0.1815 -0.2121
18580TIP3    H177231   5.678   0.637   5.054  1.5603  0.0669  0.3815
18580TIP3    H277232   5.591   0.756   5.020 -0.3807 -1.5175 -0.4024
18581TIP3   OH277233   5.068   6.756   3.102 -0.2649  0.3467 -0.0801
18581TIP3    H177234   5.127   6.681   3.099 -0.5565  0.0095  1.4294
18581TIP3    H277235   5.001   6.737   3.037  0.9872  0.4993 -1.4694
18582TIP3   OH277236   2.529   0.193   0.905  0.2117  0.5410 -0.5904
18582TIP3    H177237   2.442   0.215   0.938 -1.0503 -1.4044 -2.3375
18582TIP3    H277238   2.518   0.190   0.810  1.6859 -1.5758 -0.7575
18583TIP3   OH277239   0.565   1.622  16.438  0.1973  0.4375 -0.0237
18583TIP3    H177240   0.495   1.580  16.489  2.3814 -1.0678  1.9536
18583TIP3    H277241   0.519   1.669  16.369 -2.8070  0.2314  1.6556
18584TIP3   OH277242   0.234   4.537   6.821 -0.5678  0.0226  0.2966
18584TIP3    H177243   0.280   4.616   6.852 -1.2035  0.1064  1.0682
18584TIP3    H277244   0.147   4.569   6.796 -0.2377 -0.1420 -1.1170
18585TIP3   OH277245   0.028   3.789  16.926 -0.0762  0.5623  0.4195
18585TIP3    H177246   0.123   3.790  16.930 -0.0958  0.1283  1.0590
18585TIP3    H277247   0.005   3.872  16.884  0.7205 -0.7324 -2.9622
18586TIP3   OH277248   2.252   2.120   0.853  0.3422 -0.1343  0.4875
18586TIP3    H177249   2.225   2.212   0.857  0.1879 -0.1101 -0.8124
18586TIP3    H277250   2.322   2.113   0.918 -1.1438  0.3591  2.2593
18587TIP3   OH277251   5.213   3.225   1.721 -0.4935  0.5917 -0.1874
18587TIP3    H177252   5.171   3.160   1.665  0.2133  0.3529 -0.4509
18587TIP3    H277253   5.294   3.183   1.750 -1.2021  0.3916  1.6718
18588TIP3   OH277254   5.298   4.561   1.408  0.1709  0.8305  0.0693
18588TIP3    H177255   5.238   4.615   1.358  0.5394  1.9754  0.8424
18588TIP3    H277256   5.385   4.597   1.389  0.5802 -0.4173 -0.5585
18589TIP3   OH277257   4.477   3.970  16.551 -0.1548  0.1586  0.2558
18589TIP3    H177258   4.512   3.881  16.561  0.5253  0.3997  0.0469
18589TIP3    H277259   4.484   3.989  16.458 -0.0142  0.5465  0.3439
18590TIP3   OH277260   4.130   4.759  15.255 -0.0651 -0.0770 -0.1735
18590TIP3    H177261   4.120   4.777  15.162  0.5843 -1.4528 -0.5391
18590TIP3    H277262   4.074   4.684  15.272  0.7773 -0.6333  0.2483
18591TIP3   OH277263   4.433   1.099   4.021  0.0967 -0.1202 -0.0106
18591TIP3    H177264   4.355   1.080   3.969 -0.8376  1.1279  0.8744
18591TIP3    H277265   4.497   1.129   3.956 -1.1508  1.7356 -0.4788
18592TIP3   OH277266   0.172   1.494  11.577  0.3448  0.5045  0.3242
18592TIP3    H177267   0.145   1.577  11.537  0.8652  0.4611 -0.1268
18592TIP3    H277268   0.160   1.429  11.507  0.1390  0.2293  0.6092
18593TIP3   OH277269   4.698   1.534   4.592 -0.3347  0.3941 -0.2794
18593TIP3    H177270   4.694   1.534   4.497 -0.9198 -0.6890 -0.2625
18593TIP3    H277271   4.771   1.477   4.614 -0.9320 -0.3030 -0.0654
18594TIP3   OH277272   0.577   1.199   5.294  0.9966  0.6172 -0.2353
18594TIP3    H177273   0.596   1.268   5.357 -0.3150  1.0629 -0.2975
18594TIP3    H277274   0.577   1.118   5.346  0.5329  0.9133  0.2346
18595TIP3   OH277275   3.979   3.774   2.860  0.3170 -0.4522 -0.6358
18595TIP3    H177276   3.955   3.800   2.771  1.1752 -0.5455 -0.9027
18595TIP3    H277277   3.927   3.695   2.878  0.4500 -0.6708 -1.2114
18596TIP3   OH277278   0.688   0.296   1.802  0.3917 -0.1660  0.4328
18596TIP3    H177279   0.639   0.223   1.763  0.3664  0.6186 -1.0941
18596TIP3    H277280   0.778   0.264   1.809  0.6864  0.0659 -1.5598
18597TIP3   OH277281   5.830   4.542  15.606  0.1396 -0.0268  0.0529
18597TIP3    H177282   5.743   4.533  15.644 -0.5436  1.2395 -1.1035
18597TIP3    H277283   5.820   4.512  15.516  0.8354  0.3303 -0.1525
18598TIP3   OH277284   0.326   3.321  11.392 -0.7165  0.5271 -0.5547
18598TIP3    H177285   0.325   3.372  11.311 -2.6662  2.1961  0.4368
18598TIP3    H277286   0.245   3.270  11.388 -0.7699  0.5417  0.2862
18599TIP3   OH277287   5.964   4.394   5.213 -0.0755 -0.0710  0.3404
18599TIP3    H177288   5.972   4.335   5.288  1.9953  0.8266  0.8750
18599TIP3    H277289   5.953   4.481   5.252 -1.0863  0.1756 -0.4378
18600TIP3   OH277290   6.120   5.570  15.400  0.2254  0.0395  0.3708
18600TIP3    H177291   6.042   5.615  15.368 -1.6995 -2.6611  0.9585
18600TIP3    H277292   6.147   5.620  15.477 -0.4908  1.3989 -0.2266
18601TIP3   OH277293   0.737   6.478   3.544 -0.1156 -1.2298 -0.1115
18601TIP3    H177294   0.662   6.534   3.565 -1.6491 -1.9016 -3.1878
18601TIP3    H277295   0.813   6.535   3.556 -1.3037  0.2815  0.6337
18602TIP3   OH277296   1.340   1.823  16.753 -0.6968 -0.2252  0.4878
18602TIP3    H177297   1.307   1.842  16.665 -0.9225 -0.8424  0.4304
18602TIP3    H277298   1.424   1.780  16.739 -1.4640 -1.8015  0.4939
18603TIP3   OH277299   1.637   1.648   6.111 -0.0465 -0.0463  0.3491
18603TIP3    H177300   1.550   1.608   6.122  0.4316 -1.0503  0.6652
18603TIP3    H277301   1.697   1.582   6.145  0.7949  0.9566  0.8447
18604TIP3   OH277302   2.989   4.826   3.995 -0.7898  0.8404  0.0308
18604TIP3    H177303   2.906   4.840   3.950 -0.1280 -0.4754 -1.7461
18604TIP3    H277304   3.028   4.913   4.001 -0.5162  1.0245 -2.8574
18605TIP3   OH277305   6.048   1.634  14.085 -0.0732 -0.3082 -0.4559
18605TIP3    H177306   6.124   1.588  14.122 -0.0562 -0.0741 -0.1999
18605TIP3    H277307   6.011   1.571  14.023 -1.1770 -1.4713  1.2670
18606TIP3   OH277308   4.926   4.855   1.424 -0.4840  0.1581 -0.4247
18606TIP3    H177309   5.016   4.823   1.423 -0.2974  0.5573  0.9435
18606TIP3    H277310   4.903   4.860   1.517 -2.3014 -0.9607 -0.7451
18607TIP3   OH277311   3.558   5.003  13.611 -0.2466 -0.4647 -0.3973
18607TIP3    H177312   3.514   5.080  13.648 -1.2596 -1.2782  0.1301
18607TIP3    H277313   3.501   4.930  13.632  0.1028 -1.2249 -1.9289
18608TIP3   OH277314   1.292   6.296  11.926 -0.1440 -0.2712  0.0896
18608TIP3    H177315   1.332   6.232  11.985  1.3939 -1.6252 -2.2451
18608TIP3    H277316   1.322   6.270  11.838 -2.8888  1.1592 -1.4262
18609TIP3   OH277317   5.169   0.673  16.676  0.2532 -0.2491  0.4458
18609TIP3    H177318   5.105   0.679  16.605  0.3522 -0.6983  0.3206
18609TIP3    H277319   5.150   0.750  16.731 -2.1009 -1.6969  1.8428
18610TIP3   OH277320   5.705   1.869   5.409 -0.0747  0.0899 -0.3866
18610TIP3    H177321   5.743   1.790   5.448  1.6241 -0.1811 -2.3941
18610TIP3    H277322   5.773   1.935   5.418 -1.5406  1.4592  1.4104
18611TIP3   OH277323   0.190   2.969  15.254  1.0596  0.2464  0.0484
18611TIP3    H177324   0.163   2.950  15.165  1.1225  0.9471 -0.1266
18611TIP3    H277325   0.149   3.053  15.275  0.5467 -0.1945  0.8972
18612TIP3   OH277326   1.816   0.831   2.343 -0.1033  0.0076  0.3374
18612TIP3    H177327   1.745   0.864   2.397 -0.0787 -0.8100  0.8750
18612TIP3    H277328   1.774   0.779   2.275 -0.0461 -0.1947  0.4549
18613TIP3   OH277329   6.633   0.120   4.457 -0.1275 -0.0475 -0.5233
18613TIP3    H177330   6.618   0.098   4.548 -0.7460 -0.8089 -0.8001
18613TIP3    H277331   6.627   0.216   4.455  0.3157  0.0070  0.2946
18614TIP3   OH277332   4.493   6.702  11.820 -0.0729 -0.6093  0.4126
18614TIP3    H177333   4.398   6.709  11.831 -0.2733 -0.6180 -1.0340
18614TIP3    H277334   4.530   6.753  11.892 -1.1646 -0.8821  1.1862
18615TIP3   OH277335   0.761   4.364  12.192  0.2785 -0.6098 -0.1506
18615TIP3    H177336   0.733   4.274  12.208  0.2538 -0.7749 -1.0498
18615TIP3    H277337   0.682   4.408  12.159  0.2343 -0.1980  0.4901
18616TIP3   OH277338   0.451   2.077   5.864 -0.9505 -0.2806 -0.3910
18616TIP3    H177339   0.461   2.160   5.818 -0.5371  0.1676  0.4727
18616TIP3    H277340   0.369   2.086   5.912 -0.7340 -0.2359 -0.0274
18617TIP3   OH277341   2.177   3.184  11.262 -0.2785  0.3329  0.1894
18617TIP3    H177342   2.220   3.245  11.321  0.8867  0.5168 -0.8145
18617TIP3    H277343   2.203   3.097  11.293  1.3739  0.4525 -0.7767
18618TIP3   OH277344   5.427   4.182   0.938 -0.8580 -0.1756  0.5334
18618TIP3    H177345   5.381   4.251   0.888  4.1110  1.2791 -2.8042
18618TIP3    H277346   5.425   4.106   0.880  1.0863  0.0661  0.0840
18619TIP3   OH277347   3.043   1.763  15.812 -0.4933  0.2703 -0.1290
18619TIP3    H177348   3.066   1.835  15.870  1.7349  1.0060 -1.7887
18619TIP3    H277349   2.982   1.800  15.750 -1.1921  0.0573  0.4153
18620TIP3   OH277350   1.570   1.828  14.614  0.0745 -0.5949 -0.3174
18620TIP3    H177351   1.596   1.743  14.577  3.6120 -0.0049  0.4495
18620TIP3    H277352   1.566   1.813  14.708  0.2071 -0.0388 -0.2229
18621TIP3   OH277353   0.937   2.257   2.370 -0.0239  0.4019 -0.2884
18621TIP3    H177354   0.893   2.210   2.300 -0.3565 -0.1360  0.2669
18621TIP3    H277355   0.877   2.326   2.396 -0.1965  0.1778 -0.0832
18622TIP3   OH277356   1.960   3.764  16.315 -0.0231  0.3745 -0.0920
18622TIP3    H177357   1.883   3.709  16.300 -0.9399  2.1640 -2.5451
18622TIP3    H277358   2.029   3.702  16.341 -1.7885 -1.5048  0.3229
18623TIP3   OH277359   4.748   0.250  16.398  0.0265  0.0543 -0.1931
18623TIP3    H177360   4.835   0.290  16.396  0.5106 -0.9569 -2.7363
18623TIP3    H277361   4.702   0.290  16.325 -0.2651 -2.2156 -1.3413
18624TIP3   OH277362   0.658   5.966   3.321 -0.3219  0.1501  0.2869
18624TIP3    H177363   0.690   5.880   3.294 -1.7539 -1.6292  3.6932
18624TIP3    H277364   0.675   5.970   3.415 -3.1543  2.2687  0.8422
18625TIP3   OH277365   1.366   6.605  14.502 -0.1977  0.2388  0.6849
18625TIP3    H177366   1.306   6.637  14.434  0.1007 -2.7464 -1.1917
18625TIP3    H277367   1.323   6.627  14.585 -1.7198  2.0190 -0.4925
18626TIP3   OH277368   5.984   1.359  12.016  0.4572 -0.1547 -0.2597
18626TIP3    H177369   5.986   1.445  11.974  0.9933 -0.1575 -0.2495
18626TIP3    H277370   5.949   1.376  12.104  1.3313  0.1870  0.0340
18627TIP3   OH277371   3.708   3.692  12.508  0.7202  0.0175 -0.7841
18627TIP3    H177372   3.798   3.675  12.535  0.7333 -0.2426 -0.9876
18627TIP3    H277373   3.686   3.619  12.450  0.1385 -0.3201 -0.1593
18628TIP3   OH277374   0.466   1.116   1.360  0.2335  0.0490 -0.0948
18628TIP3    H177375   0.496   1.062   1.287  1.0128  1.7895 -1.1288
18628TIP3    H277376   0.371   1.121   1.349  0.2445 -0.4491 -0.4526
18629TIP3   OH277377   3.439   1.090  10.309  0.6540 -0.2096 -0.0759
18629TIP3    H177378   3.345   1.098  10.325  0.7640 -0.0029  0.4861
18629TIP3    H277379   3.466   1.013  10.361  0.5772 -1.0277 -1.2070
18630TIP3   OH277380   6.450   1.751   5.685 -0.1384 -0.8451  0.3425
18630TIP3    H177381   6.505   1.760   5.607  0.9159 -0.6254  1.0971
18630TIP3    H277382   6.431   1.840   5.712 -1.8104 -0.8960 -0.5308
18631TIP3   OH277383   0.695   1.317   6.501 -0.1681 -0.6786 -0.0121
18631TIP3    H177384   0.636   1.248   6.470 -1.1411  0.3062 -0.4082
18631TIP3    H277385   0.643   1.397   6.497  0.7515 -0.0017  1.0230
18632TIP3   OH277386   3.367   3.165   0.572 -0.2394 -0.5311 -0.0391
18632TIP3    H177387   3.372   3.069   0.579  0.0138 -0.7519 -2.2614
18632TIP3    H277388   3.457   3.194   0.587 -0.0943 -0.7644 -0.4176
18633TIP3   OH277389   1.045   3.359   6.144 -0.5004  0.8459 -0.3739
18633TIP3    H177390   1.082   3.379   6.057 -0.1031  1.1492 -0.1420
18633TIP3    H277391   0.985   3.287   6.128 -0.3842  0.8552 -0.8960
18634TIP3   OH277392   2.170   1.924  12.412 -0.1263  0.3011 -0.1096
18634TIP3    H177393   2.213   1.901  12.329  0.7699  0.4324  0.3083
18634TIP3    H277394   2.231   1.984  12.455 -0.5205  0.1317  0.7071
18635TIP3   OH277395   0.563   3.202   2.387  0.0971  0.1558  0.8096
18635TIP3    H177396   0.523   3.164   2.309 -0.3642  3.3382 -0.6727
18635TIP3    H277397   0.494   3.200   2.453  0.1194 -1.5495  0.8061
18636TIP3   OH277398   6.321   2.949  13.999 -0.3820  0.3147 -0.0235
18636TIP3    H177399   6.280   2.876  14.045  0.2953 -0.4034 -0.5140
18636TIP3    H277400   6.386   2.907  13.942  0.0325  1.3057 -0.3029
18637TIP3   OH277401   3.211   2.796  15.566  0.1526 -0.6346  0.1943
18637TIP3    H177402   3.159   2.868  15.531 -0.6447 -1.5467 -0.5787
18637TIP3    H277403   3.174   2.718  15.524  0.8419 -1.5126  1.1757
18638TIP3   OH277404   6.153   3.929  14.391  0.7796 -0.3856  0.5311
18638TIP3    H177405   6.196   3.948  14.308  0.9542  1.5301  1.0214
18638TIP3    H277406   6.135   3.835  14.388 -0.6135 -0.1306 -2.3175
18639TIP3   OH277407   5.174   5.058  16.176 -0.0713  0.1094  0.1626
18639TIP3    H177408   5.239   5.121  16.145 -0.0473 -0.3227 -0.6794
18639TIP3    H277409   5.159   5.083  16.268 -0.9913  2.1173 -0.4847
18640TIP3   OH277410   3.962   6.642  12.820  0.3526 -0.2505  0.0859
18640TIP3    H177411   3.936   6.649  12.728  1.4358 -2.2603 -0.4200
18640TIP3    H277412   3.959   6.549  12.839  0.9133  0.0533  1.8892
18641TIP3   OH277413   0.842   4.501   1.666  0.4170  0.8189 -0.7597
18641TIP3    H177414   0.776   4.518   1.734  1.4927 -2.3580  1.2888
18641TIP3    H277415   0.805   4.541   1.587 -1.1326  4.2989  1.4511
18642TIP3   OH277416   6.068   3.453  14.182  0.5378  0.2999 -0.3183
18642TIP3    H177417   5.972   3.448  14.182  0.4633  1.5452 -1.1065
18642TIP3    H277418   6.093   3.434  14.092  1.0149  0.3452 -0.1952
18643TIP3   OH277419   5.672   3.709   2.450 -0.5220  0.0193 -0.0568
18643TIP3    H177420   5.625   3.790   2.428 -2.0967 -0.2578  1.9801
18643TIP3    H277421   5.620   3.639   2.411  0.2639 -0.0947 -0.9277
18644TIP3   OH277422   4.585   1.559   4.284  0.4897 -0.1390  0.0766
18644TIP3    H177423   4.565   1.470   4.257  0.7840 -0.2667  0.2825
18644TIP3    H277424   4.655   1.587   4.224 -0.4179  0.3770 -0.7747
18645TIP3   OH277425   4.064   4.071   1.523  0.2914  0.6960 -0.3035
18645TIP3    H177426   4.050   3.986   1.566  0.4149  0.8102 -0.0356
18645TIP3    H277427   3.993   4.126   1.557  0.5067  0.8450 -0.0856
18646TIP3   OH277428   1.821   0.464   2.418 -0.2095 -0.2632  0.2109
18646TIP3    H177429   1.875   0.543   2.411  1.2198 -1.2692 -0.5573
18646TIP3    H277430   1.734   0.492   2.388  0.1025  1.1461  0.5205
18647TIP3   OH277431   4.407   4.536   5.228 -0.7502  0.9174 -0.1874
18647TIP3    H177432   4.387   4.451   5.266  0.9348  0.7361  0.3876
18647TIP3    H277433   4.449   4.585   5.299 -0.9245  1.9378 -0.7549
18648TIP3   OH277434   5.065   2.212  13.986 -0.0101 -0.0800 -0.3107
18648TIP3    H177435   5.084   2.156  13.911  1.8566 -1.0200  0.8025
18648TIP3    H277436   5.144   2.264  13.997 -0.6590  0.7771  0.4066
18649TIP3   OH277437   4.701   2.921  13.523  0.2228 -0.4919  0.2940
18649TIP3    H177438   4.649   2.841  13.518 -0.2198 -0.3347  1.8018
18649TIP3    H277439   4.675   2.961  13.606  1.1660  0.7111  0.0378
18650TIP3   OH277440   5.308   0.050   5.362  0.0552  0.2250 -0.1591
18650TIP3    H177441   5.315  -0.045   5.371 -0.1729  0.1337 -0.9633
18650TIP3    H277442   5.322   0.083   5.451 -2.1512 -0.6754  0.5834
18651TIP3   OH277443   5.425   6.012   5.676 -0.2601 -0.3246 -0.0077
18651TIP3    H177444   5.466   6.038   5.593 -0.6772  1.3220  0.2625
18651TIP3    H277445   5.495   6.020   5.741 -0.5832  0.9878  0.2048
18652TIP3   OH277446   1.417   5.852  15.836 -0.5639 -0.1082  0.3862
18652TIP3    H177447   1.442   5.819  15.750  0.5433  1.7041 -0.0323
18652TIP3    H277448   1.372   5.778  15.877 -2.7956 -0.5221 -2.4042
18653TIP3   OH277449   1.537   6.100   4.590 -0.5987  0.2205  0.6115
18653TIP3    H177450   1.485   6.137   4.661 -1.3298  0.2143  0.0914
18653TIP3    H277451   1.485   6.114   4.511  0.4220  0.6769 -0.0115
18654TIP3   OH277452   4.107   3.453  15.451 -0.3234  0.0812  0.0515
18654TIP3    H177453   4.193   3.457  15.410 -0.0937 -0.1282  0.4943
18654TIP3    H277454   4.050   3.411  15.386  0.2629 -1.1633  0.3136
18655TIP3   OH277455   3.663   6.713   3.466 -0.4449 -0.5920 -0.0550
18655TIP3    H177456   3.668   6.623   3.499  2.0421 -0.4607  0.0569
18655TIP3    H277457   3.639   6.703   3.374  0.5835 -1.4510 -0.2532
18656TIP3   OH277458   4.764   4.159   2.786  0.3685  0.8433  0.1085
18656TIP3    H177459   4.670   4.179   2.784  0.6145  2.2057  0.9713
18656TIP3    H277460   4.769   4.066   2.765 -1.2609  0.5266  0.9506
18657TIP3   OH277461   5.709   0.100  15.231  0.7512 -0.0985  0.0289
18657TIP3    H177462   5.698   0.032  15.298  0.4674 -2.2501 -2.0666
18657TIP3    H277463   5.640   0.081  15.167  1.0902  1.8032 -0.9564
18658TIP3   OH277464   4.842   0.476   5.306 -0.2477  0.0777 -0.3559
18658TIP3    H177465   4.905   0.526   5.254  3.3696 -1.8749  1.7227
18658TIP3    H277466   4.842   0.389   5.266  1.4594 -1.0167  1.7242
18659TIP3   OH277467   1.716   4.968  13.870  0.3920 -0.2349  0.1892
18659TIP3    H177468   1.694   4.931  13.784  2.3061 -2.5221  0.5925
18659TIP3    H277469   1.799   4.927  13.893  0.9552  1.8928  2.2632
18660TIP3   OH277470   6.627   0.401  12.259 -0.1028 -0.1120  0.5095
18660TIP3    H177471   6.682   0.356  12.324  0.9277 -0.6873 -0.7299
18660TIP3    H277472   6.684   0.467  12.220 -0.5027 -0.2223 -0.2880
18661TIP3   OH277473   2.486   4.167  16.845 -0.4432 -0.1525 -0.7933
18661TIP3    H177474   2.488   4.103  16.916 -1.8075 -1.7470 -2.0988
18661TIP3    H277475   2.578   4.178  16.820 -0.0320 -0.2823  0.5633
18662TIP3   OH277476   5.176   3.775  17.177  0.4553 -0.3390  0.2342
18662TIP3    H177477   5.151   3.729  17.258  0.5832 -1.0426 -0.1234
18662TIP3    H277478   5.162   3.867  17.198 -1.0293 -0.5963  0.5549
18663TIP3   OH277479   4.461   2.895  11.477 -0.3373 -0.2024  0.3650
18663TIP3    H177480   4.481   2.808  11.510  0.6401  0.2872  1.1026
18663TIP3    H277481   4.485   2.954  11.548 -1.0112  0.6703 -0.1142
18664TIP3   OH277482   3.084   5.981   5.448  0.3543 -0.1149 -0.2978
18664TIP3    H177483   2.995   5.968   5.417  0.1190 -3.5623  1.3041
18664TIP3    H277484   3.074   6.022   5.534  0.3171 -0.5141 -0.1122
18665TIP3   OH277485   2.966   4.052  15.569 -0.1253 -0.0078 -0.5992
18665TIP3    H177486   2.956   3.971  15.519 -0.9742  0.1962 -0.7866
18665TIP3    H277487   2.903   4.112  15.529  0.3776  0.6924 -0.3551
18666TIP3   OH277488   3.043   3.482  15.262  0.2112 -0.1371 -0.4578
18666TIP3    H177489   3.096   3.451  15.336 -2.3454  0.5572  1.7977
18666TIP3    H277490   3.033   3.576  15.277  1.4311  0.4883 -2.9744
18667TIP3   OH277491   6.544   2.813  11.351  0.1076  0.5092  0.4778
18667TIP3    H177492   6.491   2.779  11.279 -2.2837  0.2133  2.2688
18667TIP3    H277493   6.524   2.907  11.352  0.4323  0.5779  0.5232
18668TIP3   OH277494   6.426   3.484  13.389  0.3034  0.0226  0.2096
18668TIP3    H177495   6.347   3.537  13.381  1.2605  1.3054 -1.5557
18668TIP3    H277496   6.443   3.479  13.483 -0.3736  2.0726  0.4844
18669TIP3   OH277497   4.219   6.454  10.370 -0.1494  0.0333 -0.1130
18669TIP3    H177498   4.195   6.524  10.310  0.0037 -0.4264 -0.7239
18669TIP3    H277499   4.255   6.385  10.314  1.9625  0.3998  0.6691
18670TIP3   OH277500   2.095   5.970  13.405  0.6225  0.2379  0.1020
18670TIP3    H177501   2.012   5.931  13.378  0.6786  0.7427 -0.8254
18670TIP3    H277502   2.090   5.971  13.501 -1.0920  1.6034  0.0610
18671TIP3   OH277503   0.021   6.664   2.999 -0.0900 -0.2830 -0.2727
18671TIP3    H177504   0.003   6.578   3.038 -1.2594  0.0612 -0.0268
18671TIP3    H277505   0.027   6.646   2.905 -0.0264 -0.6806 -0.1980
18672TIP3   OH277506   2.217   2.668  11.397  0.5102 -0.4088 -0.3256
18672TIP3    H177507   2.199   2.656  11.303  1.4203 -1.6018 -0.3713
18672TIP3    H277508   2.142   2.719  11.429 -0.8026 -1.6106 -1.3170
18673TIP3   OH277509   1.770   3.720   6.893 -0.1519  0.2908  0.3818
18673TIP3    H177510   1.861   3.696   6.908 -0.2453 -0.6011 -0.4045
18673TIP3    H277511   1.723   3.637   6.887 -0.6366  0.6449 -1.4380
18674TIP3   OH277512   4.172   1.949  12.337 -0.0192 -0.1932 -0.0047
18674TIP3    H177513   4.083   1.948  12.303 -0.6806  2.5791  1.3423
18674TIP3    H277514   4.185   1.863  12.375 -2.2277 -0.5762 -0.0028
18675TIP3   OH277515   2.202   4.022   0.208  0.3100 -0.5406  0.9097
18675TIP3    H177516   2.211   4.092   0.272  0.0489 -0.0388  0.4117
18675TIP3    H277517   2.164   4.065   0.131  1.6547 -0.8782  0.0144
18676TIP3   OH277518   3.758   3.204   1.818  0.2026  0.6039  0.6481
18676TIP3    H177519   3.724   3.245   1.897 -1.3718 -1.6540  1.2199
18676TIP3    H277520   3.842   3.167   1.845  0.0897  0.6181  1.0301
18677TIP3   OH277521   2.299   0.240   3.169  0.7289  0.9336  0.0125
18677TIP3    H177522   2.295   0.219   3.262  0.5136  1.7207  0.1895
18677TIP3    H277523   2.220   0.200   3.132  0.4458  1.2201  0.3006
18678TIP3   OH277524   0.265   2.655   5.865  0.0471  0.5400 -0.6081
18678TIP3    H177525   0.305   2.720   5.922 -1.2237  0.0335  0.9459
18678TIP3    H277526   0.174   2.684   5.856  0.5550  1.5248 -3.8201
18679TIP3   OH277527   0.263   3.692   2.382 -0.3577 -0.3088  0.5659
18679TIP3    H177528   0.326   3.692   2.310 -1.0306  1.4743 -0.0906
18679TIP3    H277529   0.198   3.626   2.358  0.0898 -0.6073  0.1670
18680TIP3   OH277530   1.874   5.997  16.604 -0.0693  0.0829 -0.4131
18680TIP3    H177531   1.950   6.034  16.559  0.9514 -0.7071  0.6015
18680TIP3    H277532   1.904   5.912  16.635 -1.6504 -0.6362 -0.7335
18681TIP3   OH277533   0.264   4.365   6.070  0.2931  0.0642  0.1699
18681TIP3    H177534   0.344   4.351   6.019  0.7847 -0.5983  1.1082
18681TIP3    H277535   0.208   4.291   6.048 -0.8625  1.4404 -1.8955
18682TIP3   OH277536   6.097   1.379   5.430 -0.3053  0.3721  0.3977
18682TIP3    H177537   6.148   1.436   5.372  0.8538 -1.3435 -0.3645
18682TIP3    H277538   6.120   1.407   5.518 -0.4984  1.6857  0.0469
18683TIP3   OH277539   0.641   6.729   4.719 -0.3942 -0.4165 -0.9619
18683TIP3    H177540   0.698   6.667   4.765 -1.3858  0.9244  2.4048
18683TIP3    H277541   0.560   6.681   4.704 -0.5619 -0.4749  0.0680
18684TIP3   OH277542   0.276   6.381   2.497 -0.0560 -0.4970  0.4065
18684TIP3    H177543   0.206   6.368   2.561 -0.1903  1.3441  0.6842
18684TIP3    H277544   0.233   6.420   2.422  0.5604  0.0268  0.3172
18685TIP3   OH277545   5.264   3.166   0.142  0.1620 -0.1616  0.2425
18685TIP3    H177546   5.209   3.098   0.181 -0.0608 -0.2305 -0.1778
18685TIP3    H277547   5.335   3.118   0.099 -0.3065 -0.1717 -0.5402
18686TIP3   OH277548   0.208   2.148   1.682 -0.1080  0.6446 -0.1520
18686TIP3    H177549   0.168   2.111   1.603  0.7657  1.2244 -0.8860
18686TIP3    H277550   0.151   2.119   1.753 -0.6170 -0.3290 -0.9313
18687TIP3   OH277551   6.079   6.389   2.619  0.0839 -0.3430 -0.1036
18687TIP3    H177552   6.109   6.452   2.554 -1.4527  1.0554  0.4660
18687TIP3    H277553   5.984   6.395   2.616 -0.0462 -1.2316  1.3313
18688TIP3   OH277554   3.244   0.129   1.849 -0.9283 -0.2745 -0.5535
18688TIP3    H177555   3.177   0.183   1.807 -1.8040 -0.5965  0.3718
18688TIP3    H277556   3.276   0.182   1.921 -1.0158 -0.5620 -0.3003
18689TIP3   OH277557   5.034   5.294  13.460 -0.1193 -0.3061  0.2378
18689TIP3    H177558   5.054   5.380  13.498  1.0151 -0.8425  0.8861
18689TIP3    H277559   4.958   5.311  13.404  1.6646  1.6983 -1.7976
18690TIP3   OH277560   3.202   5.566  11.619  0.4859  0.3521  0.5093
18690TIP3    H177561   3.247   5.624  11.558 -1.2930  0.1849 -1.0538
18690TIP3    H277562   3.118   5.609  11.636  1.4871  1.2041  4.1874
18691TIP3   OH277563   3.205   3.227   1.234 -0.1903 -0.3550 -0.1561
18691TIP3    H177564   3.215   3.136   1.261 -0.9865 -0.6970 -0.9344
18691TIP3    H277565   3.176   3.273   1.313  0.3134 -0.7546  0.2666
18692TIP3   OH277566   0.040   5.897   5.851  0.3721 -0.3296  0.0691
18692TIP3    H177567   0.004   5.918   5.765  0.1122 -1.7271 -0.1931
18692TIP3    H277568   0.061   5.982   5.890  2.9571  0.2937 -2.3782
18693TIP3   OH277569   3.020   4.985  12.549 -0.2512  0.0625 -0.1369
18693TIP3    H177570   3.048   4.894  12.559 -0.6315  0.0380  0.7863
18693TIP3    H277571   3.066   5.016  12.471  1.5307 -0.2881  0.7264
18694TIP3   OH277572   6.081   1.520  14.711  0.4284  0.3351  0.1449
18694TIP3    H177573   6.096   1.448  14.650  0.5618  1.1476 -0.8065
18694TIP3    H277574   6.024   1.483  14.778  1.1317 -0.8679  0.0979
18695TIP3   OH277575   5.830   4.268  14.607  0.0538 -0.3822 -0.4230
18695TIP3    H177576   5.861   4.177  14.610 -1.1022 -0.7756  0.5111
18695TIP3    H277577   5.824   4.289  14.514  1.4890 -0.8443 -0.6376
18696TIP3   OH277578   2.677   0.976  10.938  0.0873  0.8218 -1.0529
18696TIP3    H177579   2.772   0.982  10.929  0.1013  1.0433 -0.7788
18696TIP3    H277580   2.652   0.905  10.880  0.5960 -0.3137  0.0628
18697TIP3   OH277581   5.116   4.863   3.395 -0.6355 -0.1786  0.6140
18697TIP3    H177582   5.057   4.789   3.411 -0.4203 -0.7541 -1.0251
18697TIP3    H277583   5.073   4.912   3.326  1.0617 -0.9737 -1.1000
18698TIP3   OH277584   0.572   6.641   0.332  0.2293 -0.2236  0.3298
18698TIP3    H177585   0.505   6.574   0.346 -0.1942  0.3083  0.9270
18698TIP3    H277586   0.641   6.619   0.395 -0.9717  1.2486  2.2667
18699TIP3   OH277587   2.510   4.118   2.903  0.1100 -0.4751  0.4677
18699TIP3    H177588   2.503   4.211   2.879 -2.5469 -0.9027 -0.7150
18699TIP3    H277589   2.558   4.079   2.830  3.2046  0.1946  1.9604
18700TIP3   OH277590   0.644   5.093  13.667 -0.2126  0.0534  0.7586
18700TIP3    H177591   0.688   5.170  13.704  0.5535  0.1857 -0.3787
18700TIP3    H277592   0.590   5.060  13.739 -1.5421  2.3635  0.9161
18701TIP3   OH277593   4.803   1.708   2.659  0.5610 -0.0295  0.4382
18701TIP3    H177594   4.784   1.802   2.657 -0.2417 -0.1724 -1.7623
18701TIP3    H277595   4.838   1.692   2.747 -2.1805  1.7337  2.0130
18702TIP3   OH277596   5.241   0.257  13.025  0.5580 -0.1902  0.2154
18702TIP3    H177597   5.158   0.209  13.020 -0.0981  0.8697  0.5809
18702TIP3    H277598   5.234   0.323  12.956  1.5967 -0.8194 -0.5128
18703TIP3   OH277599   5.694   1.004   4.902  0.5448  0.2010  0.1117
18703TIP3    H177600   5.613   1.003   4.850 -0.2191  0.3209  1.2496
18703TIP3    H277601   5.720   0.912   4.908  0.4123  0.1464 -0.1318
18704TIP3   OH277602   3.894   5.253   5.211 -0.0083 -0.0056  0.5241
18704TIP3    H177603   3.896   5.292   5.124  2.1754 -0.2157  0.4398
18704TIP3    H277604   3.913   5.160   5.196 -0.0736 -0.1316  1.1879
18705TIP3   OH277605   4.566   0.875   4.146  0.3863  0.5020 -0.0011
18705TIP3    H177606   4.537   0.955   4.102  0.1635  1.5692  1.9817
18705TIP3    H277607   4.660   0.872   4.131  0.5993  1.8388  0.9555
18706TIP3   OH277608   6.113   0.776   4.291  0.0150 -0.1067 -0.5296
18706TIP3    H177609   6.197   0.821   4.304  0.7414 -1.0073 -1.8130
18706TIP3    H277610   6.095   0.734   4.374  0.4165  0.7695  0.0198
18707TIP3   OH277611   5.462   0.799  10.732  0.2995  0.2780  0.4213
18707TIP3    H177612   5.366   0.798  10.740 -0.2371  3.8007 -2.6427
18707TIP3    H277613   5.492   0.852  10.806  0.1163 -1.9293  2.1515
18708TIP3   OH277614   0.682   1.673  14.966 -0.2982  0.1217  0.3792
18708TIP3    H177615   0.731   1.648  15.044  0.8877 -2.6880 -1.1155
18708TIP3    H277616   0.733   1.745  14.928 -0.3989  0.9054  1.6573
18709TIP3   OH277617   0.671   2.201  13.562  0.5475 -0.0537 -0.2504
18709TIP3    H177618   0.691   2.294  13.576  1.1937 -0.1748 -0.3402
18709TIP3    H277619   0.724   2.177  13.486 -0.3267 -0.2670 -0.8054
18710TIP3   OH277620   5.566   2.136   6.013 -0.2281  0.1328  0.1806
18710TIP3    H177621   5.618   2.216   6.013  0.8701 -0.5179 -1.8548
18710TIP3    H277622   5.628   2.067   6.037 -0.3688 -0.5075 -1.1992
18711TIP3   OH277623   6.275   5.798  13.830 -0.2653  0.0863 -0.0047
18711TIP3    H177624   6.352   5.826  13.781  3.1682 -1.9205  3.6670
18711TIP3    H277625   6.262   5.706  13.804 -0.6982  0.0759  0.2362
18712TIP3   OH277626   5.681   2.670   4.364 -0.1270  0.8965 -0.1065
18712TIP3    H177627   5.766   2.632   4.340  0.2021  1.3571  0.3094
18712TIP3    H277628   5.701   2.730   4.435 -0.8958  0.5676  0.3987
18713TIP3   OH277629   4.671   5.139  16.312  0.5127 -0.2841  0.5920
18713TIP3    H177630   4.680   5.144  16.407 -0.1704 -2.2406  0.7927
18713TIP3    H277631   4.577   5.146  16.296  0.3640 -2.4398  0.2854
18714TIP3   OH277632   0.382   4.436   6.609  0.1586 -0.1235 -0.5812
18714TIP3    H177633   0.467   4.400   6.634 -0.8720 -1.2524  1.5160
18714TIP3    H277634   0.341   4.461   6.691 -1.2601  1.1253 -1.6123
18715TIP3   OH277635   4.338   4.300   0.886  0.2291  0.5947 -0.1404
18715TIP3    H177636   4.338   4.313   0.981  0.9455 -0.1699 -0.0252
18715TIP3    H277637   4.253   4.259   0.868 -0.1265  1.2105  0.0893
18716TIP3   OH277638   1.165   3.152   6.715  0.4823 -0.0292 -0.0963
18716TIP3    H177639   1.218   3.072   6.713 -0.3348 -0.5773 -1.6745
18716TIP3    H277640   1.075   3.121   6.716  0.0861  0.8862  3.2451
18717TIP3   OH277641   5.901   6.488  12.019 -0.1408  0.1860  0.9175
18717TIP3    H177642   5.833   6.427  12.048 -0.5438  0.9603  1.6228
18717TIP3    H277643   5.969   6.483  12.086  1.1355 -1.5280 -0.4033
18718TIP3   OH277644   1.167   0.303  14.634  0.1362 -0.6130 -0.3693
18718TIP3    H177645   1.101   0.260  14.689 -0.3232 -1.0177 -1.2186
18718TIP3    H277646   1.249   0.259  14.657  0.0794 -0.2680  0.5267
18719TIP3   OH277647   6.227   4.493  15.531 -0.0650  0.1767  0.0291
18719TIP3    H177648   6.318   4.487  15.562 -0.3365 -1.1733  0.6588
18719TIP3    H277649   6.235   4.507  15.436  0.8199 -0.8459 -0.0712
18720TIP3   OH277650   6.768   6.283  12.514 -0.1387 -0.0307 -0.8040
18720TIP3    H177651   6.833   6.312  12.577 -0.2652  0.4526 -0.8871
18720TIP3    H277652   6.695   6.251  12.567  0.3048 -0.9020 -0.7136
18721TIP3   OH277653   3.642   0.171   0.991 -0.4186 -0.3360  0.0599
18721TIP3    H177654   3.641   0.191   1.085 -0.7571 -0.8691  0.1760
18721TIP3    H277655   3.566   0.115   0.978  0.2558 -1.2003 -0.3178
18722TIP3   OH277656   2.977   3.517   6.552 -0.1522  0.7003 -0.0847
18722TIP3    H177657   3.019   3.600   6.572  1.6340 -0.5859  2.0096
18722TIP3    H277658   2.884   3.538   6.543  0.3019  2.9546 -0.1131
18723TIP3   OH277659   2.328   6.223   0.922 -0.1617 -0.2828  0.1361
18723TIP3    H177660   2.394   6.292   0.926 -1.3809  0.9268 -0.0648
18723TIP3    H277661   2.248   6.267   0.891 -1.1184 -1.6644  0.5423
18724TIP3   OH277662   3.411   4.079  11.980  0.0811  0.4003  0.1401
18724TIP3    H177663   3.405   4.115  12.069 -0.2714  0.5306  0.0664
18724TIP3    H277664   3.383   4.150  11.923  0.5072  0.3825 -0.0933
18725TIP3   OH277665   2.596   4.381  16.621  0.0941 -0.0308  0.0423
18725TIP3    H177666   2.569   4.469  16.647 -1.1488 -0.2958 -0.3223
18725TIP3    H277667   2.645   4.349  16.697  0.1501  0.7959  0.3699
18726TIP3   OH277668   6.257   0.189   0.448  0.0792 -0.0373  0.6186
18726TIP3    H177669   6.312   0.208   0.372 -0.0667 -0.1983  0.4690
18726TIP3    H277670   6.194   0.261   0.450 -0.2379 -0.3028  0.2783
18727TIP3   OH277671   5.227   6.674  16.056 -0.5007  0.0918  0.4937
18727TIP3    H177672   5.276   6.700  15.978 -0.5111 -0.8948  0.1442
18727TIP3    H277673   5.279   6.707  16.129  0.1072  0.0382  0.0956
18728TIP3   OH277674   5.550   5.151  13.402  0.1070 -0.8212 -0.4659
18728TIP3    H177675   5.547   5.137  13.308 -1.0273  1.1002 -0.7523
18728TIP3    H277676   5.498   5.229  13.417  1.2450 -0.3911  1.6398
18729TIP3   OH277677   0.203   5.556  13.944 -0.4703 -0.0850  0.1074
18729TIP3    H177678   0.122   5.503  13.943 -0.8966  0.5490 -1.0914
18729TIP3    H277679   0.181   5.634  13.893  0.2069  1.2040  1.6992
18730TIP3   OH277680   6.680   2.907   5.139 -0.3303  0.4364 -0.0780
18730TIP3    H177681   6.683   2.972   5.069 -1.2148  0.4333 -0.1260
18730TIP3    H277682   6.666   2.959   5.219  1.1818  0.4869  0.1816
18731TIP3   OH277683   5.631   1.264  13.888  0.0873 -0.1135  0.0292
18731TIP3    H177684   5.709   1.318  13.875 -0.0594  0.0482 -0.1908
18731TIP3    H277685   5.661   1.191  13.942  0.3488  0.0459  0.1004
18732TIP3   OH277686   3.290   0.252  10.835 -0.3962 -0.0698 -0.1698
18732TIP3    H177687   3.370   0.218  10.875  0.4832 -0.0354 -1.8423
18732TIP3    H277688   3.269   0.189  10.766 -0.9714  0.7115 -0.7280
18733TIP3   OH277689   6.688   5.296   4.221 -0.2405  0.4605  0.4616
18733TIP3    H177690   6.723   5.282   4.133  1.1423  1.3014  0.8428
18733TIP3    H277691   6.696   5.212   4.265  0.3873  0.3890  0.2161
18734TIP3   OH277692   1.207   6.270  14.379 -0.1765  0.3565  0.1030
18734TIP3    H177693   1.282   6.329  14.389 -1.6014  2.3695 -0.4676
18734TIP3    H277694   1.236   6.205  14.315  0.8764  1.4960 -0.6242
18735TIP3   OH277695   4.502   4.185  16.371  0.1491  0.4005  0.1065
18735TIP3    H177696   4.518   4.277  16.351  0.3430  0.3655  0.0982
18735TIP3    H277697   4.510   4.140  16.287  0.2328  0.3526  0.1396
18736TIP3   OH277698   1.672   6.240  14.300 -0.2443 -0.2505 -0.5216
18736TIP3    H177699   1.750   6.187  14.280 -0.2260  0.0868 -1.3757
18736TIP3    H277700   1.665   6.301  14.227  0.8155  2.1989  1.2753
18737TIP3   OH277701   3.463   5.379   5.335  0.1238  0.0344 -1.0272
18737TIP3    H177702   3.455   5.429   5.254  0.0962 -0.2128 -1.1753
18737TIP3    H277703   3.461   5.446   5.404  0.1150  0.2410 -1.2267
18738TIP3   OH277704   3.014   2.267   3.499 -0.5970  0.1654 -0.3739
18738TIP3    H177705   3.083   2.258   3.434 -0.4216 -0.6067 -0.0889
18738TIP3    H277706   3.059   2.262   3.583 -1.0321 -0.6745 -0.1829
18739TIP3   OH277707   1.060   6.573   6.027  0.8501  0.6281  0.5175
18739TIP3    H177708   1.054   6.664   6.056  1.4198  0.6611  0.5583
18739TIP3    H277709   1.145   6.543   6.061  1.6480  0.7313 -1.2846
18740TIP3   OH277710   4.069   6.421  14.948  0.3792 -0.0488 -0.4574
18740TIP3    H177711   4.089   6.423  15.041  1.2536 -0.2206 -0.6317
18740TIP3    H277712   4.150   6.392  14.906 -0.0699 -0.1964 -1.2528
18741TIP3   OH277713   0.919   3.118  10.866 -0.1033 -0.3496 -0.3415
18741TIP3    H177714   0.896   3.058  10.796 -0.9492 -1.1135  0.5626
18741TIP3    H277715   0.971   3.065  10.927  0.6021  0.2974 -0.3580
18742TIP3   OH277716   1.300   6.031   4.990 -0.1200  0.6892 -0.2511
18742TIP3    H177717   1.395   6.036   4.975 -0.1736  1.8274 -0.3394
18742TIP3    H277718   1.264   6.098   4.932 -1.1495 -0.8784 -1.4734
18743TIP3   OH277719   3.142   2.526   1.305  0.3952  0.1129  0.2328
18743TIP3    H177720   3.135   2.621   1.292  0.0993  0.3420  1.8782
18743TIP3    H277721   3.200   2.516   1.380 -0.5078 -0.9424  0.8270
18744TIP3   OH277722   3.045   3.397  14.503  0.2321  0.3137  0.2203
18744TIP3    H177723   2.961   3.412  14.459  0.6219  0.5404 -0.4680
18744TIP3    H277724   3.081   3.319  14.460  0.5592  0.4628  0.2230
18745TIP3   OH277725   0.109   5.131   4.560 -0.0723 -0.0187 -0.0926
18745TIP3    H177726   0.185   5.078   4.538  1.6969  0.9125  3.0922
18745TIP3    H277727   0.086   5.105   4.649 -0.3190  3.0731  0.8912
18746TIP3   OH277728   0.487   4.259   5.916  0.2330  0.1861  0.5771
18746TIP3    H177729   0.491   4.183   5.975  1.5970  0.1734  0.5044
18746TIP3    H277730   0.443   4.226   5.838  0.5422 -0.4621  0.6622
18747TIP3   OH277731   2.635   2.618   0.270  0.2529  0.5568  0.8633
18747TIP3    H177732   2.545   2.616   0.238 -0.1588  1.0431  1.9548
18747TIP3    H277733   2.648   2.707   0.301  0.6514  0.1367  1.9579
18748TIP3   OH277734   3.023   5.704   1.833 -0.1176 -0.1422  0.1406
18748TIP3    H177735   3.018   5.619   1.877 -2.1585  0.1437  0.5746
18748TIP3    H277736   3.060   5.763   1.898  2.0289 -0.7893 -0.4078
18749TIP3   OH277737   4.218   1.518  14.781  0.1843  0.0025  0.0999
18749TIP3    H177738   4.217   1.531  14.876 -0.7726  1.2030 -0.0467
18749TIP3    H277739   4.130   1.543  14.753  0.3050 -0.8012 -1.0568
18750TIP3   OH277740   3.251   2.362   4.017 -0.5024 -0.3000 -0.0374
18750TIP3    H177741   3.174   2.354   4.073 -1.3431  0.0888 -1.1010
18750TIP3    H277742   3.216   2.374   3.929  0.7796  0.1973 -0.5092
18751TIP3   OH277743   5.695   2.247  14.366 -0.3892  0.3328 -0.3126
18751TIP3    H177744   5.757   2.211  14.303 -0.6837  2.2792 -1.8096
18751TIP3    H277745   5.640   2.306  14.315 -2.7465 -0.4134  1.1932
18752TIP3   OH277746   0.456   4.033  13.023  0.3121  0.1442 -0.4030
18752TIP3    H177747   0.528   4.067  13.077 -0.5040  0.9515  0.2120
18752TIP3    H277748   0.416   3.965  13.077 -0.2506  0.6712 -0.1387
18753TIP3   OH277749   6.655   0.148   3.666 -0.2368  0.1692  0.1164
18753TIP3    H177750   6.689   0.207   3.598 -2.0980  1.8704  0.5714
18753TIP3    H277751   6.731   0.095   3.691  0.8571  0.4550 -2.2598
18754TIP3   OH277752   2.833   4.989  16.217  0.6900 -0.4886 -0.4056
18754TIP3    H177753   2.840   4.983  16.313  0.4326 -0.0792 -0.3586
18754TIP3    H277754   2.900   4.929  16.184  1.4455  0.0941  0.0312
18755TIP3   OH277755   1.484   3.991  13.965  0.3645 -0.2634  0.4306
18755TIP3    H177756   1.450   4.048  14.035  0.5913 -0.2392  0.5231
18755TIP3    H277757   1.483   4.045  13.887  1.1372  0.0622  0.6371
18756TIP3   OH277758   6.308   3.172   6.047  0.2843 -0.1887  0.6729
18756TIP3    H177759   6.242   3.239   6.064 -1.7538 -1.5794 -1.2284
18756TIP3    H277760   6.265   3.090   6.071  0.6866 -1.2868 -2.0050
18757TIP3   OH277761   1.328   6.304   0.864  0.5448  0.1817  0.3350
18757TIP3    H177762   1.244   6.259   0.852 -0.6860  2.7039 -1.5003
18757TIP3    H277763   1.343   6.300   0.958 -1.2546 -0.9711  0.6463
18758TIP3   OH277764   5.391   3.248  13.898  0.0737  0.0710 -0.2984
18758TIP3    H177765   5.321   3.302  13.862  1.2622  2.1459  0.3258
18758TIP3    H277766   5.363   3.230  13.988  0.4553  1.1463  0.0442
18759TIP3   OH277767   0.501   1.723   5.894 -0.7185 -0.2845  0.2710
18759TIP3    H177768   0.556   1.762   5.826  0.6214 -1.9716  0.3267
18759TIP3    H277769   0.516   1.778   5.972  0.0545 -0.0808 -0.0126
18760TIP3   OH277770   6.442   0.044   0.854 -0.1902 -0.1254 -0.8457
18760TIP3    H177771   6.390   0.032   0.774 -1.2565  2.8010 -0.6920
18760TIP3    H277772   6.381   0.080   0.918  1.1576 -0.3638  0.6442
18761TIP3   OH277773   3.768   1.336   2.336  0.4081  0.5088  0.1247
18761TIP3    H177774   3.807   1.348   2.423  0.8129  2.0523 -0.2519
18761TIP3    H277775   3.805   1.253   2.305  3.2161  1.7187 -0.0785
18762TIP3   OH277776   2.894   6.226   2.480  0.1536  0.1055 -0.0110
18762TIP3    H177777   2.930   6.305   2.439 -0.4222 -0.5646 -1.9422
18762TIP3    H277778   2.889   6.163   2.408 -1.4250 -0.9977  1.0207
18763TIP3   OH277779   4.600   2.514   4.526  0.4224 -0.0506 -0.3360
18763TIP3    H177780   4.692   2.508   4.499  0.7223  0.7023  0.5025
18763TIP3    H277781   4.592   2.600   4.567 -0.2511 -0.7692  1.1015
18764TIP3   OH277782   4.736   2.326  14.530  0.1383  0.4283  0.2361
18764TIP3    H177783   4.645   2.349  14.510 -0.2764 -0.0412  1.4508
18764TIP3    H277784   4.788   2.373  14.465 -0.9182  1.5034  0.1318
18765TIP3   OH277785   3.526   0.736  14.027 -0.4084 -0.9780  0.5761
18765TIP3    H177786   3.606   0.685  14.014  0.7353  0.3691  1.9575
18765TIP3    H277787   3.528   0.801  13.957  0.3462 -0.2267  1.2673
18766TIP3   OH277788   3.422   3.299  11.773  0.7454  0.0212  0.9513
18766TIP3    H177789   3.516   3.296  11.788  0.9374 -0.5691 -0.2505
18766TIP3    H277790   3.409   3.248  11.693 -0.3721  1.6455  0.0391
18767TIP3   OH277791   0.268   4.828  14.085  0.6606  0.5234 -0.2745
18767TIP3    H177792   0.360   4.848  14.068  0.2645  2.0975 -0.7234
18767TIP3    H277793   0.237   4.900  14.139  0.0257 -0.7187  1.0930
18768TIP3   OH277794   1.630   3.414   4.532 -0.3164 -0.0055  0.5759
18768TIP3    H177795   1.618   3.366   4.614  0.1759 -0.8537  0.1591
18768TIP3    H277796   1.716   3.456   4.542  0.5646 -1.5753 -0.2186
18769TIP3   OH277797   4.272   0.778  15.262  0.1784 -0.4214  0.1705
18769TIP3    H177798   4.228   0.853  15.222 -0.2518 -0.4117  0.6552
18769TIP3    H277799   4.357   0.812  15.289  1.2155 -0.8640 -2.3173
18770TIP3   OH277800   3.411   6.788  13.253 -1.0848 -0.1557  0.0785
18770TIP3    H177801   3.330   6.738  13.265 -1.1772 -0.3269 -1.1736
18770TIP3    H277802   3.399   6.835  13.171 -0.7327  1.4457  0.8894
18771TIP3   OH277803   5.813   4.997  14.122  0.4879  0.3575  0.2657
18771TIP3    H177804   5.796   4.972  14.031  1.4403  0.7674 -0.0351
18771TIP3    H277805   5.853   5.083  14.116  0.6059  0.3642  1.0766
18772TIP3   OH277806   1.501   2.553  14.183  0.1784  0.8004  0.1995
18772TIP3    H177807   1.489   2.459  14.165 -0.3920  0.6612  1.2093
18772TIP3    H277808   1.587   2.559  14.224  0.7858  0.9031 -1.0752
18773TIP3   OH277809   3.808   6.504  14.238  0.5411  0.0805  0.0756
18773TIP3    H177810   3.900   6.531  14.242  0.6280  0.0291 -1.2473
18773TIP3    H277811   3.760   6.577  14.275  0.8790  1.5312 -2.1991
18774TIP3   OH277812   6.029   1.762  16.895 -0.0692 -0.4490 -0.1138
18774TIP3    H177813   6.100   1.705  16.868  0.0732 -0.1148 -0.4497
18774TIP3    H277814   6.027   1.831  16.829  0.2110  0.3206  0.6626
18775TIP3   OH277815   6.066   0.926  11.435  0.1987  0.3975 -0.8101
18775TIP3    H177816   6.065   0.987  11.362  1.3071  0.6975 -0.5914
18775TIP3    H277817   6.130   0.962  11.496 -0.8281  0.2500  0.4065
18776TIP3   OH277818   4.673   4.898   1.326  0.1523  0.2318  0.4123
18776TIP3    H177819   4.653   4.822   1.272 -1.3400  0.1460  1.0318
18776TIP3    H277820   4.767   4.895   1.338  0.3760 -0.3517 -1.2673
18777TIP3   OH277821   2.535   0.857   2.636  0.4320 -0.4730  0.4329
18777TIP3    H177822   2.530   0.834   2.543  1.2443  0.8910  0.0250
18777TIP3    H277823   2.447   0.841   2.670 -0.9387  2.3359 -1.4010
18778TIP3   OH277824   0.206   2.508   2.140 -0.2820  0.2422 -0.0554
18778TIP3    H177825   0.237   2.541   2.224  0.7086  1.0415 -0.7182
18778TIP3    H277826   0.124   2.554   2.125 -0.5198  0.0139  0.5192
18779TIP3   OH277827   6.612   5.127   3.724 -0.2583  0.0912  0.2748
18779TIP3    H177828   6.695   5.091   3.755 -0.4217 -0.4659  0.0708
18779TIP3    H277829   6.558   5.133   3.803  0.2209  1.1743  0.5447
18780TIP3   OH277830   3.286   1.225  12.701 -0.1973 -0.0417 -0.1520
18780TIP3    H177831   3.351   1.284  12.739 -0.6373  0.2101  0.2288
18780TIP3    H277832   3.238   1.279  12.639  1.0526 -0.6592 -1.7228
18781TIP3   OH277833   5.302   2.953  16.216  0.0295  0.0385 -0.3875
18781TIP3    H177834   5.221   2.966  16.166 -0.4041 -0.7825  0.0644
18781TIP3    H277835   5.370   2.947  16.149 -0.3460  0.3056 -0.8058
18782TIP3   OH277836   1.707   2.777   0.227  0.4627  0.2142 -0.3140
18782TIP3    H177837   1.791   2.814   0.199  0.4088  0.9075  0.3945
18782TIP3    H277838   1.727   2.732   0.309  0.4402 -1.0041 -0.9492
18783TIP3   OH277839   5.961   3.661  17.070  0.2234 -0.1874  0.1145
18783TIP3    H177840   6.008   3.744  17.065 -1.0217  0.6314  1.3337
18783TIP3    H277841   5.870   3.684  17.049 -0.0340 -1.3458 -0.1056
18784TIP3   OH277842   3.478   2.338  16.148 -0.6411  0.2730  0.4060
18784TIP3    H177843   3.544   2.294  16.201 -1.9456 -2.0194  0.2691
18784TIP3    H277844   3.501   2.316  16.057 -1.8465 -0.9956  0.3851
18785TIP3   OH277845   5.295   2.386  15.242 -0.3235 -0.0319 -0.3776
18785TIP3    H177846   5.327   2.433  15.319  1.2569 -2.1602  0.3447
18785TIP3    H277847   5.274   2.455  15.179 -0.5860  1.7253  1.5267
18786TIP3   OH277848   1.573   0.864   4.228  0.4750  0.2776 -0.0110
18786TIP3    H177849   1.552   0.895   4.316 -0.1153 -2.2889  0.8518
18786TIP3    H277850   1.533   0.777   4.224  0.1451  0.4807 -2.9830
18787TIP3   OH277851   6.561   1.082  16.435  0.2865  0.4143 -0.2752
18787TIP3    H177852   6.562   1.012  16.370  2.2155  0.6600 -0.5800
18787TIP3    H277853   6.471   1.084  16.468 -0.0989 -1.3803 -1.1326
18788TIP3   OH277854   1.360   5.972   5.568 -0.1941 -0.5387 -0.1087
18788TIP3    H177855   1.374   5.878   5.560 -0.8530 -0.4997 -2.3797
18788TIP3    H277856   1.298   5.993   5.499  0.5455  1.6991 -0.1606
18789TIP3   OH277857   1.356   2.362  15.362 -0.2427 -0.8230  0.1765
18789TIP3    H177858   1.283   2.328  15.311 -0.6369  0.3256 -0.0492
18789TIP3    H277859   1.323   2.368  15.452 -0.6517  0.2827 -0.0331
18790TIP3   OH277860   1.087   2.613  15.180 -0.6634  0.6137 -0.0366
18790TIP3    H177861   1.124   2.634  15.265  0.9448 -0.4638 -0.4252
18790TIP3    H277862   1.019   2.548  15.199 -1.2721  1.3974  0.5310
18791TIP3   OH277863   6.654   1.225  17.279  0.5393  0.2525 -0.0569
18791TIP3    H177864   6.564   1.202  17.304  0.8610 -0.5516  0.4141
18791TIP3    H277865   6.687   1.147  17.234  1.0110  0.5251 -0.1851
18792TIP3   OH277866   2.800   0.922   5.994  0.3356 -0.4995  0.4192
18792TIP3    H177867   2.770   0.848   6.046 -1.0620 -0.0131  0.3516
18792TIP3    H277868   2.769   0.999   6.041 -1.5281 -0.0516 -1.3419
18793TIP3   OH277869   2.687   1.899  15.394  0.7505  0.1270 -0.0508
18793TIP3    H177870   2.744   1.822  15.395  0.1579 -0.3480 -1.1154
18793TIP3    H277871   2.742   1.969  15.428  1.0987 -0.8816  1.5665
18794TIP3   OH277872   0.818   3.528   0.959 -0.1203  0.1513  0.1771
18794TIP3    H177873   0.752   3.597   0.947 -0.8863 -0.7858 -1.3742
18794TIP3    H277874   0.901   3.571   0.941 -0.5913  0.6820 -0.8394
18795TIP3   OH277875   1.359   4.422  17.036 -0.6997  0.0471  0.0844
18795TIP3    H177876   1.331   4.458  16.952 -0.4378 -1.1938 -0.5502
18795TIP3    H277877   1.447   4.458  17.049  0.5404 -2.1407 -1.6925
18796TIP3   OH277878   3.408   2.569  14.975 -0.4038  0.1569  0.2575
18796TIP3    H177879   3.326   2.551  14.930 -1.2232  1.1390  1.2991
18796TIP3    H277880   3.387   2.638  15.038  1.1185  0.1347  0.8467
18797TIP3   OH277881   1.814   3.966  12.211 -0.6790  0.4511  0.1955
18797TIP3    H177882   1.848   4.049  12.244 -0.9001  0.0445  1.4956
18797TIP3    H277883   1.719   3.978  12.210 -0.6538  0.6720 -0.9243
18798TIP3   OH277884   4.424   4.186   4.988 -0.1071  0.0376  0.1590
18798TIP3    H177885   4.340   4.155   4.953 -0.4853  1.8860 -0.6645
18798TIP3    H277886   4.406   4.211   5.078  0.0049 -1.1891  0.5524
18799TIP3   OH277887   0.797   5.287   5.909 -0.0228 -0.1901  0.0353
18799TIP3    H177888   0.867   5.223   5.922  0.8006  0.5949 -0.4006
18799TIP3    H277889   0.750   5.257   5.832  0.6897 -0.0079 -0.4869
18800TIP3   OH277890   1.947   5.824  13.023  0.6140 -0.0929 -0.5002
18800TIP3    H177891   1.983   5.908  12.996  0.4811  0.4932  1.0591
18800TIP3    H277892   2.013   5.786  13.081 -0.5211  0.2740  1.1062
18801TIP3   OH277893   2.700   0.737  14.382  0.1106 -0.0232 -0.1635
18801TIP3    H177894   2.653   0.682  14.446 -1.5921 -1.1931 -2.2584
18801TIP3    H277895   2.642   0.739  14.306  2.3859  0.6177 -1.9898
18802TIP3   OH277896   6.383   2.612  13.203 -0.0853 -0.3908  0.0737
18802TIP3    H177897   6.378   2.539  13.265 -2.5037  0.9117  1.5390
18802TIP3    H277898   6.457   2.664  13.234  0.4305 -1.1643  0.1832
18803TIP3   OH277899   3.888   1.391   4.540 -0.4496 -0.1265  0.3975
18803TIP3    H177900   3.982   1.375   4.551  0.0454 -0.3586 -3.0878
18803TIP3    H277901   3.848   1.357   4.620  2.4953  1.1173  2.5727
18804TIP3   OH277902   3.337   6.046   4.757 -0.0349  0.7066 -0.4144
18804TIP3    H177903   3.385   6.002   4.828  0.1070  0.5948 -0.5783
18804TIP3    H277904   3.346   6.139   4.776 -0.7501  0.6555  0.2062
18805TIP3   OH277905   6.678   0.401   4.790 -0.2827  0.6137  0.4325
18805TIP3    H177906   6.764   0.404   4.833 -0.2395 -2.3604  0.7644
18805TIP3    H277907   6.694   0.441   4.704  1.3655  0.4239  0.6022
18806TIP3   OH277908   2.694   6.415  12.871 -0.4838 -0.2486 -0.0715
18806TIP3    H177909   2.787   6.428  12.858 -0.6408  0.7985 -0.1969
18806TIP3    H277910   2.660   6.397  12.783 -0.5229  0.1744 -0.1431
18807TIP3   OH277911   2.328   2.819   5.634  0.0643 -0.1904  0.2819
18807TIP3    H177912   2.259   2.872   5.675 -0.9673 -0.1820 -1.3747
18807TIP3    H277913   2.282   2.743   5.599  1.1734 -1.0294  0.5977
18808TIP3   OH277914   2.785   2.399  17.288 -0.3249 -0.1094  0.7463
18808TIP3    H177915   2.747   2.331  17.232  0.0339 -0.9657  1.5337
18808TIP3    H277916   2.757   2.481  17.247 -0.6633 -0.7190 -0.2845
18809TIP3   OH277917   5.271   4.215  16.652  0.1862 -0.6803  0.6190
18809TIP3    H177918   5.261   4.130  16.695  1.0314 -0.9308  0.3420
18809TIP3    H277919   5.184   4.254  16.657 -0.5795 -2.1349 -0.4576
18810TIP3   OH277920   3.601   1.695  12.045 -0.4843  0.2041  1.0934
18810TIP3    H177921   3.629   1.604  12.037 -2.0749 -0.3950  1.8155
18810TIP3    H277922   3.638   1.739  11.969  1.1769 -0.7927  1.2784
18811TIP3   OH277923   2.820   0.327   2.347 -0.0714  0.3850  0.1065
18811TIP3    H177924   2.892   0.272   2.317 -1.1433 -0.3604 -1.1558
18811TIP3    H277925   2.863   0.398   2.396  1.4045 -0.8534  0.6726
18812TIP3   OH277926   0.367   0.102  13.053 -0.9272  0.4127 -0.0303
18812TIP3    H177927   0.380   0.125  12.961 -0.3002 -0.1505 -0.0877
18812TIP3    H277928   0.294   0.041  13.052 -0.8753  0.3519 -0.1605
18813TIP3   OH277929   6.456   6.758   0.283  0.7028 -0.4777 -0.3608
18813TIP3    H177930   6.391   6.806   0.335 -0.0302 -1.2772 -0.5201
18813TIP3    H277931   6.532   6.817   0.280  1.0236 -0.6482  2.1246
18814TIP3   OH277932   2.523   5.755  13.469 -0.1196  0.0867  0.3499
18814TIP3    H177933   2.507   5.848  13.452 -0.7312 -0.3207 -1.6063
18814TIP3    H277934   2.540   5.717  13.382 -0.7803 -1.7933  0.9847
18815TIP3   OH277935   4.269   2.881  14.550  0.7592  0.1114  0.5541
18815TIP3    H177936   4.305   2.871  14.638  0.4820  0.7027  0.7344
18815TIP3    H277937   4.300   2.966  14.521  2.0929 -0.6895 -0.5169
18816TIP3   OH277938   4.787   0.254   0.768 -0.2449 -0.1084 -0.4046
18816TIP3    H177939   4.746   0.341   0.771 -1.6517 -0.7746  0.8948
18816TIP3    H277940   4.722   0.198   0.726  0.1524 -0.7734 -0.1533
18817TIP3   OH277941   1.931   3.901   3.768 -0.0886 -0.0944  0.4058
18817TIP3    H177942   1.949   3.955   3.691 -3.6229 -2.0312 -2.0620
18817TIP3    H277943   1.841   3.924   3.793 -0.4627 -2.3462  1.4033
18818TIP3   OH277944   3.559   5.090   3.453 -0.3220 -0.2898  0.2064
18818TIP3    H177945   3.554   5.184   3.474 -0.3453  0.0893 -1.3981
18818TIP3    H277946   3.470   5.058   3.465 -0.2636 -0.1695  1.0037
18819TIP3   OH277947   4.880   4.509   0.641  0.5587  0.0478  0.3937
18819TIP3    H177948   4.797   4.496   0.688  1.6505 -0.0654  2.4107
18819TIP3    H277949   4.901   4.423   0.604  0.6050 -0.3605  1.3416
18820TIP3   OH277950   2.649   6.749   0.974  0.2138  0.0451  0.2654
18820TIP3    H177951   2.637   6.833   1.018 -1.3276  0.1227 -0.2292
18820TIP3    H277952   2.611   6.763   0.887  0.3944 -1.0232  0.0055
18821TIP3   OH277953   4.413   6.413  15.818 -0.0945  0.5202 -0.8696
18821TIP3    H177954   4.436   6.505  15.809  1.7355  0.4159  1.6046
18821TIP3    H277955   4.481   6.366  15.768  1.7843  0.4430  1.5662
18822TIP3   OH277956   5.478   5.478   2.432  0.1608  0.9236  0.0574
18822TIP3    H177957   5.470   5.495   2.526 -1.4919 -3.4596  0.9348
18822TIP3    H277958   5.570   5.455   2.420  0.0431 -0.1720  1.0310
18823TIP3   OH277959   5.329   4.827   0.132  0.1882  0.5768 -0.0044
18823TIP3    H177960   5.256   4.881   0.161 -3.3126 -3.1047 -0.9456
18823TIP3    H277961   5.320   4.745   0.181  2.3641 -0.8628 -1.7629
18824TIP3   OH277962   0.867   3.150   6.075 -0.2676 -0.1514 -0.4025
18824TIP3    H177963   0.873   3.134   5.981 -0.7282 -1.2913 -0.2624
18824TIP3    H277964   0.854   3.063   6.113 -1.6676  0.4404  0.5765
18825TIP3   OH277965   6.589   4.453  15.227  1.0882  0.4267  0.2929
18825TIP3    H177966   6.641   4.529  15.254  0.5064  0.5630  1.0703
18825TIP3    H277967   6.569   4.469  15.135  1.8690  0.6880  0.1600
18826TIP3   OH277968   3.940   4.517  13.516 -0.3790  0.6590  0.0228
18826TIP3    H177969   3.989   4.446  13.474 -1.0782  0.1407  0.0764
18826TIP3    H277970   3.972   4.519  13.606 -1.8622 -0.9961  0.6138
18827TIP3   OH277971   1.579   3.048  16.225  0.1000 -0.3248  0.1032
18827TIP3    H177972   1.529   3.129  16.239 -0.6556 -0.4549 -1.5282
18827TIP3    H277973   1.651   3.053  16.287  0.2865  1.7995 -0.1963
18828TIP3   OH277974   3.226   2.224  16.077  0.6982 -0.0026  0.1731
18828TIP3    H177975   3.302   2.210  16.132  1.5459 -0.6432 -1.1194
18828TIP3    H277976   3.252   2.295  16.018  0.3465 -0.3156 -0.3685
18829TIP3   OH277977   5.053   4.830   5.577  0.5076  0.1228 -0.2727
18829TIP3    H177978   5.043   4.897   5.509  1.0333 -0.0413 -0.5265
18829TIP3    H277979   5.136   4.853   5.620  1.2491 -0.9634 -1.0718
18830TIP3   OH277980   0.710   1.389  13.351  0.0414  0.1961 -0.3191
18830TIP3    H177981   0.632   1.416  13.302  0.5376  0.5316 -0.9387
18830TIP3    H277982   0.695   1.420  13.440 -1.4658 -1.5592  0.0938
18831TIP3   OH277983   0.837   5.774   4.909 -0.1481  0.2106  0.1459
18831TIP3    H177984   0.897   5.758   4.836  0.8394  0.9588  0.7698
18831TIP3    H277985   0.867   5.715   4.978  0.1788  0.9188  0.6216
18832TIP3   OH277986   4.649   3.246  15.690  0.1625 -0.1202 -0.0519
18832TIP3    H177987   4.594   3.310  15.646  1.2908  2.2084  1.6974
18832TIP3    H277988   4.600   3.222  15.768  0.8591  0.6943  0.6578
18833TIP3   OH277989   6.442   6.664   1.331 -0.3402 -0.1564 -0.1723
18833TIP3    H177990   6.347   6.654   1.324 -0.6104  1.7457  0.3422
18833TIP3    H277991   6.456   6.758   1.343  1.3107 -0.6966  3.8823
18834TIP3   OH277992   2.586   5.776   1.795 -0.0693  0.2429  0.5315
18834TIP3    H177993   2.528   5.730   1.734  0.2408  0.7206 -0.1403
18834TIP3    H277994   2.674   5.750   1.767  0.1005  1.0334  0.3042
18835TIP3   OH277995   1.323   6.242   5.540 -0.1630  0.2937  0.7734
18835TIP3    H177996   1.278   6.244   5.624 -0.4745 -1.0478  0.6538
18835TIP3    H277997   1.360   6.154   5.534  0.4756  0.6044 -0.1812
18836TIP3   OH277998   3.954   6.331  15.808 -0.2189 -0.0506 -0.4714
18836TIP3    H177999   3.909   6.379  15.878 -0.6945  0.2736 -1.0009
18836TIP3    H278000   4.045   6.324  15.839 -0.5244 -0.3221  0.3941
18837TIP3   OH278001   0.371   1.676  14.677  0.0012 -0.2263  0.1918
18837TIP3    H178002   0.337   1.757  14.639 -0.5572 -0.5293  0.0433
18837TIP3    H278003   0.295   1.631  14.711  0.2262 -0.9691 -0.2508
18838TIP3   OH278004   4.082   5.360   4.361 -0.5334 -0.4228 -0.4352
18838TIP3    H178005   4.157   5.319   4.318  0.3414  2.0746 -1.4854
18838TIP3    H278006   4.112   5.380   4.449 -0.2908 -0.2981 -0.5456
18839TIP3   OH278007   6.455   5.332   3.630  0.5409  0.0071  0.2521
18839TIP3    H178008   6.503   5.362   3.552  1.0162  1.6509  1.1380
18839TIP3    H278009   6.519   5.278   3.677  0.2884 -0.8992 -0.4115
18840TIP3   OH278010   2.948   2.952  15.795 -0.1193  0.5601  0.1444
18840TIP3    H178011   2.883   3.009  15.753 -0.2246  2.3659  2.5031
18840TIP3    H278012   2.990   3.009  15.860  2.5712 -1.0591 -0.0395
18841TIP3   OH278013   2.316   3.329  11.466 -0.3156  0.1288 -0.4911
18841TIP3    H178014   2.398   3.280  11.479 -0.6078  0.1279  1.7702
18841TIP3    H278015   2.333   3.414  11.506 -1.1589  0.4146 -0.7269
18842TIP3   OH278016   0.651   3.294  13.875  0.3425 -0.1361 -0.0935
18842TIP3    H178017   0.707   3.361  13.836 -0.0845  0.8442  0.9060
18842TIP3    H278018   0.677   3.292  13.968  1.2883 -2.3442 -0.3313
18843TIP3   OH278019   1.224   5.204   5.118  0.1469 -0.1411  0.1830
18843TIP3    H178020   1.169   5.194   5.196  1.7956 -1.2097  1.2727
18843TIP3    H278021   1.262   5.291   5.126  0.2568 -0.2207  0.5671
18844TIP3   OH278022   0.608   0.242  14.966  0.3390  0.3454  0.4817
18844TIP3    H178023   0.633   0.269  15.054 -0.7217  1.5185  0.4532
18844TIP3    H278024   0.538   0.178  14.980 -0.3818  1.1182  0.5062
18845TIP3   OH278025   2.978   5.037  17.082 -0.4277  0.1449 -0.1781
18845TIP3    H178026   3.044   5.106  17.093 -1.2607  1.1077 -1.0860
18845TIP3    H278027   2.987   5.009  16.991 -1.4759  0.5200 -0.4096
18846TIP3   OH278028   1.454   4.913  11.295 -0.5532  0.3556 -0.1576
18846TIP3    H178029   1.446   4.821  11.321 -0.1643  0.2978 -0.2350
18846TIP3    H278030   1.405   4.919  11.213 -1.4331  0.4467  0.3680
18847TIP3   OH278031   0.899   2.973   4.051  0.4133  0.1706  0.2034
18847TIP3    H178032   0.814   3.016   4.041 -0.9044 -2.3789 -0.7252
18847TIP3    H278033   0.890   2.892   4.001  3.2012 -0.4963  0.6301
18848TIP3   OH278034   1.141   0.098   3.374  0.0064  0.0372 -0.2209
18848TIP3    H178035   1.137   0.070   3.466  0.8366  0.5292 -0.0223
18848TIP3    H278036   1.234   0.097   3.352  0.0848  2.2522 -0.2883
18849TIP3   OH278037   1.303   3.861  15.872 -0.0835  1.4146 -0.3792
18849TIP3    H178038   1.302   3.848  15.966 -0.2321  2.1112 -0.2800
18849TIP3    H278039   1.377   3.919  15.856  0.9057  0.0884 -0.8724
18850TIP3   OH278040   1.790   6.099   4.222  0.2188  0.1584 -0.2236
18850TIP3    H178041   1.811   6.189   4.195 -0.3269  0.9383  1.7237
18850TIP3    H278042   1.848   6.083   4.297  0.4468 -1.2157 -0.6667
18851TIP3   OH278043   3.378   0.914  14.819 -0.1411  0.0077 -0.4445
18851TIP3    H178044   3.328   0.854  14.764 -2.2208 -1.0685  2.3569
18851TIP3    H278045   3.435   0.857  14.870  0.7194  0.8304 -0.4529
18852TIP3   OH278046   6.767   1.243  15.977  0.7090 -0.2225  0.5068
18852TIP3    H178047   6.833   1.176  15.996 -1.2411 -1.7159  2.5406
18852TIP3    H278048   6.781   1.263  15.884  1.6442 -3.2376 -0.1444
18853TIP3   OH278049   2.504   3.403  15.837  0.1069 -0.4682  0.2228
18853TIP3    H178050   2.596   3.378  15.849 -0.1036 -2.1193 -1.2031
18853TIP3    H278051   2.504   3.499  15.841  1.7112 -0.4768  1.2863
18854TIP3   OH278052   5.330   0.231  13.354 -0.5037  0.4378 -0.2199
18854TIP3    H178053   5.286   0.251  13.271 -1.0715 -1.7980 -0.5033
18854TIP3    H278054   5.283   0.156  13.389  0.8083  0.2822  1.2985
18855TIP3   OH278055   2.012   0.462   5.303  0.8695  0.3178 -0.3324
18855TIP3    H178056   1.921   0.448   5.328  0.1113  0.4915 -2.7405
18855TIP3    H278057   2.052   0.500   5.381 -1.1895  0.5268  0.7025
18856TIP3   OH278058   4.956   5.364  15.524  0.1923 -0.3325  0.5008
18856TIP3    H178059   5.047   5.384  15.545  1.0612 -0.0897 -2.9375
18856TIP3    H278060   4.958   5.275  15.487 -1.1045 -0.6219  1.0616
18857TIP3   OH278061   3.792   0.969   0.004 -0.3187 -0.2199  0.1336
18857TIP3    H178062   3.806   0.900  -0.061 -0.5625 -0.1463  0.0017
18857TIP3    H278063   3.860   1.034  -0.015  0.4975 -0.8522  0.8493
18858TIP3   OH278064   6.672   0.950   4.691 -0.2595 -0.2568  0.6950
18858TIP3    H178065   6.683   1.044   4.673 -0.1125 -0.4645 -0.4264
18858TIP3    H278066   6.724   0.934   4.770  1.0420  0.3195 -0.0062
18859TIP3   OH278067   3.969   2.877   2.406 -0.4660 -0.3712 -0.0994
18859TIP3    H178068   3.925   2.792   2.407  0.8788 -1.0963  0.8793
18859TIP3    H278069   4.057   2.858   2.439 -0.0840  1.3742 -0.0560
18860TIP3   OH278070   0.021   3.015   4.728  0.0944  0.2054  0.9758
18860TIP3    H178071   0.011   2.924   4.756 -0.1645  0.3770  1.4624
18860TIP3    H278072  -0.062   3.037   4.687  0.2041  0.1809  0.7438
18861TIP3   OH278073   6.630   6.725  16.559 -0.1048  0.3057  0.5687
18861TIP3    H178074   6.602   6.769  16.479 -1.8703 -0.9166  0.4771
18861TIP3    H278075   6.626   6.793  16.627  1.9018  1.4892 -0.3935
18862TIP3   OH278076   0.675   4.334  13.275 -0.2348  0.0344  0.4541
18862TIP3    H178077   0.758   4.363  13.313 -0.7957  0.7431  1.1605
18862TIP3    H278078   0.616   4.324  13.350 -0.6026 -1.1421  0.0338
18863TIP3   OH278079   6.575   3.739   1.632 -0.3420 -0.2874  0.5185
18863TIP3    H178080   6.516   3.771   1.700 -0.0049 -0.7356  1.0332
18863TIP3    H278081   6.582   3.811   1.570 -2.4386 -0.6564 -0.2426
18864TIP3   OH278082   2.614   1.200  10.784 -0.1748  0.5236  0.3457
18864TIP3    H178083   2.659   1.116  10.784 -0.2748  0.4431 -1.1046
18864TIP3    H278084   2.555   1.196  10.858  0.0069 -0.5879  0.4470
18865TIP3   OH278085   1.804   3.485   2.656 -0.2159 -0.6252 -0.5963
18865TIP3    H178086   1.718   3.520   2.635 -0.9516 -2.9858 -1.9034
18865TIP3    H278087   1.850   3.481   2.572 -0.0515 -2.3186 -0.4701
18866TIP3   OH278088   2.931   6.750   3.349 -0.2027 -0.2769  0.1287
18866TIP3    H178089   2.911   6.840   3.322  2.2000  0.1091 -0.5978
18866TIP3    H278090   2.907   6.697   3.273  1.7518  0.2229 -0.9004
18867TIP3   OH278091   2.574   2.845   1.952 -0.1614  0.2541  0.5082
18867TIP3    H178092   2.558   2.802   1.868 -0.0963  0.4359  0.4004
18867TIP3    H278093   2.658   2.890   1.939  1.1199 -1.7372  1.4753
18868TIP3   OH278094   6.019   4.813  13.900 -0.0843 -0.1892 -0.2649
18868TIP3    H178095   6.091   4.751  13.900 -0.9619 -1.2614  1.0728
18868TIP3    H278096   5.940   4.759  13.902 -1.0471  0.8904 -3.3281
18869TIP3   OH278097   0.769   4.641  13.486 -0.6637 -0.0567  0.1425
18869TIP3    H178098   0.697   4.637  13.423  0.0607 -0.8411 -0.6639
18869TIP3    H278099   0.842   4.676  13.436 -0.8019  2.0210  1.2930
18870TIP3   OH278100   0.469   5.753   3.141  0.2897 -0.3401  0.3964
18870TIP3    H178101   0.481   5.664   3.175 -1.5925 -0.5445  0.6420
18870TIP3    H278102   0.531   5.759   3.068  2.7962 -0.6769  2.3688
18871TIP3   OH278103   4.474   3.796   3.836  0.3018 -0.6394 -0.1636
18871TIP3    H178104   4.443   3.876   3.878 -0.5523 -0.2392 -1.5002
18871TIP3    H278105   4.395   3.744   3.820  0.3915 -0.2293 -2.3391
18872TIP3   OH278106   0.264   1.202   1.589  0.3226  0.4397 -0.1049
18872TIP3    H178107   0.335   1.175   1.646  0.1419  1.1548  0.4658
18872TIP3    H278108   0.276   1.149   1.510  1.2175  0.2313  0.1566
18873TIP3   OH278109   2.992   2.553  13.387  0.4433  0.3378 -0.1296
18873TIP3    H178110   3.042   2.566  13.306  1.1192  1.0306  0.3794
18873TIP3    H278111   2.901   2.544  13.359  0.6204  1.0131 -0.9351
18874TIP3   OH278112   1.795   2.147   0.988  0.5305 -0.5722  0.4554
18874TIP3    H178113   1.824   2.073   1.041 -0.0291 -1.2839 -0.2081
18874TIP3    H278114   1.872   2.204   0.983  0.6815 -0.6155  1.7867
18875TIP3   OH278115   3.441   2.565   0.336 -0.0312 -0.6019  0.0352
18875TIP3    H178116   3.512   2.592   0.394  0.5920 -0.1121 -0.9287
18875TIP3    H278117   3.370   2.541   0.395  0.5984 -0.1647  0.9979
18876TIP3   OH278118   0.680   2.399   4.848  0.1408  0.2455 -0.2606
18876TIP3    H178119   0.775   2.394   4.858 -0.0922 -0.3503  2.2159
18876TIP3    H278120   0.652   2.308   4.834 -0.1438  0.3049 -0.0905
18877TIP3   OH278121   2.511   5.235  15.772 -0.6145 -0.5273 -0.0936
18877TIP3    H178122   2.502   5.323  15.811  0.7666 -0.6694  0.6195
18877TIP3    H278123   2.501   5.175  15.846 -1.5156 -0.9809 -0.5739
18878TIP3   OH278124   2.463   5.350   1.534  1.2754 -0.5149 -0.2169
18878TIP3    H178125   2.445   5.275   1.591 -1.0820 -0.2003 -0.4646
18878TIP3    H278126   2.511   5.313   1.461  0.2865 -1.7802 -0.2534
18879TIP3   OH278127   4.436   4.340   1.573  0.1229 -0.1494  0.3658
18879TIP3    H178128   4.343   4.349   1.593  0.1443 -1.7100  1.3553
18879TIP3    H278129   4.468   4.430   1.569 -0.8719  0.4059  2.9365
18880TIP3   OH278130   6.763   1.861  14.995 -0.5855 -0.5372  0.1279
18880TIP3    H178131   6.820   1.815  15.056 -0.8965 -0.1566  0.7229
18880TIP3    H278132   6.685   1.806  14.989 -0.9101 -0.1620  0.7508
18881TIP3   OH278133   1.385   6.314  12.383 -0.1006 -0.7485  0.3183
18881TIP3    H178134   1.436   6.345  12.307 -0.9561 -0.8075 -0.2936
18881TIP3    H278135   1.447   6.263  12.434  0.1617 -1.9262 -1.0913
18882TIP3   OH278136   2.481   5.737  16.003  0.2798 -0.2846  0.4540
18882TIP3    H178137   2.546   5.800  16.035 -0.6369  0.9991 -0.1250
18882TIP3    H278138   2.485   5.745  15.908  0.7729 -1.7792  0.3258
18883TIP3   OH278139   3.708   4.062  12.159 -0.7154  0.4562  0.0767
18883TIP3    H178140   3.650   4.028  12.091  0.4738  0.5427 -1.0171
18883TIP3    H278141   3.796   4.039  12.129 -0.0873  1.6086  0.9496
18884TIP3   OH278142   2.267   4.140   1.232 -0.2632 -0.2379  0.0035
18884TIP3    H178143   2.187   4.105   1.273 -0.1086 -0.6154 -0.0193
18884TIP3    H278144   2.291   4.075   1.166 -0.9590  0.7395 -1.2619
18885TIP3   OH278145   0.550   4.471  12.054 -0.1620 -0.2495  0.5622
18885TIP3    H178146   0.484   4.457  12.122 -1.4203  2.2367 -0.0167
18885TIP3    H278147   0.499   4.470  11.972  0.8824 -0.4134 -0.0992
18886TIP3   OH278148   1.253   5.507   1.216 -0.1245 -0.1146 -0.4165
18886TIP3    H178149   1.270   5.536   1.306 -0.4520 -1.1702  0.0071
18886TIP3    H278150   1.159   5.521   1.204  0.0311  0.5868 -0.8062
18887TIP3   OH278151   3.768   2.474  13.968  0.1994  0.2797 -0.0849
18887TIP3    H178152   3.828   2.409  14.004 -0.2536 -0.2171 -0.2029
18887TIP3    H278153   3.777   2.466  13.873 -2.4182 -2.1894 -0.2803
18888TIP3   OH278154   3.170   5.731   2.968 -0.3330 -0.2378 -0.4551
18888TIP3    H178155   3.174   5.666   3.039  2.4090  0.8417  0.5361
18888TIP3    H278156   3.181   5.815   3.013  1.3590  0.4960 -2.1290
18889TIP3   OH278157   5.580   3.494   1.107  0.0536  0.9676  0.3986
18889TIP3    H178158   5.651   3.431   1.116  0.4177  1.2270 -0.4938
18889TIP3    H278159   5.506   3.443   1.076 -0.2628  0.6340  1.6843
18890TIP3   OH278160   6.766   3.046  14.243 -0.2779 -0.1183 -0.1875
18890TIP3    H178161   6.819   3.026  14.320  0.9386  1.8684 -0.4035
18890TIP3    H278162   6.676   3.052  14.275  0.1669  0.3223  1.0272
18891TIP3   OH278163   2.891   2.360  15.563 -0.3105 -0.3633  0.7408
18891TIP3    H178164   2.885   2.413  15.483 -2.3728  2.3347  2.5482
18891TIP3    H278165   2.981   2.373  15.593  0.1991 -0.6276 -0.5662
18892TIP3   OH278166   6.023   3.766  16.520  0.3077 -0.1505  0.7050
18892TIP3    H178167   6.083   3.693  16.537  1.7175  0.7909  0.0272
18892TIP3    H278168   6.065   3.814  16.448 -1.8738 -0.1066 -0.6227
18893TIP3   OH278169   4.311   0.715   0.885 -0.1530  0.7253 -0.2339
18893TIP3    H178170   4.315   0.643   0.823 -1.3117  1.4000 -1.1225
18893TIP3    H278171   4.282   0.674   0.967 -2.1452  0.3325 -1.0692
18894TIP3   OH278172   5.833   2.018  16.128 -0.3348  0.0439  0.0501
18894TIP3    H178173   5.916   2.001  16.084  0.1104  0.6381  0.6439
18894TIP3    H278174   5.785   1.935  16.123  0.2178 -0.2501 -0.4461
18895TIP3   OH278175   0.350   2.524  15.874  0.7483  0.0534 -0.4710
18895TIP3    H178176   0.309   2.582  15.809  0.5807 -1.5504 -1.8594
18895TIP3    H278177   0.444   2.546  15.870  0.5040  1.3022  0.1821
18896TIP3   OH278178   1.710   3.168   5.185  0.1413  0.1320  0.2909
18896TIP3    H178179   1.717   3.102   5.253  0.4491  0.6657  0.7895
18896TIP3    H278180   1.724   3.120   5.103 -0.8305 -0.6115  0.5523
18897TIP3   OH278181   2.083   4.070   2.668 -0.3779 -0.8017  0.1721
18897TIP3    H178182   2.133   4.151   2.682  1.4884 -1.8131 -0.2161
18897TIP3    H278183   2.105   4.044   2.578 -0.8234 -1.7967  0.3390
18898TIP3   OH278184   4.634   6.182   0.727  0.1467  0.5237 -0.2106
18898TIP3    H178185   4.563   6.178   0.663 -0.5039  4.4819  0.0594
18898TIP3    H278186   4.711   6.206   0.676  0.6039 -0.5338 -0.0419
18899TIP3   OH278187   5.524   1.100   1.779  0.0693 -0.1096 -0.2526
18899TIP3    H178188   5.601   1.079   1.831 -0.3172 -2.4176 -0.4966
18899TIP3    H278189   5.485   1.014   1.757 -2.7284  0.9509  0.1013
18900TIP3   OH278190   2.941   2.744  13.601 -0.0512  0.8850 -0.2530
18900TIP3    H178191   2.986   2.681  13.545  0.9543  0.4887  0.9670
18900TIP3    H278192   3.003   2.763  13.671 -1.8988 -0.0190  1.7443
18901TIP3   OH278193   6.462   5.702   4.101  0.2303  0.6772 -0.2117
18901TIP3    H178194   6.479   5.635   4.035 -0.8662  0.0797  0.0888
18901TIP3    H278195   6.434   5.779   4.051 -2.0317 -0.2175 -0.4205
18902TIP3   OH278196   3.673   5.321   3.104  0.4946  0.5745 -0.2018
18902TIP3    H178197   3.728   5.331   3.027  0.8225  0.6252  0.0350
18902TIP3    H278198   3.708   5.383   3.167  1.3411 -0.6855  0.6070
18903TIP3   OH278199   4.084   6.761  12.131 -0.4206 -0.3703 -0.3814
18903TIP3    H178200   4.041   6.688  12.175  0.1528 -0.5800 -0.1713
18903TIP3    H278201   4.157   6.785  12.188 -1.1025  0.9375 -0.0046
18904TIP3   OH278202   6.549   1.589   3.092  0.2390 -0.0867 -0.0717
18904TIP3    H178203   6.598   1.671   3.082 -1.6122  0.9666 -1.0343
18904TIP3    H278204   6.497   1.582   3.012 -1.0285 -1.2470  0.8022
18905TIP3   OH278205   1.004   2.300  12.559 -0.0087 -0.4518  0.0593
18905TIP3    H178206   1.052   2.236  12.612  0.5292 -0.5618 -0.5527
18905TIP3    H278207   0.968   2.362  12.623 -0.5608 -1.3762  0.6603
18906TIP3   OH278208   2.296   1.426  15.179 -0.3114  0.2660  0.2676
18906TIP3    H178209   2.279   1.403  15.088  0.4337  0.5282  0.0571
18906TIP3    H278210   2.255   1.356  15.230 -0.4597 -0.0414 -0.2739
18907TIP3   OH278211   4.003   2.750  14.833 -0.1371  0.0494 -0.3221
18907TIP3    H178212   4.049   2.666  14.839  0.8353  0.6169  0.5945
18907TIP3    H278213   3.938   2.737  14.764  0.5475 -1.1958 -0.7724
18908TIP3   OH278214   4.921   3.934   3.091 -0.0682  0.1467  0.0723
18908TIP3    H178215   4.948   3.859   3.038 -1.2059  0.3208 -0.8021
18908TIP3    H278216   4.963   3.920   3.176  0.5744 -0.9284 -0.3985
18909TIP3   OH278217   2.929   0.880   3.559  0.0850 -0.3642  0.1256
18909TIP3    H178218   3.024   0.879   3.574  0.1557 -1.3490 -0.2927
18909TIP3    H278219   2.919   0.899   3.466 -0.1687  0.6899  0.3619
18910TIP3   OH278220   1.524   2.672  15.717 -0.3423  0.1051 -0.0485
18910TIP3    H178221   1.478   2.712  15.791 -2.4203  2.0707 -2.2441
18910TIP3    H278222   1.498   2.580  15.718  0.7295 -0.2486  2.3389
18911TIP3   OH278223   2.266   2.769  11.981 -0.3662 -0.3556  0.4625
18911TIP3    H178224   2.326   2.701  11.950 -1.7936 -1.2050 -0.5286
18911TIP3    H278225   2.250   2.746  12.073 -0.2118 -0.8879  0.3588
18912TIP3   OH278226   6.364   2.724  11.157 -0.2131  0.2399  0.2135
18912TIP3    H178227   6.433   2.674  11.115  1.0509  0.3810  2.0041
18912TIP3    H278228   6.322   2.773  11.086 -0.3171 -1.9544 -1.3073
18913TIP3   OH278229   5.289   5.970   2.119 -0.3679  0.0612 -0.2222
18913TIP3    H178230   5.309   5.892   2.067 -0.4176  0.0071 -0.1610
18913TIP3    H278231   5.195   5.982   2.109 -0.4605 -0.2328  0.2409
18914TIP3   OH278232   3.837   6.783  15.882 -0.6336 -0.1478  0.5764
18914TIP3    H178233   3.923   6.803  15.845 -1.1246  1.2430  0.1185
18914TIP3    H278234   3.781   6.767  15.805 -0.6241 -1.8195  0.8918
18915TIP3   OH278235   3.298   5.798   2.408 -0.0488  0.0802  0.0271
18915TIP3    H178236   3.336   5.791   2.495  1.1491  1.9836 -0.2722
18915TIP3    H278237   3.328   5.720   2.362  0.4954 -0.2294  0.8915
18916TIP3   OH278238   4.513   0.540   0.003 -0.1859  0.1162  0.1469
18916TIP3    H178239   4.433   0.583  -0.028 -1.1311 -2.3497 -1.1168
18916TIP3    H278240   4.551   0.500  -0.076  0.5227 -1.4774  1.2461
18917TIP3   OH278241   6.051   1.775   2.683  0.4011 -0.4855 -0.6332
18917TIP3    H178242   6.110   1.719   2.632  1.9863 -0.1387  0.7252
18917TIP3    H278243   6.045   1.731   2.768 -0.3089  0.1384 -0.3563
18918TIP3   OH278244   3.502   3.950  15.072 -0.5413  1.0187 -0.0484
18918TIP3    H178245   3.435   4.017  15.081 -0.5312  0.9141  0.8674
18918TIP3    H278246   3.453   3.868  15.065 -0.5592  1.1223 -1.3272
18919TIP3   OH278247   3.090   2.279  14.180  0.2690 -0.0875  0.0100
18919TIP3    H178248   3.016   2.337  14.199  0.6064 -0.0149  1.1794
18919TIP3    H278249   3.073   2.200  14.231  1.2440  0.1339  0.7156
18920TIP3   OH278250   1.481   4.133   1.162 -0.0607 -0.3154  0.3969
18920TIP3    H178251   1.562   4.152   1.211 -0.5331 -2.0226  1.9709
18920TIP3    H278252   1.492   4.043   1.133 -0.4213  0.2224 -1.5078
18921TIP3   OH278253   0.686   1.266   1.459  0.0538  0.0502  0.0882
18921TIP3    H178254   0.593   1.248   1.451  0.2829 -0.7936 -0.8104
18921TIP3    H278255   0.707   1.246   1.550 -0.6189  0.1578  0.2682
18922TIP3   OH278256   4.379   6.471   2.700 -0.1615  0.0778 -0.0090
18922TIP3    H178257   4.295   6.427   2.685  0.4018 -0.5080 -1.6992
18922TIP3    H278258   4.402   6.508   2.615  0.1559  2.3409  0.9930
18923TIP3   OH278259   3.819   5.918  14.968 -0.0437  0.6075 -0.2711
18923TIP3    H178260   3.852   6.004  14.996 -2.2641  1.4728 -0.1113
18923TIP3    H278261   3.724   5.925  14.976 -0.5854 -0.6050 -3.7642
18924TIP3   OH278262   5.028   3.105  15.392 -0.7406  0.2117  0.2320
18924TIP3    H178263   4.962   3.037  15.407  0.2720 -0.6200  1.1155
18924TIP3    H278264   5.054   3.132  15.480  1.8708 -1.2913  0.0182
18925TIP3   OH278265   4.750   5.526  17.173 -0.0826 -0.1421 -0.0430
18925TIP3    H178266   4.685   5.470  17.131 -0.7068  0.7486 -0.2882
18925TIP3    H278267   4.808   5.554  17.101  0.0843 -0.2786  0.0372
18926TIP3   OH278268   3.781   0.291   4.914  0.0598 -0.0209  0.3560
18926TIP3    H178269   3.758   0.199   4.925 -2.0439  0.5786  1.5336
18926TIP3    H278270   3.865   0.300   4.957  0.1908 -1.3374  0.4287
18927TIP3   OH278271   4.600   0.368  16.202 -0.1690 -0.3789 -0.2474
18927TIP3    H178272   4.642   0.410  16.126  1.4880  2.3891  2.0017
18927TIP3    H278273   4.521   0.420  16.216  0.2061 -0.0393  0.6474
18928TIP3   OH278274   5.122   2.085  17.034 -0.1176  0.3054  0.0335
18928TIP3    H178275   5.144   2.169  16.995 -0.2477 -0.3835 -1.6234
18928TIP3    H278276   5.206   2.046  17.057  0.0120  0.4493 -0.1912
18929TIP3   OH278277   4.527   1.753  15.906 -0.7062 -0.7145 -0.5860
18929TIP3    H178278   4.572   1.681  15.862 -0.6216 -0.9208 -0.1685
18929TIP3    H278279   4.532   1.730  15.999 -3.0259 -1.5488 -0.6095
18930TIP3   OH278280   0.652   1.274  16.281  0.1428 -0.0421 -0.1531
18930TIP3    H178281   0.690   1.338  16.221 -2.1968 -1.6472 -3.7180
18930TIP3    H278282   0.723   1.212  16.298  0.9716  0.6559 -0.9793
18931TIP3   OH278283   5.814   0.089   6.070 -0.0917  0.4374  0.1877
18931TIP3    H178284   5.739   0.144   6.092 -1.2066 -1.0214  0.1917
18931TIP3    H278285   5.803   0.011   6.124  1.9744  0.5755  0.8940
18932TIP3   OH278286   2.788   1.312  14.874  0.1581 -0.3245  0.2634
18932TIP3    H178287   2.778   1.251  14.801  1.8745 -0.5588  0.2013
18932TIP3    H278288   2.832   1.261  14.942 -1.4667 -0.1371  1.5399
18933TIP3   OH278289   0.643   5.661  17.010  0.1854  0.5500 -0.0216
18933TIP3    H178290   0.732   5.675  17.041 -0.0262  1.4881  0.1994
18933TIP3    H278291   0.648   5.583  16.954  0.3376 -2.0921  3.3892
18934TIP3   OH278292   0.797   6.762  15.723 -0.6589 -0.3139 -0.4610
18934TIP3    H178293   0.866   6.697  15.728 -3.7763 -3.8565  2.9874
18934TIP3    H278294   0.817   6.825  15.792  0.4249  0.2792 -1.2919
18935TIP3   OH278295   0.725   6.721   1.982  0.1504  0.2112 -0.5471
18935TIP3    H178296   0.655   6.724   1.917 -0.3079  0.1389 -0.0628
18935TIP3    H278297   0.747   6.628   1.989 -1.1124 -0.0242  0.7680
18936TIP3   OH278298   0.737   3.909  16.916 -0.3388  0.2225 -0.0058
18936TIP3    H178299   0.691   3.830  16.888 -0.0652 -0.1979  0.7007
18936TIP3    H278300   0.814   3.876  16.963  2.4718  0.8126 -3.7271
18937TIP3   OH278301   4.125   1.049  13.723  0.3146  0.1969  0.3271
18937TIP3    H178302   4.061   1.121  13.721 -0.7290 -0.7037  0.3147
18937TIP3    H278303   4.181   1.069  13.798 -1.2320 -0.0071  1.6054
18938TIP3   OH278304   0.214   0.110  16.060  0.2095 -0.2982 -0.1504
18938TIP3    H178305   0.183   0.189  16.016 -0.2115 -0.5283 -0.2726
18938TIP3    H278306   0.163   0.105  16.140  0.2041 -0.4702 -0.1651
18939TIP3   OH278307   3.845   6.579  10.841 -0.0503 -0.6504 -0.2512
18939TIP3    H178308   3.859   6.626  10.758  3.3667 -2.1006 -0.6669
18939TIP3    H278309   3.850   6.647  10.908  1.1766  0.0689 -1.0299
18940TIP3   OH278310   4.158   1.789   1.846 -0.3263  0.0389 -0.3829
18940TIP3    H178311   4.173   1.775   1.753 -1.3883 -1.1048 -0.4080
18940TIP3    H278312   4.178   1.705   1.887 -1.7505 -0.0655  0.1581
18941TIP3   OH278313   3.148   6.488  14.278  0.0538  0.4118  0.5986
18941TIP3    H178314   3.193   6.417  14.323 -1.3137 -0.5816  0.4746
18941TIP3    H278315   3.103   6.536  14.348  1.0404  1.2382  0.6916
18942TIP3   OH278316   1.951   4.396   2.512 -0.5012 -0.6532  0.3679
18942TIP3    H178317   1.903   4.317   2.486  0.1663 -1.7714  2.3093
18942TIP3    H278318   1.893   4.468   2.490 -1.3623 -1.7122 -0.9852
18943TIP3   OH278319   5.434   6.438  12.724  0.0995  0.1732 -0.1424
18943TIP3    H178320   5.438   6.516  12.779  0.4244  0.1553 -0.1382
18943TIP3    H278321   5.525   6.422  12.699  0.0647 -0.3570  0.0713
18944TIP3   OH278322   3.077   0.858  11.577 -0.3443  0.2288 -0.5589
18944TIP3    H178323   3.126   0.931  11.539 -1.5535  2.0289  1.0898
18944TIP3    H278324   3.138   0.816  11.637 -0.3580  1.6107  0.4752
18945TIP3   OH278325   1.968   1.284  10.842  0.4213 -0.2415  0.0898
18945TIP3    H178326   1.951   1.248  10.756 -0.0098 -1.0252  0.4907
18945TIP3    H278327   1.942   1.214  10.903 -0.2297  0.6698  0.8814
18946TIP3   OH278328   5.599   0.124   2.044 -0.1603 -0.2901  0.4121
18946TIP3    H178329   5.541   0.185   2.090 -0.2769  0.6500 -0.9415
18946TIP3    H278330   5.549   0.095   1.968  0.2708 -1.3179  0.5072
18947TIP3   OH278331   6.387   0.865  12.111  0.1608 -0.1907  0.2414
18947TIP3    H178332   6.404   0.802  12.181  0.6562 -1.1113 -0.6788
18947TIP3    H278333   6.422   0.823  12.032  0.8500  1.4061 -0.3405
18948TIP3   OH278334   5.460   4.358  16.472  0.2150 -0.5089 -0.0139
18948TIP3    H178335   5.405   4.313  16.536 -0.6002  0.7056  0.1687
18948TIP3    H278336   5.493   4.435  16.518 -1.6088  1.2354 -1.4316
18949TIP3   OH278337   2.373   4.105  12.419 -0.4359 -0.1555 -0.2155
18949TIP3    H178338   2.382   4.019  12.460  0.3347 -0.2955 -0.6599
18949TIP3    H278339   2.314   4.089  12.344 -1.4656  0.0083  0.5350
18950TIP3   OH278340   4.888   2.774  14.341  0.5625  0.2910 -0.0576
18950TIP3    H178341   4.853   2.862  14.325 -0.0877  0.2008  0.7667
18950TIP3    H278342   4.893   2.733  14.255 -0.4394  0.6573 -0.2933
18951TIP3   OH278343   4.351   2.292  15.492 -0.3476  0.0094  0.8821
18951TIP3    H178344   4.423   2.230  15.479  1.2112  1.4756  2.0863
18951TIP3    H278345   4.272   2.240  15.477  0.9326 -1.6391 -0.5854
18952TIP3   OH278346   2.510   0.543   6.218 -0.7871  0.3734  0.0238
18952TIP3    H178347   2.415   0.547   6.203 -0.6494 -0.9099 -1.4851
18952TIP3    H278348   2.524   0.463   6.268 -0.3653 -0.4130 -1.3087
18953TIP3   OH278349   1.111   5.952  11.147  0.2216 -0.2766 -0.0807
18953TIP3    H178350   1.162   5.994  11.077 -0.5055 -1.2544 -1.2375
18953TIP3    H278351   1.031   5.922  11.104 -1.1480  0.7808  1.5946
18954TIP3   OH278352   1.213   1.337  12.096 -0.2816 -0.2433  0.1110
18954TIP3    H178353   1.135   1.393  12.101 -0.3382 -0.4151  1.6355
18954TIP3    H278354   1.225   1.304  12.185  1.6744 -0.0572 -0.0383
18955TIP3   OH278355   5.347   2.785  14.522 -0.2869  0.6734  0.7684
18955TIP3    H178356   5.317   2.705  14.565 -2.3978  0.6596 -0.5407
18955TIP3    H278357   5.423   2.813  14.572 -0.1232 -1.5710  1.8977
18956TIP3   OH278358   0.791   4.712   4.402 -0.3394  0.8474  0.1802
18956TIP3    H178359   0.851   4.639   4.418 -2.3244 -0.7434  0.7381
18956TIP3    H278360   0.838   4.768   4.340  0.9140 -1.3382 -0.9689
18957TIP3   OH278361   4.196   0.114  17.005  0.0199 -0.8005  0.0009
18957TIP3    H178362   4.183   0.043  16.943 -2.0989 -0.3947 -0.1016
18957TIP3    H278363   4.126   0.103  17.069  0.6606  0.2353  0.9255
18958TIP3   OH278364   5.578   5.763   5.692 -0.1107 -0.1340 -0.2475
18958TIP3    H178365   5.549   5.851   5.667 -0.4002  0.1176  0.9161
18958TIP3    H278366   5.539   5.705   5.626  0.8521  0.6835 -1.5693
18959TIP3   OH278367   5.276   1.417   4.181 -0.5226 -0.2570  1.1134
18959TIP3    H178368   5.278   1.421   4.085 -1.2345 -1.4571  1.0175
18959TIP3    H278369   5.317   1.498   4.210 -4.3045  2.4097 -0.2045
18960TIP3   OH278370   0.991   6.575  15.783 -0.1675  0.4249 -0.1388
18960TIP3    H178371   0.965   6.487  15.809  0.2129  0.2425 -0.3728
18960TIP3    H278372   1.059   6.562  15.716  0.5693  0.8873  0.5020
18961TIP3   OH278373   5.365   5.514   2.194  0.3882  0.0194 -0.1568
18961TIP3    H178374   5.399   5.475   2.274 -0.4271 -0.1044  0.1348
18961TIP3    H278375   5.373   5.609   2.208 -0.1791  0.0104  0.2712
18962TIP3   OH278376   1.969   5.895   1.802 -0.0843  0.1111 -0.5438
18962TIP3    H178377   1.936   5.811   1.772  0.1769 -0.0752 -0.3186
18962TIP3    H278378   1.990   5.881   1.894 -3.1428  1.3260  0.4470
18963TIP3   OH278379   2.190   2.573  11.644 -0.0939  0.1298  0.1679
18963TIP3    H178380   2.095   2.584  11.635  0.1379  1.4127 -1.1912
18963TIP3    H278381   2.224   2.593  11.556  1.4753  0.2823  0.7842
18964TIP3   OH278382   5.038   6.179  14.037  0.2689 -0.3421 -0.0494
18964TIP3    H178383   5.095   6.111  14.001  0.2289 -0.4839  0.1559
18964TIP3    H278384   5.012   6.231  13.960 -0.4212 -1.0930 -0.3405
18965TIP3   OH278385   1.251   2.662   0.905  0.2262 -0.1705  0.5846
18965TIP3    H178386   1.177   2.664   0.966 -0.3021 -1.4425  0.0207
18965TIP3    H278387   1.328   2.667   0.961 -0.2395 -1.9051  1.4460
18966TIP3   OH278388   4.307   0.706  13.026  0.3499 -0.0786  0.3928
18966TIP3    H178389   4.305   0.621  13.070  1.2246  0.5240  1.6542
18966TIP3    H278390   4.341   0.687  12.939 -0.9693 -1.2286  0.0819
18967TIP3   OH278391   4.838   3.253  16.387 -0.4729 -0.1333 -0.2596
18967TIP3    H178392   4.841   3.183  16.321  2.5993  0.7601 -1.2686
18967TIP3    H278393   4.758   3.302  16.367 -0.9188 -1.3684 -1.6886
18968TIP3   OH278394   2.687   1.102   2.471  0.4128 -0.1904 -0.4877
18968TIP3    H178395   2.603   1.061   2.452  1.8585 -4.1548  0.6964
18968TIP3    H278396   2.696   1.170   2.405 -3.1098 -0.4394 -1.4340
18969TIP3   OH278397   6.720   4.277  12.928 -0.3509  0.1400 -0.3679
18969TIP3    H178398   6.687   4.311  12.845 -1.6660  0.4978  0.2702
18969TIP3    H278399   6.642   4.261  12.980  0.4972  1.8457  1.5494
18970TIP3   OH278400   4.027   1.488   5.010  0.2239 -0.2273 -0.4340
18970TIP3    H178401   4.059   1.398   5.024 -1.7733 -1.0017 -0.5182
18970TIP3    H278402   3.978   1.508   5.089 -1.8477 -0.3918 -1.6055
18971TIP3   OH278403   6.401   3.635   3.229 -0.0959 -0.0593  0.4855
18971TIP3    H178404   6.371   3.550   3.198  3.9166 -1.8007  0.6923
18971TIP3    H278405   6.402   3.691   3.152  0.2031 -1.2043 -0.3557
18972TIP3   OH278406   4.558   5.575   0.632  0.0523 -0.0203  0.4474
18972TIP3    H178407   4.466   5.550   0.632 -0.1036  0.5470  0.1945
18972TIP3    H278408   4.594   5.536   0.552 -0.0380  0.0204  0.3871
18973TIP3   OH278409   4.407   5.844  16.162 -0.0999 -0.6717  0.1208
18973TIP3    H178410   4.444   5.758  16.184 -0.0161 -1.1329 -1.6605
18973TIP3    H278411   4.378   5.880  16.246 -0.7407 -2.7213  0.8411
18974TIP3   OH278412   5.448   4.499   2.220 -0.0030  0.4852  0.1728
18974TIP3    H178413   5.413   4.500   2.130 -1.4242 -0.7732  0.6530
18974TIP3    H278414   5.465   4.591   2.240 -0.0273  0.8316 -1.2515
18975TIP3   OH278415   3.547   3.330  15.033  0.1462 -0.1606 -0.4407
18975TIP3    H178416   3.458   3.311  15.006  0.3032 -1.8853  0.1293
18975TIP3    H278417   3.541   3.353  15.126  0.4793 -2.4213  0.1961
18976TIP3   OH278418   2.563   3.061   6.186 -0.0755  0.6347 -0.6863
18976TIP3    H178419   2.589   3.148   6.214  0.5462 -0.4616  2.6031
18976TIP3    H278420   2.579   3.005   6.262  1.1399 -2.7143 -3.1252
18977TIP3   OH278421   5.906   1.277  11.333 -0.1868 -0.2114  0.9409
18977TIP3    H178422   5.903   1.373  11.331  0.8468 -0.1361 -1.9582
18977TIP3    H278423   5.823   1.250  11.293 -0.1644 -0.5011  1.0857
18978TIP3   OH278424   1.540   6.607  11.199 -0.2347 -0.2853 -0.3693
18978TIP3    H178425   1.555   6.641  11.110  1.1523  1.7554  0.5653
18978TIP3    H278426   1.449   6.630  11.218 -0.0712  0.7131 -0.7042
18979TIP3   OH278427   1.795   3.080  16.411  0.3174  0.1366  0.1006
18979TIP3    H178428   1.881   3.036  16.409  1.8999  2.7786  2.3445
18979TIP3    H278429   1.777   3.092  16.504 -0.9046  2.5311 -0.3868
18980TIP3   OH278430   2.144   6.411  12.777  0.2154 -0.1341  0.0727
18980TIP3    H178431   2.157   6.332  12.724 -1.7511 -0.5409  0.1314
18980TIP3    H278432   2.210   6.405  12.846 -1.8611 -3.4461  2.0212
18981TIP3   OH278433   5.980   6.042  12.448 -0.5604 -0.2455  0.5785
18981TIP3    H178434   5.901   6.037  12.501 -1.2562  0.9461 -0.2853
18981TIP3    H278435   6.013   6.131  12.462 -0.4661 -0.0842 -0.5282
18982TIP3   OH278436   3.145   1.541   2.686  0.0531 -0.0706 -0.3002
18982TIP3    H178437   3.070   1.574   2.637 -0.5841 -2.2010 -0.8802
18982TIP3    H278438   3.221   1.577   2.640 -0.5628  1.1501 -0.4178
18983TIP3   OH278439   1.857   5.895   5.436  0.3383 -0.1817 -0.5545
18983TIP3    H178440   1.850   5.901   5.531 -2.5940 -0.2671 -0.6807
18983TIP3    H278441   1.864   5.801   5.418 -4.0211 -0.6955 -0.4945
18984TIP3   OH278442   3.666   1.061   3.614 -0.1685 -0.7158 -0.2981
18984TIP3    H178443   3.655   1.082   3.521 -0.5187  0.5003 -0.0080
18984TIP3    H278444   3.731   1.124   3.645  0.5712 -1.6656  0.1022
18985TIP3   OH278445   4.332   1.222   2.941 -0.2361 -0.4225 -0.0511
18985TIP3    H178446   4.376   1.283   2.882  1.7928 -1.0539  0.7469
18985TIP3    H278447   4.311   1.274   3.018  0.6215 -0.4898  0.2358
18986TIP3   OH278448   5.041   6.699   4.085 -0.2560  0.3550 -0.4401
18986TIP3    H178449   5.089   6.782   4.082  0.4780 -0.0759 -0.8762
18986TIP3    H278450   4.992   6.696   4.003 -1.8566  1.2564  0.4327
18987TIP3   OH278451   3.654   1.304  13.463 -0.1465  0.2422  0.4494
18987TIP3    H178452   3.711   1.240  13.420  0.0833  1.3302 -0.9235
18987TIP3    H278453   3.672   1.294  13.557 -0.0880 -1.6535  0.2663
18988TIP3   OH278454   2.538   3.502   5.347  0.3186 -0.4665 -0.9783
18988TIP3    H178455   2.533   3.458   5.432  0.3356  0.5682 -0.4224
18988TIP3    H278456   2.453   3.544   5.337  0.6812  0.3098 -0.9506
18989TIP3   OH278457   2.756   5.799  15.463  0.5943  0.7762  0.4118
18989TIP3    H178458   2.769   5.886  15.500  0.0049  0.4334  1.4499
18989TIP3    H278459   2.809   5.742  15.518  0.1237  0.3343  0.4102
18990TIP3   OH278460   2.187   2.285  11.665  0.2491 -0.0763 -0.1054
18990TIP3    H178461   2.202   2.379  11.668  1.5278  0.0490 -4.1502
18990TIP3    H278462   2.275   2.246  11.670 -0.1897 -1.0069  0.6829
18991TIP3   OH278463   6.604   0.337   1.186  0.2679 -0.1125 -0.0528
18991TIP3    H178464   6.560   0.339   1.101  0.9385 -1.6601 -0.4832
18991TIP3    H278465   6.695   0.313   1.165 -0.2127 -3.6796  1.2438
18992TIP3   OH278466   2.867   6.563  11.502 -0.1439  0.0407 -0.5433
18992TIP3    H178467   2.946   6.617  11.510 -0.3174  0.1618  0.5024
18992TIP3    H278468   2.896   6.475  11.526  0.0183 -0.2472 -1.7248
18993TIP3   OH278469   6.585   4.789   5.588  0.2842  0.3739  0.5937
18993TIP3    H178470   6.593   4.861   5.525  2.2183  0.1593  0.5206
18993TIP3    H278471   6.621   4.824   5.669  1.2768 -0.4795  0.5478
18994TIP3   OH278472   2.252   5.437   3.024  0.5614 -0.1824 -0.5231
18994TIP3    H178473   2.263   5.374   2.952 -0.6696 -1.6302  0.4869
18994TIP3    H278474   2.333   5.431   3.074  0.6811 -0.5402 -0.7530
18995TIP3   OH278475   2.663   3.830  16.204  0.0219  0.3966  0.1522
18995TIP3    H178476   2.622   3.867  16.125  0.0212  2.0039  0.8571
18995TIP3    H278477   2.601   3.764  16.234  0.2496 -0.6110 -1.4457
18996TIP3   OH278478   4.742   3.941  10.365 -0.2572 -0.0667 -0.4337
18996TIP3    H178479   4.693   3.874  10.317 -1.4372  1.2148 -1.0891
18996TIP3    H278480   4.684   4.017  10.365  1.0907  0.9969  0.1986
18997TIP3   OH278481   4.416   2.379  15.144  0.0031 -0.0030  0.2964
18997TIP3    H178482   4.339   2.334  15.179  0.8142 -1.5551  0.1490
18997TIP3    H278483   4.480   2.310  15.131  0.5093  0.8497 -2.1501
18998TIP3   OH278484   2.496   2.761   1.696  0.3924 -0.3060 -0.4735
18998TIP3    H178485   2.497   2.666   1.691 -1.1207 -0.2916 -2.0290
18998TIP3    H278486   2.501   2.790   1.605  1.3140  1.1241  0.0032
18999TIP3   OH278487   0.108   0.531   2.177 -0.1132 -0.1422 -0.2476
18999TIP3    H178488   0.034   0.492   2.223 -1.4700  1.4952 -0.9365
18999TIP3    H278489   0.135   0.464   2.114  1.4264 -2.2020  2.3770
19000TIP3   OH278490   6.521   2.288  14.377 -0.2683 -0.0493  0.5450
19000TIP3    H178491   6.430   2.258  14.379 -1.7149  3.5221 -1.6657
19000TIP3    H278492   6.528   2.348  14.451  0.2147 -0.0984  0.5389
19001TIP3   OH278493   0.979   2.198  11.842  0.3181  0.7452  0.3944
19001TIP3    H178494   0.889   2.228  11.832  0.8066  1.9853 -0.3696
19001TIP3    H278495   1.012   2.189  11.753  0.2113 -2.1469  0.5390
19002TIP3   OH278496   0.568   3.709   4.250  0.1397  0.1197 -0.1434
19002TIP3    H178497   0.661   3.710   4.226  0.2454 -1.7951  0.0203
19002TIP3    H278498   0.523   3.673   4.173 -0.6593  2.1483 -0.6824
19003TIP3   OH278499   3.727   6.789   2.562  0.3767 -0.3696 -0.5280
19003TIP3    H178500   3.693   6.703   2.588  1.9600 -0.4845  1.3909
19003TIP3    H278501   3.678   6.852   2.615 -0.7048 -0.0343 -1.8528
19004TIP3   OH278502   6.540   4.840   2.139 -0.2721  0.1448 -0.2474
19004TIP3    H178503   6.575   4.797   2.061 -0.2566  1.3159 -0.9215
19004TIP3    H278504   6.445   4.830   2.131 -0.3922  1.6934 -1.3463
19005TIP3   OH278505   4.330   6.355   4.302 -0.4802  0.4388 -0.7488
19005TIP3    H178506   4.336   6.347   4.397  0.2769 -0.3479 -0.8548
19005TIP3    H278507   4.373   6.439   4.282  0.2219  0.1578 -0.4681
19006TIP3   OH278508   0.397   6.310   5.812  0.2250  0.6952 -0.0992
19006TIP3    H178509   0.370   6.344   5.897  1.4539 -2.3688  1.6967
19006TIP3    H278510   0.481   6.352   5.795 -0.2741  1.7238 -0.1031
19007TIP3   OH278511   2.644   1.576   6.221 -0.6887  0.1389 -0.0099
19007TIP3    H178512   2.662   1.514   6.151 -1.9758 -0.0664 -0.1918
19007TIP3    H278513   2.691   1.541   6.297 -2.4394 -1.8722  0.2608
19008TIP3   OH278514   1.273   6.007  11.706 -0.2559  0.4609 -0.4425
19008TIP3    H178515   1.226   5.951  11.643  0.6813 -1.8654  0.8361
19008TIP3    H278516   1.226   5.994  11.788 -0.4102  2.1313 -0.2365
19009TIP3   OH278517   3.394   0.457   5.507  0.1247 -0.2511  0.5938
19009TIP3    H178518   3.313   0.456   5.455  1.4123 -0.8787 -1.5233
19009TIP3    H278519   3.458   0.502   5.452  1.5880 -0.9966  1.6025
19010TIP3   OH278520   2.427   5.423  16.951  0.2388  0.3755  0.0378
19010TIP3    H178521   2.361   5.492  16.955  0.8480  0.9417  0.9117
19010TIP3    H278522   2.397   5.358  17.014 -0.7239 -0.5441 -1.3296
19011TIP3   OH278523   3.490   6.774   3.694 -0.4503  0.1400 -0.5582
19011TIP3    H178524   3.519   6.789   3.603 -1.3898  0.0477 -0.8834
19011TIP3    H278525   3.467   6.861   3.726  0.7695  0.3052 -0.0796
19012TIP3   OH278526   1.809   1.382  14.197  1.0904 -0.4811  0.4681
19012TIP3    H178527   1.747   1.310  14.182 -0.0628  0.0553  2.2825
19012TIP3    H278528   1.878   1.368  14.133 -0.2241 -1.9149 -0.7179
19013TIP3   OH278529   1.717   0.369   2.761  0.1193  0.6078  0.1964
19013TIP3    H178530   1.654   0.418   2.814 -1.9132  1.1853 -2.5091
19013TIP3    H278531   1.683   0.280   2.760  0.3492  0.5207  0.1600
19014TIP3   OH278532   1.424   6.315  17.110 -0.3082 -0.0470 -0.4673
19014TIP3    H178533   1.369   6.314  17.188 -0.2548 -0.3096 -0.4338
19014TIP3    H278534   1.512   6.298  17.142 -0.2751 -0.0879 -0.5783
19015TIP3   OH278535   2.092   6.091   1.364 -0.8770 -0.1239 -0.2983
19015TIP3    H178536   2.113   6.131   1.448 -1.8786  0.5419 -0.3500
19015TIP3    H278537   2.121   6.155   1.299 -2.6510  0.6576 -0.3798
19016TIP3   OH278538   2.055   5.322  12.175  0.4996 -0.1273 -0.1711
19016TIP3    H178539   2.134   5.276  12.145  1.5064  1.7793 -0.5920
19016TIP3    H278540   2.064   5.326  12.270  0.3446 -0.8421 -0.1145
19017TIP3   OH278541   0.841   3.641   1.537  0.1981 -0.3272  0.0878
19017TIP3    H178542   0.791   3.710   1.493 -0.5705  0.3422  1.9436
19017TIP3    H278543   0.896   3.687   1.600  0.1430 -1.3451  0.9168
19018TIP3   OH278544   5.388   3.313  14.502  0.2343  0.5102 -0.4655
19018TIP3    H178545   5.442   3.261  14.443  0.7756  1.1635 -0.5623
19018TIP3    H278546   5.439   3.392  14.518  1.4549 -0.8159  3.1485
19019TIP3   OH278547   1.158   1.560  15.121 -0.2260 -0.0522 -0.1564
19019TIP3    H178548   1.144   1.467  15.100  0.5562 -0.5835  1.5322
19019TIP3    H278549   1.253   1.571  15.122 -0.3064  1.0981 -1.5382
19020TIP3   OH278550   4.863   2.861   1.443  0.3404 -0.1354 -0.0479
19020TIP3    H178551   4.796   2.904   1.496  0.7231 -0.4919  0.7410
19020TIP3    H278552   4.825   2.776   1.421  0.7006 -0.5208  0.7813
19021TIP3   OH278553   2.386   4.250   5.263  0.2985  0.4877 -0.3167
19021TIP3    H178554   2.330   4.325   5.239  0.2258  0.7320  0.5824
19021TIP3    H278555   2.473   4.287   5.272  0.2408  0.4966  0.2534
19022TIP3   OH278556   0.098   0.288   1.134 -0.1281  0.3438 -0.1284
19022TIP3    H178557   0.085   0.199   1.101 -1.1268  0.4138  0.0479
19022TIP3    H278558   0.185   0.286   1.173 -0.6418 -0.9339  1.0403
19023TIP3   OH278559   4.538   4.137   1.424 -0.2650 -0.3924 -0.1805
19023TIP3    H178560   4.513   4.216   1.473  0.7488  1.5961 -2.6529
19023TIP3    H278561   4.455   4.105   1.387 -0.3455  1.2634 -1.5249
19024TIP3   OH278562   0.262   5.540   5.075  0.6882  0.3232  0.4593
19024TIP3    H178563   0.179   5.558   5.120 -0.1229 -2.5668  0.3677
19024TIP3    H278564   0.243   5.553   4.982 -0.0008 -1.1387  0.3573
19025TIP3   OH278565   1.338   2.100   5.015  0.5067  0.4379 -0.3459
19025TIP3    H178566   1.336   2.010   4.984  0.0997  1.1212 -2.4492
19025TIP3    H278567   1.302   2.096   5.104 -0.5487 -1.2983 -0.8071
19026TIP3   OH278568   3.894   3.635  15.776 -0.0432 -0.3474 -0.0221
19026TIP3    H178569   3.928   3.667  15.693  1.8874 -0.5424  0.6383
19026TIP3    H278570   3.844   3.708  15.812  0.2279  0.1979 -0.7392
19027TIP3   OH278571   0.426   3.267   2.913  0.0034 -0.3164 -1.1046
19027TIP3    H178572   0.493   3.300   2.852  0.9473 -0.0109  0.0676
19027TIP3    H278573   0.428   3.172   2.902  1.6685 -0.4354 -0.0747
19028TIP3   OH278574   2.054   5.289  16.127  0.3463  0.1748  0.1433
19028TIP3    H178575   2.042   5.375  16.087  0.8206  0.3011  0.2590
19028TIP3    H278576   1.978   5.239  16.100 -0.2123  0.7976  0.5258
19029TIP3   OH278577   4.330   4.398  10.613 -0.4721  0.6389 -0.3072
19029TIP3    H178578   4.328   4.482  10.658 -1.7933  1.1427 -1.2553
19029TIP3    H278579   4.248   4.356  10.635  0.4904 -0.7758  0.7623
19030TIP3   OH278580   2.854   4.844   4.252  0.7358  0.0840 -0.4582
19030TIP3    H178581   2.805   4.762   4.263  3.4928 -1.9184 -1.8738
19030TIP3    H278582   2.902   4.832   4.170  3.0548  2.1246  0.4931
19031TIP3   OH278583   1.919   4.001   2.393 -0.1488  0.8511 -0.1689
19031TIP3    H178584   1.908   3.956   2.309  0.0972 -0.0271  0.2608
19031TIP3    H278585   1.938   3.931   2.456  0.6186  1.5939  0.4515
19032TIP3   OH278586   0.823   0.039  11.644  0.8332  0.0677  0.1306
19032TIP3    H178587   0.797   0.108  11.705  0.6678  0.2010 -0.0919
19032TIP3    H278588   0.864   0.085  11.571  2.7777 -0.1913  0.9859
19033TIP3   OH278589   0.037   5.160  12.391  0.2615 -0.1907  0.4545
19033TIP3    H178590   0.048   5.154  12.296 -0.1144  0.0505  0.3963
19033TIP3    H278591  -0.001   5.076  12.416  0.9338 -0.4970  0.4776
19034TIP3   OH278592   1.111   1.877  13.117 -0.4067 -0.2443  0.1071
19034TIP3    H178593   1.122   1.813  13.187  1.5290 -0.3174 -0.2155
19034TIP3    H278594   1.102   1.824  13.038  0.0026 -0.1323 -0.0143
19035TIP3   OH278595   5.206   4.189   3.145  0.9431 -0.5435  0.0237
19035TIP3    H178596   5.187   4.096   3.159  0.7128 -0.4270  0.4963
19035TIP3    H278597   5.238   4.220   3.230 -2.0321  0.5647  0.8543
19036TIP3   OH278598   4.990   0.766   5.246 -0.6984  0.4442  0.0906
19036TIP3    H178599   5.019   0.839   5.191  0.4848 -0.7336 -0.9093
19036TIP3    H278600   5.068   0.743   5.297 -0.6403 -1.0062 -0.6180
19037TIP3   OH278601   4.862   1.419   0.107 -0.0759  0.1522 -0.5634
19037TIP3    H178602   4.793   1.355   0.089 -0.9883  1.0038 -0.1465
19037TIP3    H278603   4.933   1.367   0.146 -0.3082 -0.7917 -1.3775
19038TIP3   OH278604   6.385   0.702   1.886  0.1062  0.2069  0.1629
19038TIP3    H178605   6.439   0.674   1.813 -1.5390  0.9700 -1.4396
19038TIP3    H278606   6.369   0.795   1.870 -1.2926  0.1053  0.8063
19039TIP3   OH278607   6.347   4.362   3.171 -0.3331 -0.6029 -0.1223
19039TIP3    H178608   6.352   4.416   3.249 -0.8452 -0.3590 -0.2543
19039TIP3    H278609   6.376   4.275   3.200  0.0634 -0.3664  0.1899
19040TIP3   OH278610   5.556   6.495   5.225 -0.4285  0.3711 -0.0436
19040TIP3    H178611   5.482   6.435   5.237  0.5705 -0.7079  0.9514
19040TIP3    H278612   5.629   6.450   5.267  0.9824  1.0559 -1.6897
19041TIP3   OH278613   4.346   2.122   3.851 -0.0529 -0.1883 -0.7000
19041TIP3    H178614   4.331   2.157   3.939  2.4302  1.2123 -0.7501
19041TIP3    H278615   4.283   2.169   3.796  0.2645  1.0268 -0.0622
19042TIP3   OH278616   3.856   4.256   3.670 -0.2991  0.3178 -0.4173
19042TIP3    H178617   3.911   4.263   3.748 -0.2766 -0.1829 -0.3822
19042TIP3    H278618   3.807   4.338   3.668 -0.0512  0.4809 -0.0683
19043TIP3   OH278619   6.123   0.046   5.681 -0.0550  0.4765 -0.2136
19043TIP3    H178620   6.125   0.024   5.774 -1.1173  0.8541 -0.0983
19043TIP3    H278621   6.075   0.128   5.676  0.7257  0.9120 -1.0206
19044TIP3   OH278622   5.387   2.767   1.885  0.2722  0.0016  0.1027
19044TIP3    H178623   5.309   2.818   1.909 -0.0584  0.6203 -2.1026
19044TIP3    H278624   5.353   2.685   1.851  0.7144 -0.6743  1.2275
19045TIP3   OH278625   3.628   6.432  16.829 -0.0208 -0.6757 -0.4025
19045TIP3    H178626   3.544   6.387  16.818 -0.7122  0.4764  0.0210
19045TIP3    H278627   3.606   6.513  16.874  1.5865 -1.2762  1.6246
19046TIP3   OH278628   2.080   5.129  11.550  0.4015  0.3762  0.0563
19046TIP3    H178629   2.009   5.078  11.512  0.2984 -1.5101  2.5263
19046TIP3    H278630   2.154   5.115  11.491 -0.1827 -1.0589 -0.3728
19047TIP3   OH278631   5.899   0.237  12.604 -0.6862  0.3237  0.4693
19047TIP3    H178632   5.902   0.255  12.510  0.6236  1.8019  0.7381
19047TIP3    H278633   5.974   0.180  12.620 -0.0572  1.2101  0.7887
19048TIP3   OH278634   4.599   1.509   5.412  0.7542 -0.3213  0.1133
19048TIP3    H178635   4.573   1.526   5.503  0.3701 -0.6002  0.0571
19048TIP3    H278636   4.676   1.565   5.398  1.0508 -0.5585  0.7355
19049TIP3   OH278637   1.490   2.064   6.618 -0.7100  0.3080  0.5720
19049TIP3    H178638   1.499   2.157   6.639  0.0351  0.9067 -2.0188
19049TIP3    H278639   1.401   2.055   6.584 -0.0210  0.6616 -1.4707
19050TIP3   OH278640   2.430   4.958  15.936 -0.8076 -0.5546 -0.4844
19050TIP3    H178641   2.501   5.014  15.968 -1.5928  0.9865 -1.3159
19050TIP3    H278642   2.428   4.885  15.998  1.2251 -0.4489 -0.2203
19051TIP3   OH278643   5.714   5.220  15.621  0.4606 -0.3902 -0.1964
19051TIP3    H178644   5.739   5.272  15.544  0.9078 -0.4631 -0.1025
19051TIP3    H278645   5.763   5.259  15.693 -0.9280  0.4956  0.3043
19052TIP3   OH278646   5.307   1.884   4.752 -0.9347  0.3620  0.1931
19052TIP3    H178647   5.334   1.917   4.666  0.8413 -0.0391  0.5581
19052TIP3    H278648   5.278   1.962   4.799 -1.5560  0.6386 -0.6361
19053TIP3   OH278649   2.144   4.369  16.674 -0.2248  0.0043 -0.6382
19053TIP3    H178650   2.173   4.288  16.631  0.6022 -0.9034  1.4752
19053TIP3    H278651   2.184   4.439  16.623  2.0715 -1.0794 -0.4375
19054TIP3   OH278652   6.558   5.532  14.993  0.2090 -0.1891  0.2550
19054TIP3    H178653   6.652   5.535  15.010  0.0442 -1.3548  1.4868
19054TIP3    H278654   6.519   5.585  15.063  0.0522  2.6580 -1.7964
19055TIP3   OH278655   3.573   3.515  14.505 -0.2374  0.1386 -0.0253
19055TIP3    H178656   3.593   3.602  14.471  0.0946 -0.2259 -0.8049
19055TIP3    H278657   3.494   3.526  14.557  0.1184  1.0058  0.3512
19056TIP3   OH278658   2.880   1.473   5.301  0.3128  0.6333  0.0853
19056TIP3    H178659   2.829   1.482   5.381  0.1420  0.0239  0.0576
19056TIP3    H278660   2.890   1.378   5.290  0.1725  0.6988 -0.7088
19057TIP3   OH278661   4.337   5.243  14.514 -0.2925  0.2901  0.2564
19057TIP3    H178662   4.294   5.218  14.432 -0.4025  1.1097  0.0528
19057TIP3    H278663   4.315   5.336  14.525  1.1742  0.6603  0.3038
19058TIP3   OH278664   5.781   2.487  17.089  0.7027  0.1476 -0.0049
19058TIP3    H178665   5.794   2.405  17.137  0.8262 -0.0121 -0.3087
19058TIP3    H278666   5.824   2.473  17.005 -0.3127  0.0834 -0.5286
19059TIP3   OH278667   2.907   0.108  14.518  0.0466  0.8248 -0.0180
19059TIP3    H178668   2.826   0.103  14.568 -0.2447  0.8639 -0.4845
19059TIP3    H278669   2.923   0.201  14.508  0.7963  0.8409  1.1022
19060TIP3   OH278670   4.757   5.598  11.477  0.4060 -0.0403  0.2806
19060TIP3    H178671   4.722   5.665  11.419 -2.8442 -0.2768  1.7146
19060TIP3    H278672   4.773   5.522  11.421 -0.0401  0.5783 -0.7009
19061TIP3   OH278673   6.053   6.782   5.949 -0.3830  0.1508  0.1384
19061TIP3    H178674   5.973   6.834   5.957 -2.0205 -2.1275 -0.4501
19061TIP3    H278675   6.024   6.698   5.913  2.5827 -0.0468 -2.1585
19062TIP3   OH278676   0.274   3.777  11.332 -0.5533 -0.3280 -0.1908
19062TIP3    H178677   0.355   3.752  11.287 -0.2540 -0.2616  0.3064
19062TIP3    H278678   0.280   3.872  11.341 -1.4752 -0.0913 -1.6622
19063TIP3   OH278679   4.542   4.105   3.379  0.7959 -0.3189  0.2040
19063TIP3    H178680   4.544   4.197   3.354 -1.2728 -0.0549  0.8619
19063TIP3    H278681   4.575   4.104   3.469  1.5684 -0.3366 -0.0754
19064TIP3   OH278682   2.285   0.896   1.502 -0.0667  0.2857 -0.2737
19064TIP3    H178683   2.247   0.896   1.590  1.4236 -2.6762  0.4866
19064TIP3    H278684   2.322   0.984   1.493 -0.9813  0.9424  1.7091
19065TIP3   OH278685   2.114   5.742   5.281  0.1625 -0.1301 -0.2154
19065TIP3    H178686   2.067   5.741   5.364  0.0750  3.1327 -0.0846
19065TIP3    H278687   2.206   5.744   5.307  0.1798 -0.3867 -0.2550
19066TIP3   OH278688   2.630   1.318  12.687 -0.1763 -0.1833 -0.0722
19066TIP3    H178689   2.607   1.225  12.680 -0.0644 -0.1312 -1.3917
19066TIP3    H278690   2.655   1.330  12.779  0.6245 -1.6472 -0.0717
19067TIP3   OH278691   2.493   5.320  15.151  0.6593  0.4358  0.1618
19067TIP3    H178692   2.536   5.400  15.119  0.7832 -0.3927 -1.8508
19067TIP3    H278693   2.479   5.267  15.073 -0.5060 -1.0205  1.3024
19068TIP3   OH278694   5.536   5.556  14.753 -0.3506 -0.2776  0.6109
19068TIP3    H178695   5.520   5.629  14.812 -0.1828 -0.1188  0.4590
19068TIP3    H278696   5.553   5.597  14.668 -4.5604 -0.4996 -0.5958
19069TIP3   OH278697   4.885   2.533   5.910 -0.7219 -0.3548 -0.0225
19069TIP3    H178698   4.944   2.608   5.908  2.1619 -2.4731 -1.1885
19069TIP3    H278699   4.866   2.520   6.003 -0.8146  1.3907  0.2430
19070TIP3   OH278700   0.568   3.847   2.544  0.8020  0.2126  0.4073
19070TIP3    H178701   0.528   3.802   2.619 -0.3297  3.1856  1.7739
19070TIP3    H278702   0.501   3.907   2.514  1.9812  0.5546 -1.7153
19071TIP3   OH278703   4.611   4.869   0.722 -0.1518 -0.2031 -0.4200
19071TIP3    H178704   4.698   4.911   0.723 -0.2132 -0.0628  0.9010
19071TIP3    H278705   4.571   4.899   0.640  1.2364 -0.6851 -1.3085
19072TIP3   OH278706   1.146   5.104  11.947 -0.4045  0.5096  0.0661
19072TIP3    H178707   1.196   5.043  11.892 -0.3614  0.7132 -0.1190
19072TIP3    H278708   1.199   5.184  11.949 -1.4856  1.3076 -1.4671
19073TIP3   OH278709   2.936   5.417   3.099 -0.4291  0.5239 -0.2646
19073TIP3    H178710   2.959   5.474   3.172 -0.7353  1.8897 -1.1919
19073TIP3    H278711   3.007   5.429   3.035 -1.6801  1.7694 -1.4909
19074TIP3   OH278712   0.146   3.056   3.643  0.2775 -0.5128 -0.1014
19074TIP3    H178713   0.230   3.056   3.597  0.5791  0.6943  0.4098
19074TIP3    H278714   0.080   3.049   3.573  0.7813 -1.8393 -0.4845
19075TIP3   OH278715   0.406   4.221   3.610 -0.4834  0.9624  0.5739
19075TIP3    H178716   0.498   4.230   3.583 -0.4836 -0.7781 -0.1582
19075TIP3    H278717   0.367   4.305   3.589  0.2472  0.7318 -2.1843
19076TIP3   OH278718   2.828   4.838   2.374 -0.1565  0.3549  0.3139
19076TIP3    H178719   2.804   4.880   2.292 -2.3795  0.9511  1.2046
19076TIP3    H278720   2.843   4.911   2.435  1.3383 -0.0785  0.5079
19077TIP3   OH278721   5.416   2.850   4.346  0.1632  0.3984  0.1097
19077TIP3    H178722   5.440   2.893   4.264 -1.7799  0.2131 -0.5932
19077TIP3    H278723   5.483   2.782   4.358  0.8453  0.8621 -0.9636
19078TIP3   OH278724   1.584   0.873  11.025  0.2214  0.1467  0.1076
19078TIP3    H178725   1.491   0.851  11.020  0.4662 -1.1083  0.6211
19078TIP3    H278726   1.594   0.918  11.109 -0.2908  2.4162 -0.9698
19079TIP3   OH278727   4.284   2.855   6.752 -0.0693  0.0766  0.8974
19079TIP3    H178728   4.223   2.920   6.786 -1.3477 -1.5321  1.8277
19079TIP3    H278729   4.256   2.772   6.792  0.4304 -1.3625 -1.5501
19080TIP3   OH278730   4.048   3.388   2.082  0.6545  0.3500 -0.3805
19080TIP3    H178731   4.135   3.409   2.119  0.4288 -0.4522  0.6383
19080TIP3    H278732   4.067   3.360   1.993  1.7446 -2.1030  0.5335
19081TIP3   OH278733   1.128   2.841   5.850  0.1209  0.4632 -0.2497
19081TIP3    H178734   1.054   2.783   5.831  0.3511 -0.9661  2.6399
19081TIP3    H278735   1.155   2.875   5.765 -0.7113 -2.8682 -2.0089
19082TIP3   OH278736   5.828   4.369  16.759 -0.1184  0.5745  0.4042
19082TIP3    H178737   5.874   4.289  16.786  0.9638  0.4759 -1.5028
19082TIP3    H278738   5.898   4.432  16.742 -0.7821  1.0437 -0.7105
19083TIP3   OH278739   5.001   0.645  13.558 -0.2880 -0.2517 -0.4690
19083TIP3    H178740   4.961   0.567  13.595 -2.4753  0.7956 -0.4045
19083TIP3    H278741   5.078   0.614  13.511 -1.8456 -2.6432 -1.6246
19084TIP3   OH278742   0.686   0.480   0.501 -0.0320 -0.4362 -0.0469
19084TIP3    H178743   0.774   0.449   0.524  0.4484  1.2027  0.4625
19084TIP3    H278744   0.679   0.462   0.407  0.4311 -1.5260  0.1119
19085TIP3   OH278745   0.504   0.058  12.009  0.3153 -0.4288  0.6265
19085TIP3    H178746   0.598   0.051  11.998  0.2319 -0.2316 -0.2409
19085TIP3    H278747   0.467  -0.010  11.953 -0.1028  0.4392 -0.1801
19086TIP3   OH278748   0.293   4.135   0.118  0.3678  0.4979 -0.0821
19086TIP3    H178749   0.277   4.220   0.160 -1.8210 -0.1785  0.6064
19086TIP3    H278750   0.302   4.073   0.191 -0.3650 -0.2004 -0.5641
19087TIP3   OH278751   6.513   1.519  12.839  0.2492  0.2161  0.3867
19087TIP3    H178752   6.573   1.591  12.817 -0.0318  1.4138  3.0879
19087TIP3    H278753   6.458   1.555  12.909 -1.3978 -1.9540  0.2984
19088TIP3   OH278754   3.329   6.051   5.717  0.0571  0.0862 -0.0961
19088TIP3    H178755   3.279   6.126   5.748  0.0834  0.1809 -0.2825
19088TIP3    H278756   3.283   6.024   5.637  0.5208  0.3986 -0.4695
19089TIP3   OH278757   5.287   1.832  11.765 -0.3239 -1.1896  0.2614
19089TIP3    H178758   5.372   1.837  11.810  0.6010  2.2903 -1.4419
19089TIP3    H278759   5.222   1.843  11.834  0.9529  1.8631  1.1713
19090TIP3   OH278760   4.979   1.179  16.999  0.0103  0.2214  0.6806
19090TIP3    H178761   4.974   1.248  16.932 -0.8146  0.5062  1.0337
19090TIP3    H278762   4.994   1.099  16.948 -0.1675  0.4943  0.1874
19091TIP3   OH278763   1.302   6.654   5.945 -0.3659 -0.0551  0.0399
19091TIP3    H178764   1.290   6.744   5.913 -1.1998 -0.1785  0.0002
19091TIP3    H278765   1.284   6.660   6.039 -0.9317 -0.2803 -0.0540
19092TIP3   OH278766   4.550   6.302  12.374  0.2327 -0.4963 -0.2196
19092TIP3    H178767   4.560   6.345  12.289  0.1303 -1.3610 -0.6864
19092TIP3    H278768   4.529   6.373  12.435  0.6880  0.1861 -0.8415
19093TIP3   OH278769   4.093   6.437  15.214 -0.5881  0.2033 -0.1859
19093TIP3    H178770   4.063   6.514  15.263 -1.1607 -0.1569  0.0453
19093TIP3    H278771   4.086   6.365  15.277  0.3488  0.0239 -0.2648
19094TIP3   OH278772   2.867   2.593   4.229 -0.0540  0.4312 -0.5006
19094TIP3    H178773   2.809   2.527   4.266  0.7113 -0.0823 -0.1881
19094TIP3    H278774   2.809   2.651   4.179 -0.8748  0.1553  0.1061
19095TIP3   OH278775   3.390   1.409   4.194  0.2461 -0.0117 -0.4302
19095TIP3    H178776   3.368   1.395   4.286  1.5211 -0.6530 -0.2041
19095TIP3    H278777   3.479   1.443   4.195  0.5749 -0.7827 -1.4602
19096TIP3   OH278778   6.240   3.603   3.837 -0.1539  0.0254 -0.4273
19096TIP3    H178779   6.191   3.566   3.910  0.5689 -0.3795 -0.1401
19096TIP3    H278780   6.177   3.605   3.765 -0.9951  0.8280  0.3093
19097TIP3   OH278781   3.224   0.453  15.674  0.3906  0.1641 -0.2845
19097TIP3    H178782   3.142   0.458  15.723  0.0426  0.2545 -0.8649
19097TIP3    H278783   3.206   0.391  15.603  1.4698 -1.4195  0.7673
19098TIP3   OH278784   2.590   2.355   2.650  0.4474  0.1085 -0.3157
19098TIP3    H178785   2.633   2.276   2.683  2.3734  0.2471 -2.2725
19098TIP3    H278786   2.558   2.330   2.563  0.3126  1.2252 -0.6010
19099TIP3   OH278787   1.430   0.613  14.068 -0.2093 -0.4249  0.5993
19099TIP3    H178788   1.520   0.631  14.040 -0.3814 -1.0381 -0.3862
19099TIP3    H278789   1.424   0.517  14.070 -1.0563 -0.4046 -0.1103
19100TIP3   OH278790   3.092   3.785   1.551  0.0434  0.4148  0.2482
19100TIP3    H178791   3.013   3.775   1.497  1.2828  1.9285 -1.9583
19100TIP3    H278792   3.067   3.849   1.617 -1.6598 -1.8450  2.0042
19101TIP3   OH278793   2.129   0.566  15.075  0.2237 -0.1135  0.6973
19101TIP3    H178794   2.148   0.592  15.165 -0.7256  1.1923  0.5451
19101TIP3    H278795   2.035   0.548  15.075  0.3910 -1.0713  0.1770
19102TIP3   OH278796   4.200   4.456  14.041 -0.0976 -0.2472 -0.3638
19102TIP3    H178797   4.256   4.476  14.115 -0.6280 -2.2993  0.6675
19102TIP3    H278798   4.252   4.480  13.964  0.9127  0.8424  0.6181
19103TIP3   OH278799   1.765   2.863  13.504 -0.2976 -0.2655 -0.0365
19103TIP3    H178800   1.741   2.899  13.418 -0.9660  1.4718  0.8304
19103TIP3    H278801   1.861   2.864  13.504 -0.2946  0.1289 -0.5997
19104TIP3   OH278802   5.967   3.923  12.590  0.1215 -0.0944  0.0757
19104TIP3    H178803   6.041   3.863  12.594  0.2907  0.1830  1.3239
19104TIP3    H278804   5.999   4.004  12.630 -1.2176 -0.3921  1.8683
19105TIP3   OH278805   2.052   1.788  15.728  0.7717 -0.2564  0.4499
19105TIP3    H178806   2.102   1.838  15.793  1.0699  0.7482 -0.5025
19105TIP3    H278807   2.034   1.852  15.658 -0.3155 -1.0674 -0.0414
19106TIP3   OH278808   4.010   0.128  13.590  0.0756 -0.0974  0.1421
19106TIP3    H178809   3.941   0.080  13.544  0.6158 -0.5941 -0.1563
19106TIP3    H278810   4.088   0.073  13.581  0.3823  0.1959  0.9530
19107TIP3   OH278811   1.432   2.308  11.470  0.0721  0.0737  0.0291
19107TIP3    H178812   1.379   2.360  11.410  0.4691 -0.0193 -0.4059
19107TIP3    H278813   1.495   2.262  11.414  0.2226 -0.2835  0.4799
19108TIP3   OH278814   5.022   2.304  16.792  0.1770 -0.0203 -0.1701
19108TIP3    H178815   4.967   2.257  16.855  0.4108  0.5142  0.4577
19108TIP3    H278816   5.055   2.379  16.842 -0.4735  1.0036 -1.2474
19109TIP3   OH278817   4.001   2.634  10.095  0.3700  0.1473 -0.3865
19109TIP3    H178818   3.942   2.697  10.136  0.4251  1.0369 -1.6167
19109TIP3    H278819   4.088   2.654  10.131  0.3098  0.4700 -0.4196
19110TIP3   OH278820   3.423   3.437  16.943 -0.0001 -0.6900  0.1926
19110TIP3    H178821   3.436   3.407  17.033  0.8297  0.8237  0.6139
19110TIP3    H278822   3.512   3.452  16.910 -0.3496  1.7124  0.2010
19111TIP3   OH278823   3.165   5.580  10.838  0.3677 -0.3020  0.5290
19111TIP3    H178824   3.079   5.621  10.846  0.4532  0.6636 -2.3250
19111TIP3    H278825   3.146   5.488  10.818 -0.1244  0.2604 -1.8315
19112TIP3   OH278826   5.215   0.930   1.246  0.2794  0.0274  0.0503
19112TIP3    H178827   5.150   0.997   1.224  1.2194  1.0924  0.4082
19112TIP3    H278828   5.210   0.923   1.341  0.2758 -0.3266  0.0247
19113TIP3   OH278829   0.917   2.964   4.872 -1.0098 -0.2674  0.1484
19113TIP3    H178830   0.894   3.039   4.816 -2.4778  0.3894  1.5571
19113TIP3    H278831   0.868   2.891   4.836 -1.2183 -0.0677  0.0250
19114TIP3   OH278832   4.429   1.690   5.743 -0.0070 -0.4919 -0.2503
19114TIP3    H178833   4.499   1.695   5.808 -1.1715 -1.8781  1.1990
19114TIP3    H278834   4.397   1.780   5.735  1.9703  0.2038 -1.0628
19115TIP3   OH278835   5.029   2.008  12.458  0.0068  0.0323 -0.4927
19115TIP3    H178836   5.115   2.049  12.453 -0.0419  0.0402 -1.5069
19115TIP3    H278837   4.993   2.017  12.369 -0.9794 -0.0960 -0.1191
19116TIP3   OH278838   0.062   5.262   3.077  0.4336 -0.2813 -0.6305
19116TIP3    H178839  -0.003   5.213   3.126  1.5541  0.3415  1.6466
19116TIP3    H278840   0.070   5.216   2.993 -1.0927 -1.8237  0.0183
19117TIP3   OH278841   5.133   0.453   4.669  0.0497 -0.5320  0.1575
19117TIP3    H178842   5.092   0.400   4.600  0.3120  0.0909 -0.4859
19117TIP3    H278843   5.189   0.391   4.717 -1.0759 -1.2381  0.6061
19118TIP3   OH278844   4.302   6.043   1.905 -0.4477  0.2036  0.4467
19118TIP3    H178845   4.290   6.100   1.981 -2.0559 -0.5478  0.7945
19118TIP3    H278846   4.219   6.049   1.857  0.1229 -0.2450 -0.6275
19119TIP3   OH278847   6.055   6.414   5.585  0.1628  0.1085 -0.1675
19119TIP3    H178848   6.100   6.404   5.669 -0.3764 -2.0174 -0.0715
19119TIP3    H278849   6.069   6.331   5.540 -1.7989  0.1836 -1.0392
19120TIP3   OH278850   5.010   5.590   1.774 -0.0245  0.6678 -0.7079
19120TIP3    H178851   5.089   5.628   1.814  0.5568 -0.0027 -1.1955
19120TIP3    H278852   4.951   5.664   1.762  0.4156  1.1337 -0.0706
19121TIP3   OH278853   3.864   1.519   5.228  0.2655  0.0848  0.6852
19121TIP3    H178854   3.784   1.489   5.185 -0.6243 -0.1575  2.4120
19121TIP3    H278855   3.833   1.561   5.309  1.7904  1.4451  0.6195
19122TIP3   OH278856   2.061   5.169   1.986 -0.3872  0.2998 -0.1179
19122TIP3    H178857   2.136   5.188   2.043 -0.4725  0.5806 -0.0938
19122TIP3    H278858   2.057   5.074   1.982  1.2380  0.2430 -1.7706
19123TIP3   OH278859   1.807   0.630   4.144 -0.3043 -0.1343  0.0878
19123TIP3    H178860   1.850   0.685   4.078 -0.1167 -0.9346 -0.4720
19123TIP3    H278861   1.760   0.692   4.200  2.1888  0.8767  1.2115
19124TIP3   OH278862   2.955   1.470   4.256 -0.8582  0.8042  0.1566
19124TIP3    H178863   2.893   1.488   4.326  0.7625 -2.2526  2.6519
19124TIP3    H278864   3.029   1.528   4.274 -0.7371  0.5260  0.5694
19125TIP3   OH278865   2.644   2.069   2.725  0.1683 -0.2947  0.4568
19125TIP3    H178866   2.718   2.023   2.685  0.5115  1.1463 -0.6561
19125TIP3    H278867   2.568   2.038   2.676  0.4098  0.3529 -0.3567
19126TIP3   OH278868   2.698   4.355  11.936  0.6293 -0.3229  0.3630
19126TIP3    H178869   2.656   4.300  11.870  4.3483 -1.6850 -1.1453
19126TIP3    H278870   2.694   4.443  11.900  0.1480 -0.6215 -0.3296
19127TIP3   OH278871   1.086   2.357   0.859  0.6880 -0.2462 -0.1896
19127TIP3    H178872   1.172   2.391   0.834  0.4893 -0.5256 -1.2710
19127TIP3    H278873   1.055   2.311   0.782  0.2191 -1.4547  0.7003
19128TIP3   OH278874   5.247   4.699   0.820  1.0021  0.2416 -0.0230
19128TIP3    H178875   5.289   4.636   0.761  0.2290  0.3405 -0.6963
19128TIP3    H278876   5.158   4.709   0.785 -0.2997 -1.4845  2.5120
19129TIP3   OH278877   5.305   1.895  12.139 -0.1688 -0.4293  0.0442
19129TIP3    H178878   5.336   1.885  12.229  0.4980 -2.8681 -0.3740
19129TIP3    H278879   5.210   1.881  12.145 -0.5248  1.8273  0.6235
19130TIP3   OH278880   4.288   4.254   5.290  0.3909 -0.3223 -0.3449
19130TIP3    H178881   4.227   4.198   5.241  0.8533 -0.7531 -0.4396
19130TIP3    H278882   4.255   4.252   5.380  0.5667 -0.9931 -0.2873
19131TIP3   OH278883   6.279   4.206  13.267 -0.3003  0.2206 -0.0051
19131TIP3    H178884   6.309   4.245  13.349  0.3881  0.7283 -0.4802
19131TIP3    H278885   6.230   4.129  13.293 -0.6201  0.7207  0.9081
19132TIP3   OH278886   5.422   0.084  16.572  0.0936 -0.1604 -0.1368
19132TIP3    H178887   5.448  -0.002  16.539 -2.1316 -1.3420  1.0093
19132TIP3    H278888   5.442   0.081  16.666  0.4464  0.7770 -0.1663
19133TIP3   OH278889   3.637   6.244   4.255 -0.0447  0.1226 -0.4210
19133TIP3    H178890   3.710   6.255   4.315 -1.3032  0.3818  1.1111
19133TIP3    H278891   3.640   6.151   4.231  0.0158 -0.1703  0.6726
19134TIP3   OH278892   0.092   6.794  15.212  0.4043  0.6479  0.1735
19134TIP3    H178893   0.181   6.773  15.183 -0.3539 -1.4451 -0.9173
19134TIP3    H278894   0.051   6.836  15.136  0.4978  1.7744  0.7331
19135TIP3   OH278895   4.727   4.814  14.321  0.7072  0.4951 -0.0168
19135TIP3    H178896   4.724   4.907  14.344  0.8954  0.5683 -0.2832
19135TIP3    H278897   4.820   4.792  14.320  0.6475  0.2065  0.4181
19136TIP3   OH278898   2.381   0.201  12.170 -0.2778 -0.1592  0.0901
19136TIP3    H178899   2.372   0.118  12.216  0.1981 -0.6314 -0.6577
19136TIP3    H278900   2.398   0.265  12.239  0.2060 -0.8185  0.5924
19137TIP3   OH278901   2.170   0.210  14.302  0.7139  0.2610  0.0654
19137TIP3    H178902   2.193   0.257  14.222  0.3447 -0.2283 -0.3392
19137TIP3    H278903   2.099   0.151  14.275  0.3241  0.3656  0.8415
19138TIP3   OH278904   5.698   0.017  15.824  0.4169  0.3293 -0.1883
19138TIP3    H178905   5.773   0.049  15.776  2.4690 -0.5752  2.1907
19138TIP3    H278906   5.661   0.094  15.866 -0.3203  0.8400 -1.6880
19139TIP3   OH278907   4.702   4.544   1.446 -0.5527  0.7473  0.2940
19139TIP3    H178908   4.776   4.605   1.444  0.0481  0.0091 -0.1380
19139TIP3    H278909   4.627   4.600   1.467 -0.4522  2.1185 -2.4772
19140TIP3   OH278910   2.220   2.885   4.558 -0.7737 -0.2453 -0.3150
19140TIP3    H178911   2.153   2.917   4.619 -0.8369  0.9017 -0.9578
19140TIP3    H278912   2.289   2.951   4.561  0.3740 -1.4273  0.3623
19141TIP3   OH278913   0.107   1.955   5.516 -0.1434 -0.6461 -0.2696
19141TIP3    H178914   0.129   1.862   5.517 -0.6834 -0.8051 -1.4365
19141TIP3    H278915   0.160   1.992   5.446  0.1005 -0.0527  0.2170
19142TIP3   OH278916   4.637   1.302   4.173 -0.2877  0.0346  0.0535
19142TIP3    H178917   4.569   1.322   4.108  1.6869  0.1894 -2.1193
19142TIP3    H278918   4.684   1.227   4.135  1.9466  1.1404  0.4624
19143TIP3   OH278919   4.428   0.241   2.876 -0.0225  0.1776  0.1294
19143TIP3    H178920   4.358   0.305   2.858 -0.3152 -0.5878 -1.6562
19143TIP3    H278921   4.381   0.161   2.902  0.1267 -0.4461 -1.4206
19144TIP3   OH278922   3.034   0.714  17.142 -0.4376 -0.1418 -0.0088
19144TIP3    H178923   3.060   0.732  17.232 -2.0103  0.1048  0.4205
19144TIP3    H278924   3.062   0.792  17.093 -1.3917  0.6507  0.6622
19145TIP3   OH278925   4.767   0.115   3.190 -0.0313  0.4578 -0.1124
19145TIP3    H178926   4.814   0.114   3.273  0.7994 -0.0291 -0.5767
19145TIP3    H278927   4.746   0.023   3.173  1.0196  0.3738 -1.1012
19146TIP3   OH278928   5.886   6.052   2.497  0.3493  0.5654  0.0148
19146TIP3    H178929   5.794   6.080   2.503  0.3527  0.3089  1.8855
19146TIP3    H278930   5.896   6.021   2.407 -1.4213  0.5150 -0.2007
19147TIP3   OH278931   0.220   0.205  14.429  0.2778 -0.1251  0.2072
19147TIP3    H178932   0.236   0.196  14.523  0.8693  0.6493  0.1958
19147TIP3    H278933   0.299   0.246  14.395 -1.1175  2.5616 -0.0811
19148TIP3   OH278934   2.843   1.596  15.061  0.4211  0.6555 -0.3668
19148TIP3    H178935   2.759   1.552  15.056  0.7097 -0.1222  1.1101
19148TIP3    H278936   2.869   1.609  14.969 -0.1944 -1.2525 -0.8508
19149TIP3   OH278937   4.277   2.909   0.211 -0.1570  0.0132  0.3455
19149TIP3    H178938   4.203   2.968   0.221 -0.5660 -0.7708  2.4029
19149TIP3    H278939   4.242   2.836   0.159 -1.1960 -0.8637  2.1980
19150TIP3   OH278940   1.532   6.477  12.885  0.4829  0.1384  0.0163
19150TIP3    H178941   1.562   6.536  12.955  1.4784  0.6978 -0.8379
19150TIP3    H278942   1.547   6.389  12.920  0.5734  0.4038  0.6684
19151TIP3   OH278943   1.436   5.624   0.040  0.1442  0.4277 -0.0319
19151TIP3    H178944   1.393   5.681   0.104  1.4868  0.2269  1.1172
19151TIP3    H278945   1.373   5.615  -0.031 -1.7023  0.1731  1.5277
19152TIP3   OH278946   3.042   2.608  12.821  0.1254  0.0251  0.2451
19152TIP3    H178947   3.013   2.614  12.912 -0.5020  1.0836  0.0039
19152TIP3    H278948   3.085   2.692  12.804  1.0029 -0.4988 -0.1897
19153TIP3   OH278949   4.964   5.873  12.246  0.7346  0.0818  0.0282
19153TIP3    H178950   4.948   5.871  12.340 -1.5875 -1.2930 -0.3050
19153TIP3    H278951   4.890   5.920  12.210  0.4548 -1.2512 -1.2484
19154TIP3   OH278952   6.453   0.555  11.365 -0.1178  0.3664 -0.0558
19154TIP3    H178953   6.457   0.498  11.289 -1.6360  1.5430 -1.0910
19154TIP3    H278954   6.385   0.515  11.420 -0.2042  0.4275 -0.1180
19155TIP3   OH278955   2.364   4.768  13.788 -0.0374  0.0359 -0.4843
19155TIP3    H178956   2.454   4.787  13.813  0.9052 -1.0733 -2.7442
19155TIP3    H278957   2.347   4.680  13.823 -0.7777  0.7764  1.1182
19156TIP3   OH278958   6.568   0.740  11.081  0.2887  0.3226 -0.3537
19156TIP3    H178959   6.492   0.684  11.090  0.4798 -0.1850 -1.7207
19156TIP3    H278960   6.542   0.807  11.018  0.8560  0.3353 -0.5862
19157TIP3   OH278961   3.887   2.540   3.055 -0.2897  0.4453 -0.3825
19157TIP3    H178962   3.859   2.617   3.006  0.7313  0.4197 -1.0429
19157TIP3    H278963   3.966   2.569   3.101 -1.7141  0.7553  2.0451
19158TIP3   OH278964   5.594   1.508   4.421 -0.5132 -0.4533  0.6992
19158TIP3    H178965   5.612   1.582   4.363  0.8229  0.2905  1.9943
19158TIP3    H278966   5.650   1.522   4.497  1.8982 -4.1820 -0.1072
19159TIP3   OH278967   1.241   1.966   5.569 -0.1888  0.0316  0.1780
19159TIP3    H178968   1.304   2.038   5.560 -2.5861  2.1002 -1.5862
19159TIP3    H278969   1.275   1.898   5.511  1.8516 -0.1307  1.4504
19160TIP3   OH278970   4.910   5.231  10.753 -0.5427 -0.1137  0.4431
19160TIP3    H178971   4.925   5.158  10.692  2.6548 -1.6735  2.8459
19160TIP3    H278972   4.895   5.307  10.696  0.7461 -1.7400 -2.2777
19161TIP3   OH278973   0.079   6.366  15.205  0.5133  0.0693  0.1649
19161TIP3    H178974   0.040   6.279  15.208  0.6270 -0.0784 -1.6668
19161TIP3    H278975   0.173   6.351  15.218  0.9347 -0.4617 -2.8338
19162TIP3   OH278976   5.169   2.369   4.715 -0.0713 -0.0924 -0.3523
19162TIP3    H178977   5.201   2.446   4.667  0.0127 -1.1185 -2.0197
19162TIP3    H278978   5.076   2.364   4.695 -0.3174  0.1936  0.6649
19163TIP3   OH278979   2.599   2.528  11.591  0.4022 -0.1648 -0.0535
19163TIP3    H178980   2.547   2.527  11.511  1.3695 -0.2844 -0.6883
19163TIP3    H278981   2.597   2.438  11.623  1.2707 -0.4452 -0.7715
19164TIP3   OH278982   2.117   2.962  16.704 -0.5286 -0.4765  0.1349
19164TIP3    H178983   2.036   2.967  16.755  0.3939  0.3529  1.5902
19164TIP3    H278984   2.186   2.958  16.770  0.6380 -0.9838 -1.0761
19165TIP3   OH278985   2.810   5.626   3.781 -0.8837  0.0379  0.0124
19165TIP3    H178986   2.890   5.623   3.834  0.1185  0.5800 -1.4174
19165TIP3    H278987   2.801   5.718   3.756  0.3170 -0.5764 -3.1150
19166TIP3   OH278988   3.147   1.252  14.430  0.1703 -0.3934  0.2278
19166TIP3    H178989   3.055   1.270  14.416 -0.3829 -1.8993  1.6009
19166TIP3    H278990   3.161   1.265  14.524  1.4035 -0.0258  0.0222
19167TIP3   OH278991   1.453   5.011   1.141  0.1090 -0.1628 -0.3620
19167TIP3    H178992   1.506   5.033   1.064 -2.2096  0.5441 -1.8461
19167TIP3    H278993   1.412   4.928   1.120 -0.8511  0.2236 -0.0865
19168TIP3   OH278994   6.550   2.166  11.272  0.1932  0.3802  0.3315
19168TIP3    H178995   6.626   2.136  11.222  0.6212  0.9601  0.6232
19168TIP3    H278996   6.555   2.117  11.354 -2.4870 -3.3345 -1.4133
19169TIP3   OH278997   0.119   2.952   3.072 -0.2447  0.0962 -0.5645
19169TIP3    H178998   0.032   2.913   3.068 -1.2740  1.7178  2.6074
19169TIP3    H278999   0.109   3.040   3.037  0.5988 -0.3176 -1.9079
19170TIP3   OH279000   2.241   1.270  14.462  0.1406  0.2024 -0.0642
19170TIP3    H179001   2.263   1.297  14.373  0.8216  0.8631  0.2960
19170TIP3    H279002   2.319   1.224  14.494  0.6760  1.6816  0.8649
19171TIP3   OH279003   3.604   4.051  14.586 -0.7577  0.1078  0.1787
19171TIP3    H179004   3.512   4.029  14.604 -0.7646  0.1247  0.1631
19171TIP3    H279005   3.627   4.113  14.655 -0.5306 -0.4937  0.6541
19172TIP3   OH279006   3.836   3.952   4.989  0.4236 -0.3929  0.0284
19172TIP3    H179007   3.839   4.041   5.023 -1.0021 -0.6322  0.8799
19172TIP3    H279008   3.743   3.937   4.971  0.8873 -0.9933 -2.1159
19173TIP3   OH279009   5.509   5.688  17.216 -0.7391  0.7458 -0.1674
19173TIP3    H179010   5.518   5.628  17.290 -1.1322  0.6693 -0.1805
19173TIP3    H279011   5.521   5.633  17.139  2.4286  1.2424 -0.1907
19174TIP3   OH279012   1.787   4.263   3.788 -0.2886 -0.1374  0.4511
19174TIP3    H179013   1.860   4.252   3.848  0.5140 -0.5766 -0.5661
19174TIP3    H279014   1.742   4.178   3.788  1.4784 -1.1846 -1.7519
19175TIP3   OH279015   3.895   6.115   0.560  0.7554  0.1869  0.2257
19175TIP3    H179016   3.873   6.143   0.649 -0.1827  0.2389 -0.0130
19175TIP3    H279017   3.961   6.178   0.531  0.8729  0.3319  0.7820
19176TIP3   OH279018   3.813   2.887  16.898  0.7382 -0.1576 -0.0549
19176TIP3    H179019   3.850   2.810  16.856  0.2022  0.6421 -2.1287
19176TIP3    H279020   3.860   2.895  16.980  2.5753 -1.2637 -0.9399
19177TIP3   OH279021   0.213   3.391   5.619  0.2277 -0.1170 -0.9342
19177TIP3    H179022   0.139   3.342   5.582  0.1919 -1.0139  0.2559
19177TIP3    H279023   0.290   3.358   5.572 -0.1522  1.2529 -2.6048
19178TIP3   OH279024   3.507   4.575   0.147  0.1125  0.2539  0.3792
19178TIP3    H179025   3.585   4.558   0.199  1.5048  1.1391 -1.3373
19178TIP3    H279026   3.482   4.489   0.112  0.4201  0.0017  0.7721
19179TIP3   OH279027   0.866   2.852  12.716  0.1307  0.7812  0.4040
19179TIP3    H179028   0.957   2.869  12.742  0.3878  1.0327 -0.6154
19179TIP3    H279029   0.816   2.923  12.755  0.2695  0.2865  1.5150
19180TIP3   OH279030   4.823   2.176  11.152  0.2705 -0.1228 -0.1087
19180TIP3    H179031   4.818   2.093  11.105  0.8096  0.4238 -1.1498
19180TIP3    H279032   4.769   2.237  11.101 -2.0059 -0.3450  1.8544
19181TIP3   OH279033   1.424   6.798   2.515 -0.0232 -0.5057 -0.1827
19181TIP3    H179034   1.409   6.887   2.483  0.2029  0.2617  1.7024
19181TIP3    H279035   1.418   6.743   2.437  0.2760  1.1968 -1.4671
19182TIP3   OH279036   0.367   6.359   0.351  0.3493  0.3213  0.7014
19182TIP3    H179037   0.411   6.353   0.436  0.4067  1.2970  0.7563
19182TIP3    H279038   0.330   6.272   0.337  2.6098 -0.6628  0.4707
19183TIP3   OH279039   1.166   5.998  12.953  0.2807  0.3179  0.2808
19183TIP3    H179040   1.255   5.971  12.930 -0.0251  0.3604 -1.0416
19183TIP3    H279041   1.171   6.093  12.960  0.1649  0.4009 -0.6656
19184TIP3   OH279042   6.292   5.968   2.579 -0.2012  0.0821 -0.3636
19184TIP3    H179043   6.384   5.954   2.560 -0.6004 -0.7735 -1.8753
19184TIP3    H279044   6.248   5.955   2.494 -1.9455 -1.8876  0.7446
19185TIP3   OH279045   3.805   1.848  13.172  0.3959 -0.4918  0.0161
19185TIP3    H179046   3.768   1.861  13.085  1.4343  0.2174 -0.3472
19185TIP3    H279047   3.837   1.757  13.171  0.2380 -0.5446 -0.2775
19186TIP3   OH279048   5.299   3.454  11.667 -0.3855 -0.4789 -0.3939
19186TIP3    H179049   5.381   3.491  11.634 -0.5451  0.5700  0.3217
19186TIP3    H279050   5.261   3.408  11.593 -0.5388  1.4411 -1.5758
19187TIP3   OH279051   5.154   5.758   2.357  0.1273  0.2162  0.9441
19187TIP3    H179052   5.170   5.675   2.403 -0.7163  0.3857  1.5627
19187TIP3    H279053   5.200   5.823   2.410 -0.4896  0.3528  1.3169
19188TIP3   OH279054   5.275   0.205   4.165 -0.9833  0.5000 -0.6719
19188TIP3    H179055   5.338   0.248   4.107 -0.5526  0.9048  0.0796
19188TIP3    H279056   5.305   0.114   4.170  0.6077  1.0498  1.0348
19189TIP3   OH279057   6.670   4.577   3.787  0.0681 -0.1693  0.0076
19189TIP3    H179058   6.679   4.641   3.857 -1.0542  0.4473 -0.3882
19189TIP3    H279059   6.755   4.578   3.742 -0.1426  1.5564 -0.4084
19190TIP3   OH279060   4.076   2.844   1.149  0.5329  0.0351  0.3552
19190TIP3    H179061   4.127   2.767   1.123 -1.6422 -1.3173 -0.1812
19190TIP3    H279062   4.063   2.892   1.067  1.3999  0.7173  0.5954
19191TIP3   OH279063   6.226   2.457   2.568  0.0597  0.6300 -0.2139
19191TIP3    H179064   6.267   2.490   2.648 -1.4407 -0.9718  1.3044
19191TIP3    H279065   6.279   2.381   2.544  1.1367  1.6970 -1.4333
19192TIP3   OH279066   5.355   0.628   1.222 -0.1989 -0.3906 -0.5297
19192TIP3    H179067   5.345   0.722   1.207  1.3441  0.1995  1.5906
19192TIP3    H279068   5.267   0.597   1.244 -0.5335  0.8120 -0.1174
19193TIP3   OH279069   3.766   4.016  14.978  0.0990  0.0765  0.2444
19193TIP3    H179070   3.805   4.050  15.059  1.5978 -1.1675  0.1148
19193TIP3    H279071   3.672   4.024  14.991  0.2216 -1.4289  2.7778
19194TIP3   OH279072   6.291   4.482   4.686  0.6845 -0.0467 -0.3208
19194TIP3    H179073   6.263   4.573   4.673 -0.9016 -0.2254  1.3997
19194TIP3    H279074   6.330   4.482   4.774 -2.5086 -1.6262  1.2427
19195TIP3   OH279075   0.956   4.845  11.261 -0.0721 -0.1484  0.1143
19195TIP3    H179076   0.985   4.786  11.331 -2.4392 -2.5911 -0.7813
19195TIP3    H279077   1.010   4.821  11.186 -0.0876 -0.1969  0.1184
19196TIP3   OH279078   5.844   2.058  12.602 -0.1082  0.3695  0.0450
19196TIP3    H179079   5.901   2.092  12.671 -0.3523 -0.9409  0.9193
19196TIP3    H279080   5.788   1.995  12.646 -2.1304  1.4765 -0.8286
19197TIP3   OH279081   4.823   2.132   5.963 -0.1457  0.4816 -0.2374
19197TIP3    H179082   4.842   2.043   5.994 -0.2951 -0.9242 -3.7001
19197TIP3    H279083   4.781   2.175   6.038  1.3055 -1.8000  2.0864
19198TIP3   OH279084   3.952   1.553   2.327 -0.1378 -0.2133  0.7039
19198TIP3    H179085   3.988   1.546   2.415  0.4062 -1.6854  0.4046
19198TIP3    H279086   3.906   1.470   2.314 -1.5512  0.6247  0.1612
19199TIP3   OH279087   3.977   2.869  15.084 -0.0651  0.1561  0.3053
19199TIP3    H179088   4.000   2.818  15.007  1.7648  0.4848  0.5873
19199TIP3    H279089   3.911   2.931  15.053  0.5156  0.1634 -0.9536
19200TIP3   OH279090   1.934   5.406   5.362  0.4544  0.0564  0.2328
19200TIP3    H179091   1.940   5.482   5.419 -0.3651  0.4940 -0.2397
19200TIP3    H279092   1.986   5.430   5.285 -1.2482  0.9147 -0.7142
19201TIP3   OH279093   6.754   5.656  15.274 -0.1928 -0.0046  0.2690
19201TIP3    H179094   6.811   5.696  15.209 -0.9645 -0.5563 -0.7638
19201TIP3    H279095   6.769   5.562  15.266 -0.0552 -0.0666  1.1284
19202TIP3   OH279096   5.791   2.316   4.531 -0.4799  0.2121  0.2617
19202TIP3    H179097   5.873   2.365   4.540  0.1475 -0.5097 -1.0865
19202TIP3    H279098   5.727   2.381   4.503 -0.1715  0.6421  0.5443
19203TIP3   OH279099   3.900   4.062   0.403  0.0281  0.2083  0.2720
19203TIP3    H179100   3.860   4.088   0.485 -1.6871 -0.3813 -0.3388
19203TIP3    H279101   3.834   4.079   0.336  1.3598  0.6295 -1.0125
19204TIP3   OH279102   4.633   1.728   5.963  0.1474 -0.0062 -0.4004
19204TIP3    H179103   4.559   1.781   5.993 -0.3274 -1.7452  1.6937
19204TIP3    H279104   4.655   1.672   6.037  2.8454 -0.3664 -1.3665
19205TIP3   OH279105   2.610   2.460   3.690 -0.3744 -0.3290  0.0009
19205TIP3    H179106   2.522   2.497   3.680 -0.4764 -0.5807 -0.0343
19205TIP3    H279107   2.667   2.536   3.695 -0.7225 -0.1263  1.2975
19206TIP3   OH279108   3.338   5.216  12.716  0.4833  0.3653 -0.1721
19206TIP3    H179109   3.423   5.213  12.761  0.7876 -1.0457 -0.7791
19206TIP3    H279110   3.278   5.173  12.777  1.0209 -2.1178 -1.2670
19207TIP3   OH279111   0.018   0.610  13.837  0.0235 -0.2718  0.3574
19207TIP3    H179112   0.097   0.618  13.891  1.4026  0.3508 -1.6528
19207TIP3    H279113   0.001   0.698  13.805 -0.1601 -0.7819 -1.0159
19208TIP3   OH279114   5.201   3.081  11.600  0.1459 -0.0911  0.1276
19208TIP3    H179115   5.294   3.088  11.620  0.1343  1.4429 -0.1920
19208TIP3    H279116   5.184   3.152  11.538 -1.2572 -0.2481  0.2828
19209TIP3   OH279117   3.035   5.085  16.511  0.0812  0.3865 -0.2281
19209TIP3    H179118   2.943   5.061  16.509  0.1198  0.0620  0.9656
19209TIP3    H279119   3.062   5.085  16.419 -0.7622 -0.8959 -0.5026
19210TIP3   OH279120   5.499   2.222   4.956 -0.4276 -0.3334  0.0298
19210TIP3    H179121   5.509   2.134   4.919 -0.9868 -0.0060 -0.9393
19210TIP3    H279122   5.565   2.226   5.026  3.3802  0.2666 -3.2314
19211TIP3   OH279123   2.427   4.391  13.292  0.0313  0.8618 -0.1126
19211TIP3    H179124   2.369   4.461  13.260 -3.1722 -0.6025  1.8901
19211TIP3    H279125   2.430   4.327  13.221  0.0084  1.4229 -0.6190
19212TIP3   OH279126   2.581   2.827   4.686  0.2978  0.1438  0.0361
19212TIP3    H179127   2.645   2.782   4.631 -0.2908 -1.2129  0.4131
19212TIP3    H279128   2.559   2.906   4.637  1.1070 -0.1459 -0.8265
19213TIP3   OH279129   5.663   4.546  16.654  0.5505 -0.0918 -0.6057
19213TIP3    H179130   5.717   4.467  16.662 -0.5740 -0.7952  0.2612
19213TIP3    H279131   5.603   4.542  16.729  0.1947  1.3742 -0.7815
19214TIP3   OH279132   0.796   0.520  12.111  0.1491 -0.3247  0.1435
19214TIP3    H179133   0.737   0.589  12.139 -0.0266  0.2203 -1.4415
19214TIP3    H279134   0.739   0.454  12.071  0.3700 -1.1376  1.1193
19215TIP3   OH279135   6.682   2.151   2.429  0.3176 -0.5739  0.3095
19215TIP3    H179136   6.725   2.234   2.407  0.0569 -0.9636 -2.0004
19215TIP3    H279137   6.672   2.153   2.524  1.9580  1.2239  0.5193
19216TIP3   OH279138   1.431   1.013   6.245 -0.2154  0.1090  0.3667
19216TIP3    H179139   1.395   0.938   6.199 -0.4912  0.6415 -0.3058
19216TIP3    H279140   1.375   1.086   6.220  0.6342  0.7330  0.2283
19217TIP3   OH279141   2.300   5.595  11.332 -0.0154 -0.7407 -0.0885
19217TIP3    H179142   2.344   5.658  11.389 -0.7714  3.1655 -3.3449
19217TIP3    H279143   2.361   5.582  11.259 -1.7220  0.0079 -1.7301
19218TIP3   OH279144   6.528   1.756  15.693  0.1669 -0.6919 -0.0885
19218TIP3    H179145   6.487   1.674  15.665  0.9279 -1.1511  0.1345
19218TIP3    H279146   6.599   1.729  15.750  0.2709  0.1405  0.1817
19219TIP3   OH279147   0.390   6.761  14.696  0.2149  0.1858  0.3861
19219TIP3    H179148   0.328   6.730  14.630 -1.3340  0.0348  1.8718
19219TIP3    H279149   0.393   6.856  14.683  0.0090  0.1499  0.0534
19220TIP3   OH279150   5.710   4.138   0.135 -0.3464 -0.5160  0.2983
19220TIP3    H179151   5.746   4.099   0.215  2.0554 -1.1788 -1.0097
19220TIP3    H279152   5.642   4.198   0.166  0.3220 -0.9397  2.8027
19221TIP3   OH279153   5.419   3.933   5.491 -0.0006  0.0329  0.0165
19221TIP3    H179154   5.506   3.954   5.459 -0.1339  3.1352  1.3368
19221TIP3    H279155   5.420   3.958   5.584 -1.8461 -1.3711  0.4954
19222TIP3   OH279156   5.036   0.984  11.556  0.2559  0.1578  0.3821
19222TIP3    H179157   5.101   0.934  11.606 -0.9981 -0.6905  1.2163
19222TIP3    H279158   4.971   0.920  11.529  0.1371  0.8628 -1.1265
19223TIP3   OH279159   0.834   4.189  11.410 -0.0371 -0.0636 -0.2343
19223TIP3    H179160   0.753   4.142  11.393  0.0363 -0.3543  0.2018
19223TIP3    H279161   0.834   4.262  11.348 -0.4854 -0.2388 -0.4360
19224TIP3   OH279162   1.853   2.920  13.784 -0.3301 -0.7222 -0.9967
19224TIP3    H179163   1.870   3.013  13.800  0.7687 -0.9605 -0.7113
19224TIP3    H279164   1.768   2.919  13.739 -0.1873  0.4374 -1.3308
19225TIP3   OH279165   2.615   3.280  13.578 -0.0591 -0.1943  0.6158
19225TIP3    H179166   2.634   3.370  13.605  0.6090 -0.2496  0.3510
19225TIP3    H279167   2.552   3.289  13.506  2.1879  0.2370 -1.4088
19226TIP3   OH279168   6.297   4.545   4.050  0.3980  0.4367  0.3109
19226TIP3    H179169   6.352   4.595   3.990  1.5720 -0.3846  0.6481
19226TIP3    H279170   6.325   4.573   4.137 -0.8654  1.1773  0.4944
19227TIP3   OH279171   5.678   4.667  16.396  0.2243 -0.5107  0.1057
19227TIP3    H179172   5.769   4.691  16.413  0.3744 -0.5749 -0.5736
19227TIP3    H279173   5.647   4.628  16.478  0.3984  0.7194  0.7682
19228TIP3   OH279174   1.061   0.035  16.696  0.1004  0.5644 -0.2109
19228TIP3    H179175   1.098  -0.046  16.730  1.2958  0.5563 -1.4416
19228TIP3    H279176   0.986   0.006  16.643 -0.7981  0.4667  1.0528
19229TIP3   OH279177   6.654   1.192  12.882  0.0888 -0.1284 -0.3148
19229TIP3    H179178   6.669   1.280  12.846  0.3476 -0.0648 -0.0568
19229TIP3    H279179   6.731   1.176  12.937  1.9422 -1.9591 -3.1122
19230TIP3   OH279180   4.798   2.144   5.308  0.1214 -0.3298  0.4543
19230TIP3    H179181   4.854   2.158   5.232 -0.2926 -0.2571  0.1615
19230TIP3    H279182   4.711   2.128   5.271  0.0325 -0.8766  0.8850
19231TIP3   OH279183   6.006   2.734   1.485  0.4420 -0.1760  0.4434
19231TIP3    H179184   5.940   2.725   1.554 -1.3467 -1.8816 -1.3667
19231TIP3    H279185   5.989   2.819   1.445 -0.3662 -0.4124  0.2844
19232TIP3   OH279186   0.804   1.036  10.586 -0.1499 -0.1037  0.2845
19232TIP3    H179187   0.731   1.070  10.637  0.0878  0.0540  0.5272
19232TIP3    H279188   0.764   0.975  10.524 -0.3438 -1.2101  1.4312
19233TIP3   OH279189   2.987   0.065   5.052 -0.0328  0.1948 -0.6708
19233TIP3    H179190   2.933   0.046   5.128  0.2564 -0.3103 -0.5863
19233TIP3    H279191   3.005   0.158   5.058 -1.9486  0.6632 -1.3910
19234TIP3   OH279192   6.794   4.460  13.697  0.0839  0.9945  0.4572
19234TIP3    H179193   6.872   4.405  13.690 -1.3786 -0.9298 -2.0362
19234TIP3    H279194   6.786   4.478  13.791  1.9296 -1.1477  1.1074
19235TIP3   OH279195   4.441   2.234  10.847  0.2954  0.2596  0.0370
19235TIP3    H179196   4.420   2.164  10.785  0.7215 -2.6661  2.8730
19235TIP3    H279197   4.388   2.213  10.924  1.6984  2.1141  1.6013
19236TIP3   OH279198   3.663   3.792   5.412  0.3413  0.9611  0.0247
19236TIP3    H179199   3.709   3.721   5.366 -0.5438  0.6573 -0.4241
19236TIP3    H279200   3.573   3.760   5.420  0.2372  1.4799  1.0136
19237TIP3   OH279201   3.914   0.419  13.923  0.3235 -0.1110 -0.2113
19237TIP3    H179202   3.845   0.355  13.908  0.5433 -0.2543 -0.6071
19237TIP3    H279203   3.974   0.408  13.850 -0.2889  1.4166 -0.9744
19238TIP3   OH279204   4.642   5.138   1.561 -0.4103  0.0153 -0.1591
19238TIP3    H179205   4.586   5.079   1.511  1.0027 -0.3465 -1.4086
19238TIP3    H279206   4.663   5.089   1.641 -4.6109  1.5109  2.1538
19239TIP3   OH279207   2.740   5.686   6.189  0.1490  0.1819  0.3392
19239TIP3    H179208   2.791   5.728   6.119  1.2556 -0.8245  0.5143
19239TIP3    H279209   2.716   5.757   6.247 -1.3500  1.1652 -1.3644
19240TIP3   OH279210   4.745   2.066   0.098 -0.3249  0.1476 -0.5297
19240TIP3    H179211   4.719   2.157   0.113  0.5295  0.2291  0.5407
19240TIP3    H279212   4.726   2.022   0.180 -0.8704 -0.6851 -1.0906
19241TIP3   OH279213   3.766   6.803   5.155  0.0064 -0.0938  0.0379
19241TIP3    H179214   3.784   6.710   5.166  2.0518  0.0760 -1.3338
19241TIP3    H279215   3.770   6.818   5.060  0.6739  1.5513  0.2864
19242TIP3   OH279216   5.252   0.615   2.162 -0.2120 -0.3945  0.0895
19242TIP3    H179217   5.221   0.701   2.191 -0.1713 -1.0291  2.1816
19242TIP3    H279218   5.342   0.610   2.192 -0.0625 -1.0077 -0.4314
19243TIP3   OH279219   3.207   0.895  15.101 -0.6255  0.3215  0.0504
19243TIP3    H179220   3.157   0.875  15.021 -0.1634 -0.9398  0.0586
19243TIP3    H279221   3.237   0.810  15.132  1.3956  1.0169  0.1512
19244TIP3   OH279222   1.127   1.536  12.570  0.0764  0.4441 -0.2801
19244TIP3    H179223   1.108   1.618  12.526  2.0719  0.1347 -1.8952
19244TIP3    H279224   1.055   1.478  12.545 -0.4302  1.1813 -0.5590
19245TIP3   OH279225   0.653   3.409   6.430  0.7058 -0.1545 -0.2135
19245TIP3    H179226   0.687   3.475   6.370 -0.4488  0.5186 -0.1515
19245TIP3    H279227   0.626   3.336   6.374  0.3199  0.1672 -0.4492
19246TIP3   OH279228   1.523   2.334  16.823  1.2276  0.1531  0.1327
19246TIP3    H179229   1.583   2.402  16.854  0.1147 -0.4543  4.2518
19246TIP3    H279230   1.438   2.359  16.859  0.6275 -2.9930  1.2108
19247TIP3   OH279231   4.882   0.585  12.836 -0.1487 -0.2190 -0.1098
19247TIP3    H179232   4.863   0.492  12.826  0.6398 -0.5353  1.0837
19247TIP3    H279233   4.809   0.618  12.889  0.0456 -0.3672  0.2555
19248TIP3   OH279234   1.592   5.687  12.475  0.5158  0.9810  0.3524
19248TIP3    H179235   1.538   5.742  12.419 -0.0452  1.1934  1.0815
19248TIP3    H279236   1.591   5.601  12.434  0.3677  1.2101 -0.1265
19249TIP3   OH279237   2.366   6.188  11.612 -0.0979  0.6251  0.1961
19249TIP3    H179238   2.382   6.188  11.518  0.4011  0.0425  0.2776
19249TIP3    H279239   2.381   6.098  11.639 -1.2905  0.5494  0.6659
19250TIP3   OH279240   6.546   0.762   2.968  0.2220 -0.2515 -0.0949
19250TIP3    H179241   6.480   0.832   2.975  0.6358  0.0048  2.2461
19250TIP3    H279242   6.554   0.746   2.874 -2.0961  0.7279 -0.5419
19251TIP3   OH279243   6.076   2.094  15.190 -0.1945 -0.2714 -0.2982
19251TIP3    H179244   5.988   2.078  15.158 -0.1364 -1.1796 -0.0221
19251TIP3    H279245   6.120   2.009  15.185  0.5839  0.1108 -0.1866
19252TIP3   OH279246   1.884   6.554  12.162 -0.8605 -0.4539  0.2839
19252TIP3    H179247   1.956   6.511  12.209 -0.6036  0.6815  0.9710
19252TIP3    H279248   1.923   6.577  12.078 -0.5964 -0.3771  0.4231
19253TIP3   OH279249   4.921   0.823   3.044 -0.4155 -0.2644 -0.4854
19253TIP3    H179250   4.867   0.885   3.093  0.5851  0.9493 -0.8458
19253TIP3    H279251   4.976   0.780   3.110 -0.6310 -0.2578 -0.3026
19254TIP3   OH279252   0.463   0.132   1.473 -0.0052  0.1120 -0.0066
19254TIP3    H179253   0.549   0.144   1.432  0.2137 -1.4110 -0.0614
19254TIP3    H279254   0.447   0.038   1.466 -1.6690  0.3686  0.0499
19255TIP3   OH279255   2.211   0.354  11.804 -0.0988  0.1490  0.1866
19255TIP3    H179256   2.166   0.438  11.815 -0.6835 -0.2199  0.6966
19255TIP3    H279257   2.159   0.307  11.739 -0.2460 -0.1363  0.5069
19256TIP3   OH279258   4.054   4.042  15.330  0.3053  0.0525  0.0141
19256TIP3    H179259   4.001   4.052  15.409 -0.2073  1.1026 -0.4490
19256TIP3    H279260   4.070   3.948  15.324 -0.5855 -0.1621  0.7623
19257TIP3   OH279261   6.196   4.851   5.815 -0.4798 -0.0609 -0.5692
19257TIP3    H179262   6.268   4.914   5.812 -0.3761 -0.1032  0.6275
19257TIP3    H279263   6.189   4.818   5.725 -0.1173  1.1768 -1.0741
19258TIP3   OH279264   6.694   2.582  12.223  0.4109  0.0418 -0.6076
19258TIP3    H179265   6.602   2.584  12.199 -0.2377 -1.7719  1.3986
19258TIP3    H279266   6.721   2.492  12.207  0.8951 -0.3136  1.7512
19259TIP3   OH279267   5.645   3.176  13.836  0.6309 -0.1277  0.3670
19259TIP3    H179268   5.552   3.199  13.838  0.3216 -1.3204 -0.0557
19259TIP3    H279269   5.648   3.090  13.796  2.0198  0.3293 -0.5637
19260TIP3   OH279270   2.169   4.351   2.700 -0.1468 -0.4241  0.4773
19260TIP3    H179271   2.227   4.328   2.628 -0.7260 -4.5362  1.0758
19260TIP3    H279272   2.089   4.383   2.657  0.0293 -1.4411 -0.6613
19261TIP3   OH279273   4.049   6.394  14.400 -0.4083 -0.1327 -0.0195
19261TIP3    H179274   4.012   6.401  14.488 -2.1304  1.2889 -0.7997
19261TIP3    H279275   4.127   6.451  14.402 -0.6606  0.2003  0.4756
19262TIP3   OH279276   2.681   1.292   1.590  0.2890 -0.4002 -0.1791
19262TIP3    H179277   2.741   1.352   1.635  0.7382 -0.3980 -0.7615
19262TIP3    H279278   2.685   1.320   1.498 -1.5850  0.4237 -0.0425
19263TIP3   OH279279   3.238   2.545   2.293 -0.2642  0.5209 -0.4347
19263TIP3    H179280   3.167   2.565   2.355  0.1261  0.2875  0.0895
19263TIP3    H279281   3.297   2.619   2.300 -0.9551  1.2232 -1.6317
19264TIP3   OH279282   2.273   1.157  11.902  0.3252 -0.5301  0.2452
19264TIP3    H179283   2.250   1.178  11.811  0.4693 -0.8708  0.1281
19264TIP3    H279284   2.305   1.239  11.938  0.8966 -0.5422 -0.2133
19265TIP3   OH279285   1.266   1.300   4.154 -0.2676  0.5768  0.0956
19265TIP3    H179286   1.221   1.359   4.214 -0.4973  0.8800 -0.3779
19265TIP3    H279287   1.349   1.281   4.198 -1.5329 -1.3794  1.8196
19266TIP3   OH279288   1.412   3.110  15.388 -0.2726  0.4273  0.1129
19266TIP3    H179289   1.473   3.059  15.335  0.4274  0.4806  0.8575
19266TIP3    H279290   1.327   3.069  15.372 -0.1115  0.5442 -1.1713
19267TIP3   OH279291   3.729   5.787  12.327 -0.4036 -0.2246 -0.0549
19267TIP3    H179292   3.751   5.739  12.247 -1.1823  1.1359 -1.1366
19267TIP3    H279293   3.642   5.755  12.351 -1.1406  0.9083 -1.0583
19268TIP3   OH279294   6.372   3.618  11.787  0.2282 -0.0543 -0.2950
19268TIP3    H179295   6.445   3.602  11.727  0.3624  0.7728 -0.3628
19268TIP3    H279296   6.355   3.712  11.780 -1.7745 -0.4256 -1.3586
19269TIP3   OH279297   1.169   1.744   0.706 -0.4560 -0.6728  0.3916
19269TIP3    H179298   1.109   1.731   0.633 -0.5662 -0.1464  0.3831
19269TIP3    H279299   1.215   1.660   0.715 -0.1170 -0.5983 -0.5715
19270TIP3   OH279300   2.316   3.507   1.015  0.0822  0.0446 -0.7620
19270TIP3    H179301   2.285   3.435   1.070  2.3547  0.7102  1.6227
19270TIP3    H279302   2.344   3.574   1.077  1.1961  1.5952 -2.8122
19271TIP3   OH279303   4.524   1.104  14.889 -0.2737  0.3440  0.0540
19271TIP3    H179304   4.535   1.061  14.804  2.6628 -0.8884  0.9231
19271TIP3    H279305   4.495   1.193  14.867 -1.3430 -0.4614 -2.1004
19272TIP3   OH279306   0.380   1.272  12.923  0.3589 -0.0182  0.3943
19272TIP3    H179307   0.464   1.296  12.963  0.5819 -1.0146  0.5602
19272TIP3    H279308   0.402   1.241  12.836  0.1478 -0.1437  0.3834
19273TIP3   OH279309   4.180   0.749  12.479  0.0549 -0.2580  0.0060
19273TIP3    H179310   4.097   0.702  12.485 -0.6257  0.9517  0.4235
19273TIP3    H279311   4.156   0.841  12.478  1.2248  0.1134 -2.7769
19274TIP3   OH279312   5.302   1.365  15.621  0.2148  0.1502 -0.0722
19274TIP3    H179313   5.215   1.358  15.659  0.5050  0.7110  0.7384
19274TIP3    H279314   5.357   1.311  15.678  0.5269  0.4291 -0.1045
19275TIP3   OH279315   3.631   4.620  14.648 -0.4655  0.4710  0.2741
19275TIP3    H179316   3.690   4.646  14.719 -1.4363  0.4257  1.1343
19275TIP3    H279317   3.685   4.620  14.570  0.8469 -0.2511  1.1410
19276TIP3   OH279318   4.193   1.185  13.470  0.3047  0.2162 -0.2572
19276TIP3    H179319   4.228   1.109  13.424 -0.2685 -0.4397  0.3656
19276TIP3    H279320   4.206   1.165  13.563 -0.1404  0.7288 -0.0779
19277TIP3   OH279321   5.803   5.913   1.616  0.1281  0.1899  0.2696
19277TIP3    H179322   5.873   5.870   1.665 -1.1159  1.7015  3.6801
19277TIP3    H279323   5.731   5.851   1.619 -0.4940  0.9254  2.0132
19278TIP3   OH279324   0.018   0.985  14.713  0.4424 -0.4447  0.0824
19278TIP3    H179325  -0.043   0.921  14.675  0.4901 -0.6399  0.3358
19278TIP3    H279326   0.102   0.966  14.672  0.3214 -0.1156 -0.3377
19279TIP3   OH279327   1.217   4.398   2.585  0.2803  0.0070 -0.9186
19279TIP3    H179328   1.204   4.336   2.657  0.8878 -1.4424 -1.9794
19279TIP3    H279329   1.312   4.414   2.585  0.1596  0.7296 -0.8257
19280TIP3   OH279330   5.456   2.652  16.153 -0.3145  0.2179  0.4216
19280TIP3    H179331   5.460   2.692  16.239  0.0144  0.9611  0.0741
19280TIP3    H279332   5.462   2.726  16.092  1.4487 -0.4223 -0.2588
19281TIP3   OH279333   4.346   4.795  11.982 -0.1489  0.5044 -0.1766
19281TIP3    H179334   4.334   4.850  12.059  2.9145  0.1337  0.7108
19281TIP3    H279335   4.393   4.850  11.919  0.3108 -0.1592 -0.4401
19282TIP3   OH279336   0.245   3.630  16.741 -1.0788 -0.1247  0.1649
19282TIP3    H179337   0.163   3.643  16.692 -0.7428  0.1780 -0.3235
19282TIP3    H279338   0.311   3.614  16.674 -0.4478  1.1385  0.4524
19283TIP3   OH279339   0.246   6.539   6.305 -0.2505 -0.1658 -0.1657
19283TIP3    H179340   0.245   6.560   6.211 -0.0675  0.4713 -0.0327
19283TIP3    H279341   0.164   6.493   6.320 -0.2674 -0.2984 -0.6500
19284TIP3   OH279342   6.546   3.768  16.057 -0.9876  0.2270  0.0163
19284TIP3    H179343   6.461   3.787  16.016 -0.2302  1.2865 -1.1246
19284TIP3    H279344   6.581   3.695  16.008 -1.4245 -0.5186  0.7900
19285TIP3   OH279345   0.027   0.285   0.116  0.1799  0.1065 -0.0597
19285TIP3    H179346  -0.020   0.279   0.199 -0.5451 -0.6177 -0.5019
19285TIP3    H279347   0.115   0.255   0.135 -0.2975 -1.1867  0.2234
19286TIP3   OH279348   6.387   5.939   3.989  0.8091  0.5833 -0.0774
19286TIP3    H179349   6.390   6.022   4.037  0.3448 -0.4435  1.8474
19286TIP3    H279350   6.387   5.965   3.897  1.2983  2.6858  0.4475
19287TIP3   OH279351   1.593   5.665   0.735 -0.2576 -0.0918  0.1030
19287TIP3    H179352   1.632   5.752   0.749  0.0771 -0.1144 -0.6059
19287TIP3    H279353   1.508   5.684   0.695 -0.5832 -0.0691  0.7946
19288TIP3   OH279354   5.131   3.537   3.172 -0.6701  0.3117  0.0882
19288TIP3    H179355   5.157   3.591   3.246 -2.6668  2.2497 -0.4977
19288TIP3    H279356   5.199   3.552   3.106 -0.1360  0.4777  0.6683
19289TIP3   OH279357   0.778   1.441   3.074 -0.0373 -0.0969 -0.7299
19289TIP3    H179358   0.852   1.382   3.086  1.7363  2.0462 -0.3406
19289TIP3    H279359   0.816   1.529   3.084 -2.7702  1.0954  0.1203
19290TIP3   OH279360   1.694   5.017  12.763 -0.5983  0.1767 -0.1026
19290TIP3    H179361   1.606   5.046  12.788  0.0412  2.7478 -0.5250
19290TIP3    H279362   1.692   5.014  12.668 -0.2190  0.3183 -0.1151
19291TIP3   OH279363   0.241   3.516   3.705  0.6751 -0.2110 -0.3715
19291TIP3    H179364   0.319   3.473   3.670  0.9771 -0.7678  0.9316
19291TIP3    H279365   0.206   3.454   3.769 -0.3064  0.4346 -0.2689
19292TIP3   OH279366   2.846   2.721  10.389  0.5334 -0.6641 -0.0308
19292TIP3    H179367   2.842   2.666  10.467  0.5887 -0.8153 -0.1339
19292TIP3    H279368   2.885   2.803  10.419 -0.0589 -0.4713  0.2421
19293TIP3   OH279369   0.150   1.177   2.227 -0.2153 -0.0050  0.4721
19293TIP3    H179370   0.184   1.262   2.198  0.0601 -0.1811  0.2807
19293TIP3    H279371   0.223   1.136   2.274  0.1732 -0.8023 -0.7883
19294TIP3   OH279372   2.901   0.695  13.030 -0.8033 -0.0959  0.0923
19294TIP3    H179373   2.816   0.738  13.020 -0.2170  1.1708  0.3936
19294TIP3    H279374   2.886   0.627  13.096 -1.4819  0.4000  0.4567
19295TIP3   OH279375   4.776   2.736   2.358 -0.1346  0.3167 -0.5143
19295TIP3    H179376   4.786   2.751   2.264 -0.9037  0.6500 -0.5432
19295TIP3    H279377   4.698   2.682   2.366  0.0998  0.0351 -0.0822
19296TIP3   OH279378   1.356   0.950   2.365 -0.0012 -0.9477  0.3654
19296TIP3    H179379   1.330   0.976   2.277  0.2489  0.2860  0.6365
19296TIP3    H279380   1.431   1.007   2.386  0.5376 -1.8685  1.0158
19297TIP3   OH279381   5.778   6.206   3.073  0.1413  0.1264 -0.0831
19297TIP3    H179382   5.689   6.170   3.080 -1.8354  4.6585  1.7587
19297TIP3    H279383   5.813   6.200   3.162  0.0814  1.7648  0.0813
19298TIP3   OH279384   5.060   4.531  12.258  0.0361  0.1563 -0.2679
19298TIP3    H179385   5.089   4.531  12.349 -0.5366 -1.3885 -0.0522
19298TIP3    H279386   5.096   4.450  12.222 -1.4932 -0.3137 -0.8074
19299TIP3   OH279387   2.085   3.763  12.959 -0.2163  0.0944  0.2975
19299TIP3    H179388   2.100   3.675  12.926 -1.1912 -0.0345  0.1625
19299TIP3    H279389   1.990   3.769  12.970 -0.3776  1.7194 -1.3924
19300TIP3   OH279390   3.729   1.251   0.233  0.3170  0.3113  0.1909
19300TIP3    H179391   3.672   1.317   0.272 -2.0199 -1.4199 -0.1195
19300TIP3    H279392   3.706   1.250   0.141 -0.7042 -1.7979  0.3981
19301TIP3   OH279393   2.595   1.593   3.727 -0.1534  0.5327 -0.1695
19301TIP3    H179394   2.502   1.575   3.739  0.3475 -0.2713  4.0617
19301TIP3    H279395   2.617   1.653   3.799  3.0248 -1.3222  0.5961
19302TIP3   OH279396   1.232   4.690  12.337  0.4103  0.0725 -0.3408
19302TIP3    H179397   1.291   4.762  12.358  1.3699 -1.3789  2.3693
19302TIP3    H279398   1.287   4.625  12.295  0.1503 -0.1589 -0.3239
19303TIP3   OH279399   0.004   5.041  11.667 -0.1662 -0.0835 -0.6451
19303TIP3    H179400  -0.039   5.081  11.743 -1.4836  0.9101 -1.8708
19303TIP3    H279401  -0.018   5.098  11.594  2.5342 -0.0424 -1.5156
19304TIP3   OH279402   0.943   4.436   3.672 -0.3574 -0.6538 -0.4264
19304TIP3    H179403   0.865   4.453   3.725 -1.7501 -0.2272 -2.4940
19304TIP3    H279404   1.014   4.474   3.722 -1.4690 -1.0205  1.5199
19305TIP3   OH279405   1.610   3.563  15.537  1.0236 -0.5384  0.5641
19305TIP3    H179406   1.588   3.530  15.624 -0.0340  1.7998  1.2742
19305TIP3    H279407   1.611   3.485  15.481  0.2397 -1.9210  2.3748
19306TIP3   OH279408   4.468   5.056  15.718 -0.5354  0.2887 -0.2241
19306TIP3    H179409   4.397   5.090  15.663 -1.4823  2.3357  2.0926
19306TIP3    H279410   4.531   5.128  15.724 -1.0643  0.6133  2.3194
19307TIP3   OH279411   5.427   2.329   3.078  0.6763  0.0069 -0.6499
19307TIP3    H179412   5.409   2.281   2.997  0.5510 -0.1174 -0.5490
19307TIP3    H279413   5.509   2.291   3.111  0.1037 -0.7908 -0.0852
19308TIP3   OH279414   6.145   0.258  12.005 -0.4549 -0.3390 -0.1181
19308TIP3    H179415   6.134   0.213  11.921  0.0794  1.2330 -1.0564
19308TIP3    H279416   6.198   0.198  12.057 -1.2040 -1.5488 -0.6996
19309TIP3   OH279417   2.347   6.519  10.838  0.2438  0.1648 -0.3689
19309TIP3    H179418   2.381   6.576  10.907  2.9853 -0.7567 -0.8162
19309TIP3    H279419   2.366   6.430  10.870  0.8064 -0.3005 -1.9067
19310TIP3   OH279420   2.543   2.574  12.784  0.3061  0.1133  0.4961
19310TIP3    H179421   2.517   2.654  12.830  0.0211 -0.5064  1.4509
19310TIP3    H279422   2.465   2.548  12.734  0.7683  1.0516 -0.7609
19311TIP3   OH279423   5.585   0.557  11.412  0.2495  0.0642 -0.6366
19311TIP3    H179424   5.527   0.551  11.487  0.5877  0.0124 -0.3794
19311TIP3    H279425   5.672   0.542  11.447  0.8390  3.2076 -0.4575
19312TIP3   OH279426   5.439   3.694  16.197 -0.3681 -0.5048  0.0622
19312TIP3    H179427   5.477   3.781  16.206 -0.4598 -0.6642  2.4271
19312TIP3    H279428   5.498   3.648  16.137 -0.3358  1.1511 -1.2567
19313TIP3   OH279429   6.102   6.733  12.850 -0.6060 -0.6304  0.2286
19313TIP3    H179430   6.034   6.708  12.913  0.5671 -1.4164  1.2272
19313TIP3    H279431   6.174   6.765  12.904  0.0271 -0.3035 -0.7803
19314TIP3   OH279432   4.943   3.707  14.640 -0.1843  0.1656 -0.2242
19314TIP3    H179433   4.899   3.636  14.687 -1.0028  0.1790 -0.9561
19314TIP3    H279434   4.880   3.779  14.640  0.5785  0.8551  0.3673
19315TIP3   OH279435   0.511   2.377  15.261  0.2644 -0.2735  0.2665
19315TIP3    H179436   0.520   2.318  15.186 -0.6759 -1.0871  0.7563
19315TIP3    H279437   0.600   2.387  15.296  0.3289 -2.2892  0.8012
19316TIP3   OH279438   6.075   5.715  14.294 -0.5811 -0.3387 -0.2371
19316TIP3    H179439   6.143   5.754  14.350 -1.0221 -2.1336  1.6766
19316TIP3    H279440   6.082   5.763  14.211  0.3987  2.1990  1.1779
19317TIP3   OH279441   0.947   3.925  15.061  0.1975 -0.2545  0.2029
19317TIP3    H179442   0.982   3.988  15.123  1.7173 -0.2819 -0.5815
19317TIP3    H279443   1.024   3.878  15.028 -0.6748 -0.9549 -0.9168
19318TIP3   OH279444   0.210   4.405   0.616  0.1771 -0.2359 -0.2445
19318TIP3    H179445   0.192   4.488   0.571 -1.2563 -0.1959  0.3355
19318TIP3    H279446   0.154   4.342   0.572  0.8159 -0.7773 -0.2875
19319TIP3   OH279447   3.366   5.618  16.331 -0.1917  0.6300  0.2444
19319TIP3    H179448   3.281   5.577  16.351 -0.7012  1.5333  0.0116
19319TIP3    H279449   3.418   5.547  16.294 -1.0588  0.1870 -0.1812
19320TIP3   OH279450   2.027   3.069   4.364  0.7218 -0.0578 -0.2167
19320TIP3    H179451   2.008   3.159   4.390 -0.6986 -0.0708 -1.0937
19320TIP3    H279452   2.118   3.055   4.389  0.0642  0.5328  2.9630
19321TIP3   OH279453   2.668   0.113  13.345 -0.0165 -0.2563  0.3713
19321TIP3    H179454   2.681   0.208  13.339  1.2930 -0.4980 -1.5982
19321TIP3    H279455   2.708   0.089  13.429  1.1446  0.7466  0.1448
19322TIP3   OH279456   5.661   6.449  13.269 -0.0458 -0.7282  0.2005
19322TIP3    H179457   5.588   6.389  13.283 -0.8490  0.3826  1.0042
19322TIP3    H279458   5.632   6.504  13.196  0.8666 -1.5625 -0.8199
19323TIP3   OH279459   4.216   1.977  16.129 -0.2142  0.3749  0.3252
19323TIP3    H179460   4.137   1.940  16.089 -0.9781  1.7163  0.5139
19323TIP3    H279461   4.192   1.991  16.221  0.4429  0.2738  0.5166
19324TIP3   OH279462   2.591   0.478   5.517 -0.3269 -0.2554 -0.0643
19324TIP3    H179463   2.522   0.509   5.575 -0.0213 -0.6555  0.5270
19324TIP3    H279464   2.580   0.529   5.436 -0.3155  0.8198  0.5968
19325TIP3   OH279465   6.434   2.240  17.240  0.3383  0.1452 -0.8703
19325TIP3    H179466   6.389   2.180  17.181 -0.1737  0.5956 -0.9477
19325TIP3    H279467   6.373   2.254  17.312  0.4005  0.6575 -0.9086
19326TIP3   OH279468   6.105   0.684   4.558  0.1573 -0.2901 -0.0199
19326TIP3    H179469   6.179   0.629   4.580  1.1122  0.4677 -1.2305
19326TIP3    H279470   6.136   0.774   4.571 -0.4068  0.0508 -0.8581
19327TIP3   OH279471   5.926   6.091  14.889 -0.1663  0.1577  0.1169
19327TIP3    H179472   5.878   6.129  14.816 -2.2592 -0.8717  0.8849
19327TIP3    H279473   6.011   6.068  14.852 -0.3084  1.7793 -1.3705
19328TIP3   OH279474   2.569   4.968  16.294 -0.2115  0.0202  0.0429
19328TIP3    H179475   2.658   4.936  16.277 -1.4142 -4.4212  0.7048
19328TIP3    H279476   2.579   5.027  16.369  2.3645  1.8266 -1.5521
19329TIP3   OH279477   5.094   6.674  13.022 -0.1483 -0.0828  0.0792
19329TIP3    H179478   5.118   6.583  13.004  0.7271  0.2189 -0.3205
19329TIP3    H279479   5.104   6.683  13.117 -0.2083 -0.3836  0.1164
19330TIP3   OH279480   5.496   0.323   4.531  0.1341 -0.1944 -0.3527
19330TIP3    H179481   5.406   0.325   4.499  0.0188  1.8913 -0.0368
19330TIP3    H279482   5.548   0.298   4.455 -0.7049 -2.0007 -0.4063
19331TIP3   OH279483   1.521   2.689  13.236  0.0778  0.4873 -0.1149
19331TIP3    H179484   1.566   2.773  13.247  0.7415  0.3174 -1.3650
19331TIP3    H279485   1.451   2.690  13.302  1.8996  0.7481  1.9180
19332TIP3   OH279486   3.164   1.603  14.552  0.1094 -0.1797  0.4384
19332TIP3    H179487   3.136   1.688  14.519  0.7944 -0.5243 -1.1697
19332TIP3    H279488   3.100   1.579  14.618 -1.6007  0.4214 -0.9286
19333TIP3   OH279489   1.072   5.956  13.290  0.1959 -0.1238  0.1733
19333TIP3    H179490   1.035   6.039  13.260  1.1380 -0.2976 -1.5986
19333TIP3    H279491   0.996   5.902  13.311 -0.4329  1.0819  1.1408
19334TIP3   OH279492   6.558   5.760  14.414 -0.1221  0.2188 -0.4453
19334TIP3    H179493   6.617   5.798  14.478 -1.1575  0.9737  0.0854
19334TIP3    H279494   6.511   5.835  14.377 -2.8118 -0.5014  1.2149
19335TIP3   OH279495   1.220   5.883  16.259 -0.0321  0.1390  0.1940
19335TIP3    H179496   1.184   5.951  16.315 -0.6712  1.6854 -1.9933
19335TIP3    H279497   1.315   5.891  16.269 -0.0807  1.6165 -0.2717
19336TIP3   OH279498   1.582   5.407   6.026 -0.1285 -0.6590 -0.5365
19336TIP3    H179499   1.564   5.421   6.119 -0.9151  2.0190 -1.0131
19336TIP3    H279500   1.496   5.410   5.984  0.4115  0.7864 -1.6116
19337TIP3   OH279501   0.498   4.673   4.407 -0.3592  0.2157 -0.1030
19337TIP3    H179502   0.594   4.672   4.405 -0.3513  0.7396 -0.1067
19337TIP3    H279503   0.474   4.754   4.361 -0.8064  0.0099 -0.2357
19338TIP3   OH279504   2.692   0.731  15.522  0.3908 -0.8044 -0.4265
19338TIP3    H179505   2.717   0.784  15.598  0.7867  0.2745 -1.2745
19338TIP3    H279506   2.739   0.771  15.448 -1.0930 -0.9062 -1.4844
19339TIP3   OH279507   6.455   2.836   4.941 -0.0714  0.2920 -0.2158
19339TIP3    H179508   6.403   2.760   4.966 -1.0159  1.4741  1.6151
19339TIP3    H279509   6.474   2.822   4.848 -0.7113 -1.8546 -0.0850
19340TIP3   OH279510   1.141   4.788   5.942 -0.1019 -0.4940 -0.1406
19340TIP3    H179511   1.218   4.839   5.967 -0.4775 -0.8107  1.8107
19340TIP3    H279512   1.167   4.697   5.955 -0.7684 -0.6087  0.4564
19341TIP3   OH279513   0.448   2.681   2.798 -0.5900  0.1482 -0.2649
19341TIP3    H179514   0.436   2.639   2.713 -0.8760 -0.1816 -0.0634
19341TIP3    H279515   0.375   2.742   2.806 -0.5578  0.1861 -0.2610
19342TIP3   OH279516   4.112   6.760  15.155  0.1932 -0.0368 -0.1947
19342TIP3    H179517   4.149   6.848  15.163 -1.6934  0.8580 -0.8807
19342TIP3    H279518   4.070   6.744  15.240 -2.4174  1.1966 -1.1528
19343TIP3   OH279519   4.610   6.400  16.038 -0.0343 -0.6052  0.1727
19343TIP3    H179520   4.609   6.314  15.996  0.4857 -0.2162 -0.6592
19343TIP3    H279521   4.703   6.419  16.050 -0.1701 -0.7768  1.6687
19344TIP3   OH279522   5.804   1.685  16.423 -0.0868  0.0805 -0.1407
19344TIP3    H179523   5.754   1.637  16.490 -0.0975 -0.0674 -0.2549
19344TIP3    H279524   5.747   1.687  16.347 -0.9760  2.1378  0.5119
19345TIP3   OH279525   3.672   2.968   4.277  0.3979 -0.7355  0.6341
19345TIP3    H179526   3.626   2.912   4.214 -1.1552  1.4023 -0.2433
19345TIP3    H279527   3.630   2.949   4.361 -1.5689  0.5223 -0.0085
19346TIP3   OH279528   1.354   0.067  11.575  0.3600 -0.3239  0.4288
19346TIP3    H179529   1.295   0.118  11.519 -1.0546 -1.3501  0.9113
19346TIP3    H279530   1.435   0.117  11.577 -0.4981  1.1611 -0.2632
19347TIP3   OH279531   1.984   5.066   3.894 -0.8792  0.1090  0.1785
19347TIP3    H179532   1.955   5.082   3.984  0.3245  0.6008  0.5042
19347TIP3    H279533   1.912   5.018   3.853 -1.3351 -0.3557  1.4874
19348TIP3   OH279534   0.322   6.091  15.024  0.3619  0.5617 -0.6174
19348TIP3    H179535   0.232   6.066  15.042  1.1862 -1.7224  0.7747
19348TIP3    H279536   0.334   6.173  15.073 -0.4102 -0.2183  0.9704
19349TIP3   OH279537   1.743   6.630  13.835  0.0395 -0.1785  0.1572
19349TIP3    H179538   1.720   6.537  13.840  0.6851 -0.3341  0.4394
19349TIP3    H279539   1.707   6.660  13.752 -1.3647 -0.3355  0.6891
19350TIP3   OH279540   0.837   4.609   5.796 -0.4039  0.0783  0.0903
19350TIP3    H179541   0.853   4.645   5.883 -1.7438  0.8655  0.0480
19350TIP3    H279542   0.867   4.519   5.801  2.6843  1.0206  0.3455
19351TIP3   OH279543   3.501   4.240   5.445 -0.1979  0.2798 -0.3334
19351TIP3    H179544   3.441   4.301   5.487 -1.3902 -1.4924  0.6915
19351TIP3    H279545   3.455   4.156   5.448  1.0821 -0.5487 -2.2888
19352TIP3   OH279546   1.953   2.083  12.529 -0.4178 -0.4815  0.1920
19352TIP3    H179547   2.035   2.044  12.497 -1.2375 -1.8922 -0.2660
19352TIP3    H279548   1.977   2.173  12.551  0.6775  0.0149 -2.5166
19353TIP3   OH279549   5.777   4.340  15.051 -0.1816 -0.2127 -0.2514
19353TIP3    H179550   5.810   4.364  14.965  0.3418 -0.0801 -0.0144
19353TIP3    H279551   5.811   4.407  15.110 -1.0344  0.0420 -0.0317
19354TIP3   OH279552   3.344   3.368  13.219  0.0452 -0.0729  0.2708
19354TIP3    H179553   3.292   3.437  13.260 -0.1972 -0.7666  1.1687
19354TIP3    H279554   3.303   3.287  13.249 -0.2226 -0.6175 -1.4628
19355TIP3   OH279555   1.846   5.759  13.781  0.4868 -0.2950 -0.3895
19355TIP3    H179556   1.917   5.724  13.728  1.2122  0.7840 -0.1616
19355TIP3    H279557   1.818   5.685  13.835  1.8568 -0.5980 -0.0429
19356TIP3   OH279558   6.669   0.258  13.164  0.0873  0.1638 -0.5444
19356TIP3    H179559   6.759   0.236  13.190  1.1425 -0.2072 -3.9448
19356TIP3    H279560   6.623   0.174  13.164  0.2438  0.0772 -0.4678
19357TIP3   OH279561   0.364   5.652  14.465  0.3720 -0.1200 -0.8157
19357TIP3    H179562   0.390   5.661  14.373 -0.1443 -0.2166 -0.9769
19357TIP3    H279563   0.346   5.741  14.494  1.5673  0.0295 -0.4891
19358TIP3   OH279564   0.665   0.828  12.699 -0.4214  0.4677  0.2241
19358TIP3    H179565   0.688   0.764  12.632 -0.0224 -1.0572  1.7522
19358TIP3    H279566   0.600   0.784  12.753 -0.8818  1.7403  0.7360
19359TIP3   OH279567   4.480   6.448   1.494 -0.7067  0.2296  0.4182
19359TIP3    H179568   4.453   6.369   1.541  0.1888  0.8779  2.1044
19359TIP3    H279569   4.411   6.511   1.512 -0.2547  0.5464  1.0566
19360TIP3   OH279570   5.782   3.477  12.389 -0.0378 -0.2858 -0.3484
19360TIP3    H179571   5.866   3.471  12.435  0.3007  0.7863 -0.8046
19360TIP3    H279572   5.800   3.443  12.302  0.7266  2.5704 -1.4286
19361TIP3   OH279573   3.257   0.259  11.880 -0.4874  0.5320 -0.4008
19361TIP3    H179574   3.268   0.314  11.803  1.9832  0.3752 -0.2210
19361TIP3    H279575   3.204   0.185  11.849  1.6252 -0.2649 -2.3868
19362TIP3   OH279576   4.182   6.518  10.923 -0.4107  0.1482  0.1499
19362TIP3    H179577   4.142   6.494  10.840 -0.1319 -2.7934  0.7800
19362TIP3    H279578   4.270   6.548  10.900 -1.4541  2.7306 -0.8439
19363TIP3   OH279579   4.002   2.083  12.916 -0.1602  0.5242 -0.7684
19363TIP3    H179580   3.993   1.991  12.889  0.8010  0.4117 -0.7092
19363TIP3    H279581   4.066   2.120  12.855  0.9445  0.6480  0.4254
19364TIP3   OH279582   1.606   4.420   5.149  0.3166  0.0381 -0.3024
19364TIP3    H179583   1.579   4.395   5.060  0.5810 -1.1883 -0.0581
19364TIP3    H279584   1.678   4.361   5.169  1.6805  1.7122 -0.0504
19365TIP3   OH279585   1.933   6.023  15.955  0.0950  0.3057  0.6475
19365TIP3    H179586   1.962   6.103  15.998 -1.4230  2.3980 -1.8682
19365TIP3    H279587   1.992   6.013  15.880 -0.6415 -0.0112  0.0900
19366TIP3   OH279588   0.941   6.464  13.116 -0.5140  0.1231  0.5165
19366TIP3    H179589   0.899   6.440  13.198 -1.3441  0.3206  0.1659
19366TIP3    H279590   0.868   6.492  13.059 -0.4527 -3.2013 -1.4801
19367TIP3   OH279591   6.422   5.024   5.842  0.0962  0.5361 -0.0269
19367TIP3    H179592   6.431   5.065   5.928  0.1448 -1.3578  0.9111
19367TIP3    H279593   6.493   4.961   5.837 -1.3580 -1.1537 -0.3920
19368TIP3   OH279594   3.381   6.401   2.318  0.4174  0.0784 -0.0662
19368TIP3    H179595   3.382   6.353   2.401 -1.6191 -1.1771 -0.6791
19368TIP3    H279596   3.386   6.332   2.252 -0.3390  0.8677 -0.9728
19369TIP3   OH279597   1.248   1.355   1.061  0.3523 -0.2347  0.0295
19369TIP3    H179598   1.237   1.365   1.156  1.3798 -0.5977  0.1938
19369TIP3    H279599   1.183   1.289   1.036 -1.2038  1.1801  0.1647
19370TIP3   OH279600   0.610   0.448   1.251  0.0897  0.6157 -0.3111
19370TIP3    H179601   0.621   0.403   1.334 -0.8113  0.1224 -0.4426
19370TIP3    H279602   0.699   0.464   1.220  0.4334 -0.6869 -0.0414
19371TIP3   OH279603   0.396   0.875   1.625  0.2625  0.2670 -0.2466
19371TIP3    H179604   0.473   0.878   1.568 -0.7736  1.4168 -1.6291
19371TIP3    H279605   0.397   0.958   1.672  0.6234 -0.3115  0.8149
19372TIP3   OH279606   6.073   6.769   5.231  0.4326  0.1101 -0.4945
19372TIP3    H179607   6.109   6.750   5.318  0.2627 -2.4421 -0.9251
19372TIP3    H279608   6.001   6.707   5.220 -0.2538  1.1124 -2.0498
19373TIP3   OH279609   2.624   6.163  12.042  1.0986  0.0590 -0.3590
19373TIP3    H179610   2.623   6.199  12.131  0.0945 -1.4348  0.2780
19373TIP3    H279611   2.585   6.232  11.988 -0.3687  0.1427  0.7542
19374TIP3   OH279612   4.719   4.264  12.959 -0.0338 -0.5806 -0.0211
19374TIP3    H179613   4.798   4.225  12.922  1.0030  3.1308 -2.1398
19374TIP3    H279614   4.750   4.308  13.038 -0.3158 -0.4144 -0.0049
19375TIP3   OH279615   4.778   5.187  15.261  0.1470 -0.7896  0.1668
19375TIP3    H179616   4.842   5.119  15.283  0.2953 -0.0698  2.1345
19375TIP3    H279617   4.831   5.261  15.231  0.0030 -1.3564 -1.6127
19376TIP3   OH279618   0.030   3.358  17.072 -0.1360 -0.1615 -0.7143
19376TIP3    H179619   0.070   3.383  17.155 -1.6156  2.1723 -0.6096
19376TIP3    H279620   0.098   3.374  17.007  0.1877  0.5710 -0.2119
19377TIP3   OH279621   2.021   2.429   5.348 -0.2260 -0.4319 -0.2779
19377TIP3    H179622   2.075   2.477   5.410 -0.1437 -0.7468 -0.1027
19377TIP3    H279623   2.014   2.341   5.386  0.3338 -0.8005 -1.0244
19378TIP3   OH279624   4.383   5.885  12.050 -0.4340 -0.0577 -0.5929
19378TIP3    H179625   4.414   5.902  11.960 -0.3073  1.3184 -0.3155
19378TIP3    H279626   4.415   5.960  12.100  0.6091 -1.4450  0.8889
19379TIP3   OH279627   6.475   4.955   4.452  0.2421 -0.2432  0.2775
19379TIP3    H179628   6.427   5.029   4.490  2.3522  1.1875  0.3348
19379TIP3    H279629   6.420   4.925   4.380 -1.4027  0.3501  1.2285
19380TIP3   OH279630   5.821   3.748  14.665 -0.2584 -0.0144  0.1274
19380TIP3    H179631   5.880   3.725  14.593  0.3381  0.5152  0.4451
19380TIP3    H279632   5.802   3.664  14.708  0.7621 -0.1149  0.4045
19381TIP3   OH279633   1.738   6.129  12.307 -0.4333 -0.3072 -0.1365
19381TIP3    H179634   1.770   6.202  12.360  1.4389 -0.9159 -0.3528
19381TIP3    H279635   1.753   6.158  12.217 -0.0082 -0.8124 -0.2290
19382TIP3   OH279636   3.975   3.734  14.426 -0.6124 -0.5438  0.1573
19382TIP3    H179637   3.993   3.822  14.392  1.0174 -0.3177  1.4978
19382TIP3    H279638   3.914   3.749  14.498 -0.4260 -0.5212  0.3103
19383TIP3   OH279639   2.155   0.564  13.708 -0.1928 -0.2479  0.0187
19383TIP3    H179640   2.166   0.473  13.735 -0.3920 -0.0179  0.9275
19383TIP3    H279641   2.074   0.565  13.658  0.5263 -0.8070 -1.2069
19384TIP3   OH279642   6.659   0.826   1.556  0.8601  0.2522  0.1805
19384TIP3    H179643   6.705   0.788   1.481  1.6535  3.2797 -0.9926
19384TIP3    H279644   6.574   0.782   1.556  1.6448 -1.3770 -1.1144
19385TIP3   OH279645   5.902   2.034   5.464  0.4680 -0.5352  0.3536
19385TIP3    H179646   5.985   2.008   5.423  0.6347  1.3124 -0.6142
19385TIP3    H279647   5.927   2.105   5.523 -0.5125  0.8176 -0.7824
19386TIP3   OH279648   6.181   2.045   1.084 -0.2946 -0.0138 -0.6250
19386TIP3    H179649   6.236   2.027   1.008 -1.6593  2.1904 -2.2689
19386TIP3    H279650   6.093   2.019   1.057 -0.8221  0.9260  0.1104
19387TIP3   OH279651   2.109   2.577   3.080 -0.6376 -0.2796 -0.0314
19387TIP3    H179652   2.203   2.568   3.068 -0.5844  0.0158  0.1430
19387TIP3    H279653   2.097   2.670   3.103 -0.7977 -0.6902  1.6488
19388TIP3   OH279654   3.429   0.450  16.174 -0.3257 -0.0343 -0.2778
19388TIP3    H179655   3.517   0.419  16.154 -0.7799 -2.6441  1.3057
19388TIP3    H279656   3.438   0.545  16.181  2.0637 -0.1032 -1.4029
19389TIP3   OH279657   6.295   1.171  14.421  0.3436 -0.0618  0.2934
19389TIP3    H179658   6.316   1.226  14.496  1.1476  0.2458 -0.1390
19389TIP3    H279659   6.380   1.151  14.381 -0.0278 -0.6409 -0.2404
19390TIP3   OH279660   3.384   6.586  12.409 -0.2451  0.0727 -0.4093
19390TIP3    H179661   3.425   6.567  12.325 -0.4767 -1.9427 -0.1413
19390TIP3    H279662   3.362   6.679  12.406 -0.3751  0.0131 -2.6290
19391TIP3   OH279663   5.079   0.810   3.613  0.1986  0.0675  0.4766
19391TIP3    H179664   5.017   0.748   3.650  0.2580 -0.3805 -0.1645
19391TIP3    H279665   5.041   0.836   3.529 -0.9511  2.6377  1.6640
19392TIP3   OH279666   2.143   1.929  13.355 -0.4647 -0.6610  0.1594
19392TIP3    H179667   2.141   1.842  13.395 -1.9370 -0.9616 -0.4802
19392TIP3    H279668   2.092   1.985  13.414 -0.4207 -0.4973  0.0448
19393TIP3   OH279669   5.196   6.306   3.299 -0.2445 -0.2677 -0.1232
19393TIP3    H179670   5.165   6.350   3.378  0.8848 -0.0744  0.2333
19393TIP3    H279671   5.188   6.371   3.230  0.2179  0.0761  0.1459
19394TIP3   OH279672   5.781   4.409  12.502  0.2001 -0.5007  0.0139
19394TIP3    H179673   5.711   4.344  12.490 -0.8555  0.6112 -0.0163
19394TIP3    H279674   5.841   4.393  12.428  0.1175 -1.6129  0.1650
19395TIP3   OH279675   1.328   6.710   4.706 -0.5645 -0.3613  0.3618
19395TIP3    H179676   1.239   6.737   4.728 -0.1011 -0.5152  2.6760
19395TIP3    H279677   1.377   6.721   4.788  2.0134  1.5494 -1.2803
19396TIP3   OH279678   2.939   4.175  14.637 -0.1842  0.0586 -0.4707
19396TIP3    H179679   2.870   4.170  14.570 -0.5563  0.9541 -0.1755
19396TIP3    H279680   3.020   4.156  14.590 -0.6400 -1.1583 -0.7973
19397TIP3   OH279681   1.255   5.202  11.276  0.2415 -0.1089 -0.6360
19397TIP3    H179682   1.212   5.188  11.360  0.5302 -1.5593 -0.7022
19397TIP3    H279683   1.199   5.158  11.212  1.2742 -1.1526 -0.8504
19398TIP3   OH279684   0.022   5.282  14.266 -0.2309  0.5239 -0.6581
19398TIP3    H179685  -0.030   5.240  14.197 -1.3652  0.4857  0.1884
19398TIP3    H279686  -0.025   5.363  14.285  1.2123  1.5580 -1.3455
19399TIP3   OH279687   6.341   4.216  12.536 -0.0909 -0.7457  0.5460
19399TIP3    H179688   6.284   4.205  12.613 -1.3276 -1.3649 -0.4219
19399TIP3    H279689   6.301   4.161  12.469 -0.9233  2.2000 -1.5700
19400TIP3   OH279690   1.833   4.117   6.131  0.0593 -0.0911  0.2265
19400TIP3    H179691   1.738   4.109   6.140 -0.0802  0.7056 -0.4396
19400TIP3    H279692   1.867   4.091   6.217 -0.7903  0.1819  0.6586
19401TIP3   OH279693   3.863   6.374   3.848  0.0666 -0.5997 -0.1417
19401TIP3    H179694   3.895   6.287   3.874  0.8292 -1.6481 -3.8607
19401TIP3    H279695   3.770   6.361   3.831 -0.1501 -0.2743  0.7956
19402TIP3   OH279696   3.605   5.398  16.338 -0.5380  0.2945 -0.3357
19402TIP3    H179697   3.590   5.307  16.313 -1.1280  0.0419  0.9068
19402TIP3    H279698   3.681   5.424  16.286  0.0561 -1.1086 -0.2173
19403TIP3   OH279699   5.530   4.459  14.399  0.5874 -0.1658  0.0291
19403TIP3    H179700   5.571   4.400  14.336  0.6427 -0.3276  0.2134
19403TIP3    H279701   5.534   4.411  14.482  0.4162 -0.0010  0.1328
19404TIP3   OH279702   3.845   3.073  12.445  0.2913  0.1818 -0.1100
19404TIP3    H179703   3.752   3.082  12.467  0.3543  1.7573 -0.3275
19404TIP3    H279704   3.891   3.117  12.516  0.8262 -0.0615 -0.3032
19405TIP3   OH279705   3.575   0.858  12.558 -0.4179 -0.0794 -0.5143
19405TIP3    H179706   3.577   0.926  12.626  0.9828 -1.9354  1.4468
19405TIP3    H279707   3.482   0.839  12.546 -0.7110  0.2551  0.9576
19406TIP3   OH279708   3.627   6.248   0.138  0.2969 -0.0450 -0.5143
19406TIP3    H179709   3.701   6.309   0.140  0.9163 -0.7842  1.2606
19406TIP3    H279710   3.597   6.244   0.228 -0.0100 -2.0253 -0.6609
19407TIP3   OH279711   4.594   6.306  10.258  0.0569 -0.3460 -0.5196
19407TIP3    H179712   4.660   6.317  10.189 -0.9302 -1.1326 -1.6268
19407TIP3    H279713   4.638   6.253  10.325  0.5596 -0.8599 -1.2420
19408TIP3   OH279714   5.208   3.969   2.026 -0.2295  0.7841  0.4695
19408TIP3    H179715   5.223   4.007   2.113  0.4846  1.0232  0.2480
19408TIP3    H279716   5.288   3.988   1.978  0.1452 -1.0099  0.3330
19409TIP3   OH279717   4.597   2.661  12.088  0.1114 -0.0808 -0.0999
19409TIP3    H179718   4.661   2.722  12.125 -0.1591 -0.4307  0.9852
19409TIP3    H279719   4.646   2.581  12.071  0.0443 -0.2353  0.4127
19410TIP3   OH279720   3.373   4.271  12.435 -0.0917 -0.1885 -0.3179
19410TIP3    H179721   3.410   4.225  12.359  0.8446 -0.4697  0.2910
19410TIP3    H279722   3.290   4.306  12.403  1.1637  1.4092 -2.0781
19411TIP3   OH279723   6.587   6.476  10.874  0.5204 -0.4075 -0.2213
19411TIP3    H179724   6.679   6.458  10.854  0.9752  0.1626  1.2035
19411TIP3    H279725   6.539   6.402  10.838  1.8339 -2.1197  1.3756
19412TIP3   OH279726   2.722   4.638  11.205 -0.0070 -0.1685  0.0895
19412TIP3    H179727   2.767   4.584  11.140 -0.7088 -2.5257  1.4470
19412TIP3    H279728   2.791   4.663  11.266  0.1652 -0.3571 -0.0245
19413TIP3   OH279729   4.755   6.554   5.955 -0.0597 -0.2004 -0.5251
19413TIP3    H179730   4.783   6.638   5.918  0.0033 -0.1445 -0.3516
19413TIP3    H279731   4.689   6.578   6.021  0.3689 -0.2447 -0.0724
19414TIP3   OH279732   2.093   4.268  13.280 -0.2027  0.1573  0.0351
19414TIP3    H179733   2.045   4.228  13.353 -1.1565 -1.1405 -1.2637
19414TIP3    H279734   2.073   4.361  13.287 -0.9974 -0.0614  0.8992
19415TIP3   OH279735   6.077   1.133   5.666 -0.7561 -0.1708 -0.2078
19415TIP3    H179736   6.088   1.222   5.700 -1.4361  0.3011 -1.1810
19415TIP3    H279737   5.987   1.130   5.634 -0.5926 -1.0623 -0.6121
19416TIP3   OH279738   4.203   2.485  11.555 -0.2995 -0.0195  0.1845
19416TIP3    H179739   4.165   2.409  11.511 -0.4804  0.1695  0.0110
19416TIP3    H279740   4.258   2.448  11.624  1.5466 -0.3988 -1.4067
19417TIP3   OH279741   0.832   5.871  15.742  0.2399 -0.4726  0.2388
19417TIP3    H179742   0.771   5.933  15.783  0.7638  0.6651 -0.6403
19417TIP3    H279743   0.897   5.854  15.810 -0.6392 -1.1238  0.9379
19418TIP3   OH279744   2.648   4.848  13.852 -0.3677 -0.3100 -0.1205
19418TIP3    H179745   2.678   4.918  13.910  0.6823  0.1811 -1.1883
19418TIP3    H279746   2.718   4.840  13.787  0.0926 -3.1409  0.5929
19419TIP3   OH279747   2.347   2.348  14.097 -0.3608  0.0157  0.2165
19419TIP3    H179748   2.346   2.367  14.003 -0.1331  1.2931  0.4561
19419TIP3    H279749   2.271   2.291  14.111 -0.2538 -0.3871 -0.7705
19420TIP3   OH279750   3.917   3.855   3.138 -0.2990  0.3163  0.2491
19420TIP3    H179751   3.940   3.948   3.134 -1.3686  0.5567 -1.9542
19420TIP3    H279752   3.961   3.817   3.062 -1.9747 -0.4364 -0.3855
19421TIP3   OH279753   1.237   2.906  12.472  0.8863  0.4898  0.4179
19421TIP3    H179754   1.293   2.924  12.397 -0.0702  1.6145 -0.0539
19421TIP3    H279755   1.277   2.830  12.515  2.1944  0.6662 -0.4583
19422TIP3   OH279756   5.862   6.428   0.017 -0.0197  0.3508  0.1843
19422TIP3    H179757   5.829   6.436   0.106  1.5757  1.4112  0.7141
19422TIP3    H279758   5.847   6.337  -0.006 -0.3452  0.0314  1.5805
19423TIP3   OH279759   4.594   1.178   4.698  0.2169  0.3767  0.0624
19423TIP3    H179760   4.624   1.201   4.611  0.5307 -1.7244 -0.4530
19423TIP3    H279761   4.673   1.184   4.753  0.2789  0.5920 -0.0514
19424TIP3   OH279762   5.541   5.214  11.509 -0.3706  0.2293 -0.6214
19424TIP3    H179763   5.626   5.249  11.535 -0.2797 -0.1678 -0.3687
19424TIP3    H279764   5.544   5.122  11.535 -0.5567  0.0018 -1.3644
19425TIP3   OH279765   6.656   6.584  15.982  0.2481  0.2204 -0.0927
19425TIP3    H179766   6.658   6.670  16.023  1.8042  0.1915 -0.0452
19425TIP3    H279767   6.666   6.601  15.889  0.8985  0.0892 -0.0536
19426TIP3   OH279768   1.212   2.374  15.601  0.0549 -0.2883 -0.2404
19426TIP3    H179769   1.297   2.391  15.642  0.0317  1.0144 -0.6900
19426TIP3    H279770   1.162   2.329  15.669  1.1758 -1.3337 -0.0638
19427TIP3   OH279771   0.440   0.840  17.090 -0.1321 -0.6782  0.0800
19427TIP3    H179772   0.379   0.766  17.080 -0.2375 -0.5595 -0.1665
19427TIP3    H279773   0.527   0.798  17.096 -0.1101 -0.7922 -0.8543
19428TIP3   OH279774   4.094   4.211  13.700  0.3177 -0.1455  0.3118
19428TIP3    H179775   4.173   4.194  13.648  0.1012  0.0500 -0.0856
19428TIP3    H279776   4.027   4.233  13.635 -0.2096 -0.8560  0.6132
19429TIP3   OH279777   3.471   4.791  11.834  0.2370  0.4228  0.3074
19429TIP3    H179778   3.451   4.880  11.865 -1.3653 -0.1480  1.0666
19429TIP3    H279779   3.463   4.736  11.912  1.0301 -0.4218 -0.1864
19430TIP3   OH279780   1.555   5.657   2.256  0.2336 -0.3989 -0.5223
19430TIP3    H179781   1.474   5.679   2.210  0.6588 -1.0326 -1.6191
19430TIP3    H279782   1.557   5.717   2.331  0.3409  1.8637 -2.2268
19431TIP3   OH279783   2.021   0.267   2.351 -0.0783 -0.0198 -0.0518
19431TIP3    H179784   1.986   0.246   2.264 -2.8079  0.1835  0.8788
19431TIP3    H279785   1.993   0.357   2.366  0.3236 -0.0708  1.0394
19432TIP3   OH279786   4.921   3.257  14.017 -0.4758  0.3837  0.0090
19432TIP3    H179787   4.876   3.205  13.949  0.4878 -1.1617  0.5160
19432TIP3    H279788   5.012   3.260  13.988  0.0403 -0.6874  1.4481
19433TIP3   OH279789   6.585   1.190  14.608  0.2470  0.2210  0.2665
19433TIP3    H179790   6.662   1.135  14.596 -0.3836 -0.8660  1.1269
19433TIP3    H279791   6.619   1.280  14.601  1.2090 -0.2345 -1.5805
19434TIP3   OH279792   0.991   5.442   6.271 -0.0238  0.8180  0.0503
19434TIP3    H179793   0.953   5.364   6.230  2.4858 -0.5219  0.1124
19434TIP3    H279794   0.935   5.457   6.348 -0.8461 -0.6343 -0.2189
19435TIP3   OH279795   3.834   5.622  12.149 -0.0653 -0.2059 -0.2588
19435TIP3    H179796   3.883   5.666  12.079  0.8676 -0.7189  0.0586
19435TIP3    H279797   3.798   5.544  12.107 -0.8119  0.2935 -0.5515
19436TIP3   OH279798   4.681   1.790  11.879  0.1121  0.5969 -0.0975
19436TIP3    H179799   4.617   1.862  11.877 -2.4695 -1.5538  0.0781
19436TIP3    H279800   4.748   1.818  11.817 -1.4608  2.5879 -1.0652
19437TIP3   OH279801   1.869   3.870   5.475 -0.0277  0.9119 -0.1836
19437TIP3    H179802   1.886   3.948   5.529  0.4352 -0.8418  2.3747
19437TIP3    H279803   1.928   3.804   5.510 -1.5760 -1.0851 -1.1793
19438TIP3   OH279804   5.003   5.566  11.907 -0.0517  0.0711  0.1683
19438TIP3    H179805   4.974   5.635  11.848  2.1751 -0.6600 -1.9648
19438TIP3    H279806   4.978   5.484  11.863  0.7751 -0.4918  0.6981
19439TIP3   OH279807   2.969   0.681  12.146  0.3168 -0.6344 -0.2421
19439TIP3    H179808   2.901   0.703  12.082 -1.1774 -5.0613 -0.5221
19439TIP3    H279809   2.927   0.695  12.231 -0.4292 -1.8312 -0.3936
19440TIP3   OH279810   6.642   2.100   3.373  0.2880 -0.2068  0.0068
19440TIP3    H179811   6.549   2.120   3.362 -0.2560 -2.7921 -0.9048
19440TIP3    H279812   6.644   2.035   3.443  1.4041 -0.1111  0.0692
19441TIP3   OH279813   3.837   4.087   3.437 -0.0598 -0.2335  0.2796
19441TIP3    H179814   3.773   4.029   3.477 -1.9784  2.1349  0.9277
19441TIP3    H279815   3.872   4.139   3.509  0.9125  0.0675 -0.3790
19442TIP3   OH279816   3.122   0.676  15.303  0.2635  0.1201 -0.7180
19442TIP3    H179817   3.196   0.640  15.255 -0.3021 -2.8782  0.4123
19442TIP3    H279818   3.151   0.680  15.394  0.3888  3.0576 -0.7943
19443TIP3   OH279819   1.354   2.016  13.145  0.6302  0.0515  0.2899
19443TIP3    H179820   1.279   1.967  13.114  0.5549 -0.8302  1.7969
19443TIP3    H279821   1.330   2.108  13.130 -0.3632 -0.2478 -0.0430
19444TIP3   OH279822   3.311   5.934  11.758 -0.4263 -0.1793 -0.1913
19444TIP3    H179823   3.333   5.877  11.684 -0.4684  0.1315 -0.4471
19444TIP3    H279824   3.387   5.991  11.768 -1.4718  1.6548 -1.7980
19445TIP3   OH279825   2.962   5.998   1.184 -0.2732 -0.0450  0.1646
19445TIP3    H179826   3.016   6.000   1.105  0.2383  1.9245  0.5070
19445TIP3    H279827   2.875   6.024   1.154 -0.0525  0.8165  0.2336
19446TIP3   OH279828   5.249   3.286  16.047 -0.9202 -0.6504 -0.4369
19446TIP3    H179829   5.189   3.355  16.076 -1.9565 -1.3656 -0.8517
19446TIP3    H279830   5.328   3.333  16.021 -0.3891  0.1386  2.3103
19447TIP3   OH279831   5.648   6.408   0.260 -0.0408  0.2290 -0.3074
19447TIP3    H179832   5.623   6.478   0.198 -2.9615 -0.3406  0.1062
19447TIP3    H279833   5.659   6.453   0.343  1.1299  0.5837 -0.6269
19448TIP3   OH279834   6.368   1.501  15.949 -0.5343  0.1083 -0.5072
19448TIP3    H179835   6.461   1.508  15.970  0.0124  0.9176 -2.8963
19448TIP3    H279836   6.323   1.536  16.026  1.0357 -1.4095  1.1847
19449TIP3   OH279837   6.640   6.096   4.341  0.6869  0.0828 -0.3761
19449TIP3    H179838   6.688   6.014   4.330 -1.0746 -1.3917  1.9584
19449TIP3    H279839   6.701   6.153   4.389  1.9712  0.2824 -2.1264
19450TIP3   OH279840   1.291   0.864   6.067  0.4781  0.2044 -0.2175
19450TIP3    H179841   1.316   0.772   6.057 -0.5633  0.0035 -1.2083
19450TIP3    H279842   1.196   0.864   6.054  0.2280  1.2142  1.4174
19451TIP3   OH279843   5.972   4.472   3.320 -0.5117 -0.4137  0.0928
19451TIP3    H179844   5.895   4.524   3.343  0.6733  1.5241 -0.1328
19451TIP3    H279845   5.964   4.456   3.226 -1.0662 -0.9663  0.2320
19452TIP3   OH279846   6.227   3.105   0.528 -0.0421  0.3220  0.3430
19452TIP3    H179847   6.211   3.054   0.607 -2.5177  0.9244  0.3128
19452TIP3    H279848   6.143   3.147   0.508  0.9092  1.4463 -1.7275
19453TIP3   OH279849   3.924   3.431   4.290  0.0962 -0.0693 -0.0247
19453TIP3    H179850   3.954   3.446   4.200 -0.7264  0.9657 -0.1422
19453TIP3    H279851   3.845   3.378   4.280  1.5651 -2.4511  0.2636
19454TIP3   OH279852   0.859   2.878  14.575  0.6141 -0.2310 -0.1722
19454TIP3    H179853   0.939   2.843  14.536  1.0934 -1.1204  1.5316
19454TIP3    H279854   0.792   2.812  14.556  0.9280 -0.8366  0.7997
19455TIP3   OH279855   0.284   3.882  16.930  0.4084 -0.6818  0.3553
19455TIP3    H179856   0.263   3.948  16.865  2.2544 -0.5250 -0.1356
19455TIP3    H279857   0.360   3.917  16.976  0.5228 -1.8130  1.0637
19456TIP3   OH279858   4.972   6.603   5.069  0.3387 -0.9918  0.0494
19456TIP3    H179859   4.973   6.669   5.138 -1.6838  0.6205 -1.3057
19456TIP3    H279860   4.901   6.544   5.094  0.0025 -0.7534 -0.3309
19457TIP3   OH279861   2.554   0.492  13.579 -0.4959  0.0516  0.2909
19457TIP3    H179862   2.478   0.488  13.520 -0.0167  0.4394 -0.3672
19457TIP3    H279863   2.561   0.404  13.614  1.4128 -1.3085 -3.0860
19458TIP3   OH279864   1.203   1.782   1.026  0.6408 -0.6630 -0.2039
19458TIP3    H179865   1.135   1.728   1.065  0.8107 -0.3470  0.5319
19458TIP3    H279866   1.156   1.843   0.969  0.3222 -0.5958  0.1277
19459TIP3   OH279867   0.300   2.077  14.848  0.2757 -0.4512 -0.0353
19459TIP3    H179868   0.237   2.148  14.849  1.1516  0.3491 -0.1839
19459TIP3    H279869   0.315   2.059  14.755  0.2586 -0.6563 -0.0010
19460TIP3   OH279870   2.424   0.805  15.608  0.4354 -0.5247 -0.1730
19460TIP3    H179871   2.370   0.755  15.548  1.5922  0.8067 -2.4754
19460TIP3    H279872   2.511   0.765  15.602  0.6632 -0.1214  0.2848
19461TIP3   OH279873   2.647   0.360   4.906  0.0162  0.0685  0.3360
19461TIP3    H179874   2.661   0.311   4.824  2.5420 -0.9075  1.2652
19461TIP3    H279875   2.734   0.384   4.935 -0.7563 -0.1137  3.0546
19462TIP3   OH279876   0.672   2.596   0.513  0.3919 -0.4798 -0.6868
19462TIP3    H179877   0.706   2.543   0.440  1.1821 -0.4088 -0.3822
19462TIP3    H279878   0.740   2.662   0.527 -1.8591  2.5800 -3.0406
19463TIP3   OH279879   2.381   0.715  17.290 -0.9594  0.3490 -0.1325
19463TIP3    H179880   2.426   0.700  17.208 -1.0734 -1.0403  0.0448
19463TIP3    H279881   2.298   0.755  17.265 -0.7957  0.3622 -0.6538
19464TIP3   OH279882   6.612   1.650   0.361  0.3965  0.5457 -0.1924
19464TIP3    H179883   6.657   1.717   0.310 -1.5369  2.2346  0.2337
19464TIP3    H279884   6.666   1.640   0.439  2.1820 -0.4661 -1.4650
19465TIP3   OH279885   0.313   6.245  14.065  0.1025 -0.1907 -0.0940
19465TIP3    H179886   0.285   6.277  13.980 -0.6813  1.1712  0.6297
19465TIP3    H279887   0.234   6.246  14.119  0.9390  0.9334  1.1900
19466TIP3   OH279888   3.122   6.788  13.731  0.0349 -0.1120  0.2537
19466TIP3    H179889   3.210   6.756  13.749 -0.1256 -0.5682  0.2424
19466TIP3    H279890   3.118   6.873  13.775  0.6562  0.1550 -0.2064
19467TIP3   OH279891   3.700   2.608  13.294  0.0152 -0.4392  0.1295
19467TIP3    H179892   3.657   2.619  13.379  1.2327  1.3748  0.5759
19467TIP3    H279893   3.769   2.545  13.310  0.0233 -0.3627  0.4004
19468TIP3   OH279894   6.196   0.617   5.536  0.4579  0.3870  0.0774
19468TIP3    H179895   6.105   0.641   5.525  0.4706  0.9114  1.0024
19468TIP3    H279896   6.236   0.691   5.582  1.9019  1.1929 -2.2891
19469TIP3   OH279897   4.118   0.307   3.319 -0.4240  0.2329  0.1268
19469TIP3    H179898   4.200   0.316   3.366 -0.4662 -0.1443  0.2758
19469TIP3    H279899   4.083   0.396   3.314 -0.5728  0.2396  1.0872
19470TIP3   OH279900   2.374   4.784  16.479 -0.2719 -0.1755  0.7226
19470TIP3    H179901   2.346   4.829  16.400 -1.8337 -1.7022  0.3572
19470TIP3    H279902   2.466   4.763  16.463 -0.4496 -0.0865 -0.5178
19471TIP3   OH279903   3.857   4.770  15.547 -0.7449 -0.3599  0.9866
19471TIP3    H179904   3.795   4.805  15.611 -0.9535 -1.0146  1.1454
19471TIP3    H279905   3.936   4.823  15.559 -1.2391  0.4335  0.8351
19472TIP3   OH279906   0.437   4.859   2.798  0.3864  0.0909  0.2076
19472TIP3    H179907   0.416   4.777   2.842  2.2137 -1.1085 -1.0653
19472TIP3    H279908   0.472   4.833   2.713 -1.3539  2.2810 -1.2992
19473TIP3   OH279909   2.931   2.629   2.672 -0.1144  0.0998 -0.1514
19473TIP3    H179910   2.855   2.591   2.629 -0.0919  1.3335 -1.3292
19473TIP3    H279911   2.964   2.558   2.728 -1.7790 -0.6306 -0.0281
19474TIP3   OH279912   3.034   2.953   4.935  0.0933 -0.5676  0.3715
19474TIP3    H179913   3.001   2.947   5.025  0.2097 -1.5565  0.3643
19474TIP3    H279914   2.962   2.994   4.886 -0.6171 -1.4591  0.6233
19475TIP3   OH279915   4.754   2.763  16.229  0.1591  0.0987  0.0784
19475TIP3    H179916   4.809   2.791  16.302  0.9426 -1.5171  0.1505
19475TIP3    H279917   4.791   2.807  16.152 -0.0604  1.0315  0.4927
19476TIP3   OH279918   1.022   2.378   2.861  0.5454  0.4201 -0.2866
19476TIP3    H179919   1.079   2.355   2.788  0.9900  0.6826 -0.0288
19476TIP3    H279920   0.937   2.397   2.821  0.8412  0.7730 -0.7538
19477TIP3   OH279921   6.169   1.771  15.793 -0.4289  0.0266  0.1399
19477TIP3    H179922   6.214   1.738  15.870 -1.2903  1.5265  1.3380
19477TIP3    H279923   6.125   1.694  15.756  0.3560 -0.7993  0.8709
19478TIP3   OH279924   0.725   6.304   6.555  0.2562  0.1076  0.3330
19478TIP3    H179925   0.720   6.219   6.599  1.0225 -0.1311 -0.0151
19478TIP3    H279926   0.655   6.356   6.594  1.0345 -0.0261  1.9523
19479TIP3   OH279927   4.167   3.563   3.337  0.6569  0.0084  0.2616
19479TIP3    H179928   4.097   3.620   3.368  0.2279 -0.0462 -0.5780
19479TIP3    H279929   4.140   3.475   3.363 -0.3651 -0.1960 -1.3996
19480TIP3   OH279930   1.671   4.881  16.137 -0.0438 -0.7847 -0.4069
19480TIP3    H179931   1.748   4.826  16.119  0.4949  0.2752 -1.4830
19480TIP3    H279932   1.602   4.846  16.081  0.2930 -0.4133 -1.0729
19481TIP3   OH279933   0.246   3.873   0.604  0.1191 -0.3292  0.8387
19481TIP3    H179934   0.179   3.813   0.573  0.4770 -0.2941 -0.0060
19481TIP3    H279935   0.198   3.951   0.633 -0.1281  0.2496 -1.0356
19482TIP3   OH279936   1.888   0.222   1.721 -0.2799  0.1237 -0.1517
19482TIP3    H179937   1.873   0.307   1.760  0.9952 -0.0006  0.6888
19482TIP3    H279938   1.970   0.232   1.672 -0.0472 -0.6189  0.0548
19483TIP3   OH279939   5.064   0.405   5.870  0.3822  0.6898  0.6159
19483TIP3    H179940   5.119   0.361   5.805  1.6876  0.7560  1.6219
19483TIP3    H279941   5.093   0.369   5.954 -2.3067 -0.5286  1.1293
19484TIP3   OH279942   5.279   0.793   4.795 -0.0060  0.0226 -0.0792
19484TIP3    H179943   5.353   0.853   4.807  0.6315 -0.6937 -0.3832
19484TIP3    H279944   5.284   0.765   4.704 -0.5949 -0.1071 -0.0762
19485TIP3   OH279945   4.636   2.563  16.086  0.1575 -0.1721 -0.7175
19485TIP3    H179946   4.678   2.629  16.143 -1.7153  0.3766  0.1199
19485TIP3    H279947   4.699   2.547  16.017  3.4023 -2.1858  2.3563
19486TIP3   OH279948   0.058   5.541  15.560  0.0332  0.2545  0.3262
19486TIP3    H179949   0.036   5.571  15.648 -0.4879  2.0773 -0.3904
19486TIP3    H279950   0.132   5.595  15.533 -0.0752 -0.0003 -0.5144
19487TIP3   OH279951   2.289   2.332   1.951 -0.2944  0.1155  0.5411
19487TIP3    H179952   2.385   2.325   1.955 -0.3636 -0.5678  1.0972
19487TIP3    H279953   2.258   2.242   1.954 -1.0460  0.3925  2.8175
19488TIP3   OH279954   4.126   6.373   1.631 -0.1703 -0.1068  0.3941
19488TIP3    H179955   4.172   6.438   1.578  1.9033  0.2693  2.4514
19488TIP3    H279956   4.197   6.322   1.671 -1.6384 -0.9961  1.9682
19489TIP3   OH279957   3.466   5.730   0.164  0.0767  0.2603  0.9775
19489TIP3    H179958   3.409   5.745   0.088  0.1971  2.5614  1.2885
19489TIP3    H279959   3.517   5.810   0.172  1.0469 -0.4883  2.6790
19490TIP3   OH279960   2.963   6.111  15.162  0.4197  0.4085 -0.3919
19490TIP3    H179961   3.056   6.109  15.185  0.7048  1.3347 -1.3688
19490TIP3    H279962   2.923   6.167  15.228  0.2295 -1.3069  1.0123
19491TIP3   OH279963   3.821   4.455   4.040  0.3464  0.8438  0.4297
19491TIP3    H179964   3.742   4.475   3.989 -0.2747  0.6019  1.2747
19491TIP3    H279965   3.888   4.437   3.974 -0.8878 -1.3472 -0.3392
19492TIP3   OH279966   2.907   1.776   1.689  0.5580 -0.6423  0.3686
19492TIP3    H179967   2.911   1.725   1.770  0.2582 -0.8295  0.2662
19492TIP3    H279968   2.868   1.717   1.625 -2.4481  0.5623  0.9202
19493TIP3   OH279969   3.189   2.964   5.343  0.3977 -0.1175  0.2837
19493TIP3    H179970   3.163   2.886   5.294  2.8631 -0.5076 -0.5339
19493TIP3    H279971   3.140   3.035   5.302 -0.3576 -0.9515 -0.2959
19494TIP3   OH279972   2.969   6.068  13.073 -0.7656  0.1052 -0.1567
19494TIP3    H179973   2.968   5.973  13.082 -1.0691  0.0961 -0.2722
19494TIP3    H279974   2.882   6.090  13.038 -0.5412  0.3798 -0.5602
19495TIP3   OH279975   5.753   4.192   0.825  0.5904  0.1956 -0.8448
19495TIP3    H179976   5.843   4.208   0.796  1.4515 -3.9808 -1.1506
19495TIP3    H279977   5.761   4.170   0.917 -0.3667  1.1790 -0.5071
19496TIP3   OH279978   3.649   2.731   4.780 -0.1722  0.6235  0.4682
19496TIP3    H179979   3.689   2.776   4.855 -0.1972 -1.4172  1.8021
19496TIP3    H279980   3.720   2.677   4.744 -0.7572 -0.2245  0.5472
19497TIP3   OH279981   1.016   4.208  11.621 -0.5839 -0.4029  0.2410
19497TIP3    H179982   0.957   4.193  11.547  0.0500 -1.2571 -0.0972
19497TIP3    H279983   0.972   4.165  11.695 -1.0873  0.2233  0.3172
19498TIP3   OH279984   0.754   1.265  14.573  0.0751 -0.4979  0.3673
19498TIP3    H179985   0.688   1.332  14.590  0.8888  0.0254  1.5268
19498TIP3    H279986   0.720   1.186  14.615  0.0262 -0.3190  0.6642
19499TIP3   OH279987   0.076   4.213   1.067  0.2371 -0.5689  0.4643
19499TIP3    H179988   0.061   4.303   1.039  0.2206 -0.8431 -0.4203
19499TIP3    H279989   0.001   4.164   1.033 -1.8125 -0.3483  4.0416
19500TIP3   OH279990   0.733   2.575  15.905 -0.3137  0.4913 -0.3447
19500TIP3    H179991   0.713   2.644  15.968 -0.2917  1.4684 -1.3910
19500TIP3    H279992   0.663   2.581  15.840  0.6248  0.6655 -1.3662
19501TIP3   OH279993   2.113   0.778  15.463  0.5924  0.1924 -0.0454
19501TIP3    H179994   2.074   0.799  15.379  2.5425  0.5839 -0.9184
19501TIP3    H279995   2.069   0.698  15.491 -0.8540  0.6583 -0.8743
19502TIP3   OH279996   0.464   1.785   3.355  0.4690  0.0222 -0.8435
19502TIP3    H179997   0.476   1.699   3.394 -0.6240  0.2262 -0.0012
19502TIP3    H279998   0.501   1.777   3.267 -0.0406 -1.4493 -0.9485
19503TIP3   OH279999   1.470   3.846  11.109  0.1963 -0.4325  0.4548
19503TIP3    H180000   1.531   3.920  11.115  0.3241 -0.4053 -0.9545
19503TIP3    H280001   1.503   3.783  11.172  1.2914 -0.1295  0.2079
19504TIP3   OH280002   1.729   6.005  12.876  0.2554 -0.3463 -0.1580
19504TIP3    H180003   1.823   5.995  12.893  0.5570 -0.9233 -1.9228
19504TIP3    H280004   1.710   5.942  12.806 -2.0968 -2.3884  2.1063
19505TIP3   OH280005   1.076   6.007   2.126 -0.1683 -0.5441 -0.2941
19505TIP3    H180006   1.080   5.951   2.049 -2.3926 -1.3181  0.0778
19505TIP3    H280007   1.087   5.946   2.200  0.6900  0.0022  0.0343
19506TIP3   OH280008   3.983   0.241   4.339  0.5315  0.2110  0.0228
19506TIP3    H180009   3.913   0.304   4.320 -0.4919 -0.9702 -0.1838
19506TIP3    H280010   4.004   0.255   4.431 -0.1985  0.3461  0.1675
19507TIP3   OH280011   6.451   2.328   1.028 -0.0971  0.1512  0.2397
19507TIP3    H180012   6.386   2.315   1.097  1.2737 -5.7241  0.9198
19507TIP3    H280013   6.403   2.317   0.946 -0.5739 -0.5468  0.6027
19508TIP3   OH280014   1.314   4.242   5.085  1.0987 -0.1008  0.3289
19508TIP3    H180015   1.348   4.177   5.146  1.2000 -1.1212 -0.7836
19508TIP3    H280016   1.387   4.259   5.025  0.0138 -1.6567 -1.5548
19509TIP3   OH280017   4.844   4.495   0.024 -0.0993 -0.0150  0.1111
19509TIP3    H180018   4.870   4.477   0.115 -1.0168  0.9427  0.5859
19509TIP3    H280019   4.877   4.583   0.007  0.6948 -0.4662 -0.7459
19510TIP3   OH280020   5.319   6.434  11.505  0.5970  0.7208 -0.4345
19510TIP3    H180021   5.298   6.357  11.557  0.2086 -0.4932 -2.3117
19510TIP3    H280022   5.267   6.504  11.545  0.9041  0.0229  1.2570
19511TIP3   OH280023   0.264   2.561   2.399 -0.4030  0.0624 -0.6220
19511TIP3    H180024   0.352   2.594   2.418  0.1180 -0.2576 -2.3456
19511TIP3    H280025   0.239   2.513   2.479  0.1644  1.7703  0.6368
19512TIP3   OH280026   2.294   2.974  15.180 -0.4600 -0.2331  0.0790
19512TIP3    H180027   2.281   2.886  15.144  0.6785 -0.4592  0.1678
19512TIP3    H280028   2.305   3.030  15.103 -0.2171 -0.3406  0.0339
19513TIP3   OH280029   5.456   5.876  12.073 -0.3834  0.0945  0.0646
19513TIP3    H180030   5.399   5.817  12.122 -0.6040  0.0509 -0.2433
19513TIP3    H280031   5.520   5.907  12.137 -0.8137  0.2245  0.4321
19514TIP3   OH280032   1.068   6.567  15.319  0.2583  0.2641  0.0788
19514TIP3    H180033   0.993   6.591  15.374 -0.5164 -0.6165 -0.5490
19514TIP3    H280034   1.028   6.530  15.240  1.3451  1.0886 -0.8963
19515TIP3   OH280035   0.717   0.415   1.522 -0.2303 -0.0405 -0.1616
19515TIP3    H180036   0.651   0.405   1.591 -1.1485 -0.0443 -1.0203
19515TIP3    H280037   0.720   0.510   1.506  1.6184  0.2320  1.4068
19516TIP3   OH280038   1.733   5.692  14.625  0.0592 -0.2623  0.7058
19516TIP3    H180039   1.815   5.731  14.593  0.1021  0.1008  1.2578
19516TIP3    H280040   1.750   5.598  14.624  0.3687 -0.2070  0.5025
19517TIP3   OH280041   2.311   6.641   4.483  0.3809 -0.1108 -0.1233
19517TIP3    H180042   2.317   6.610   4.574  0.1387  0.8278  0.2272
19517TIP3    H280043   2.261   6.573   4.438  0.4870 -0.5830  0.4450
19518TIP3   OH280044   2.759   5.890   6.581 -0.5803 -0.3547  0.3180
19518TIP3    H180045   2.791   5.964   6.634 -0.5545 -0.9941  1.2217
19518TIP3    H280046   2.837   5.840   6.560 -0.3912  0.6169 -1.5459
19519TIP3   OH280047   6.669   2.730  15.839  0.1136 -0.3359  0.3613
19519TIP3    H180048   6.603   2.669  15.805  0.6862 -1.2756  0.8966
19519TIP3    H280049   6.690   2.696  15.926  1.2018  0.0280  0.2479
19520TIP3   OH280050   3.384   6.460  13.555 -0.0980 -0.4860  0.4256
19520TIP3    H180051   3.345   6.406  13.624  0.5121 -1.5170 -0.0274
19520TIP3    H280052   3.326   6.449  13.480 -1.0141  0.9885  0.8596
19521TIP3   OH280053   1.746   5.103   0.813  0.3189 -0.2723 -0.3113
19521TIP3    H180054   1.652   5.102   0.793 -0.0557 -0.5312  1.3425
19521TIP3    H280055   1.757   5.033   0.877  1.8770 -1.0691 -1.3870
19522TIP3   OH280056   4.980   1.339   5.007 -0.3976  0.4553 -0.2784
19522TIP3    H180057   5.032   1.417   5.026  0.3107 -0.3881  1.5321
19522TIP3    H280058   4.965   1.299   5.093  1.4677 -2.7563 -1.2606
19523TIP3   OH280059   6.010   4.327   0.191 -0.6816  0.0866 -0.0364
19523TIP3    H180060   5.949   4.281   0.248 -0.9148  0.6412  0.1669
19523TIP3    H280061   6.091   4.277   0.197 -0.5169  0.4713  1.2648
19524TIP3   OH280062   1.619   4.500  17.062 -0.3916 -0.0220 -0.0393
19524TIP3    H180063   1.638   4.490  16.969 -0.2451 -1.9940  0.1591
19524TIP3    H280064   1.703   4.487  17.106 -0.4670  0.8465  0.3748
19525TIP3   OH280065   3.315   5.189  11.301  0.3872  0.0545 -0.3397
19525TIP3    H180066   3.361   5.127  11.357  0.7494 -0.8044 -1.5542
19525TIP3    H280067   3.381   5.218  11.238 -0.1987  0.4360 -0.7924
19526TIP3   OH280068   1.044   1.816   2.615  0.1003 -0.1057 -0.8524
19526TIP3    H180069   0.976   1.806   2.682 -0.7442  1.0460 -1.5046
19526TIP3    H280070   0.995   1.819   2.533  0.9420  0.6292 -1.3372
19527TIP3   OH280071   0.534   5.673  14.995 -0.5459 -0.4753 -0.3199
19527TIP3    H180072   0.495   5.734  14.933 -1.1225  0.0687  0.5554
19527TIP3    H280073   0.605   5.723  15.037 -0.2716 -0.7787 -0.4161
19528TIP3   OH280074   4.647   6.035  16.182  0.7640 -0.2911 -0.1175
19528TIP3    H180075   4.610   5.946  16.178 -0.4001  0.2016 -0.7400
19528TIP3    H280076   4.604   6.075  16.258  1.4095 -0.3007  0.2606
19529TIP3   OH280077   3.212   3.959   0.609  0.0660  0.0098 -0.7266
19529TIP3    H180078   3.168   4.010   0.541  0.2911 -0.7380 -1.4399
19529TIP3    H280079   3.142   3.908   0.651 -0.3567  1.6928  0.7535
19530TIP3   OH280080   1.161   4.676  11.441 -0.0405  0.1961 -0.0366
19530TIP3    H180081   1.250   4.660  11.408 -0.3113 -1.0616 -0.2198
19530TIP3    H280082   1.144   4.602  11.500 -0.4873  1.1217  1.0268
19531TIP3   OH280083   1.462   6.345  14.457  0.5667 -0.3149 -0.1070
19531TIP3    H180084   1.517   6.321  14.383  0.8972  1.4004 -0.4585
19531TIP3    H280085   1.466   6.441  14.460 -0.7612 -0.2661  1.1227
19532TIP3   OH280086   3.712   3.956  14.229 -0.5358 -0.3975 -0.2982
19532TIP3    H180087   3.790   3.926  14.183 -0.8203  0.7481 -1.5859
19532TIP3    H280088   3.649   3.977  14.160 -0.7757  1.9400  0.5244
19533TIP3   OH280089   4.348   2.805  15.735  0.1668 -0.0113  0.8293
19533TIP3    H180090   4.434   2.810  15.693 -0.5966  0.3171 -0.7732
19533TIP3    H280091   4.286   2.829  15.666 -1.2022  0.0259  2.0213
19534TIP3   OH280092   5.546   6.024   0.471 -0.1567 -0.3180  0.0169
19534TIP3    H180093   5.490   6.102   0.471 -1.0108 -0.8857 -1.3134
19534TIP3    H280094   5.562   6.005   0.563 -0.2466  1.2022  0.3712
19535TIP3   OH280095   1.082   2.892  15.077  0.3171  0.4994  0.5843
19535TIP3    H180096   1.021   2.933  15.016 -1.2492  0.6325  2.1749
19535TIP3    H280097   1.085   2.800  15.051  0.2594  0.7059 -0.1553
19536TIP3   OH280098   2.504   6.718   5.383  0.5615  0.4521  0.0199
19536TIP3    H180099   2.519   6.682   5.296 -1.8641 -1.1005  0.1699
19536TIP3    H280100   2.536   6.651   5.443  2.5913  1.6806  0.4095
19537TIP3   OH280101   2.294   1.238   2.281  0.1244  0.2372  0.1185
19537TIP3    H180102   2.232   1.299   2.239 -0.6573 -0.8052 -0.2726
19537TIP3    H280103   2.239   1.184   2.338  0.9133  0.3214  0.9781
19538TIP3   OH280104   4.075   5.134   2.340 -0.4059 -0.6645  0.1626
19538TIP3    H180105   4.014   5.111   2.270 -0.3143 -1.2841  0.2801
19538TIP3    H280106   4.147   5.072   2.331  0.0427 -0.1655  0.2485
19539TIP3   OH280107   1.871   1.794   5.092  0.5566  0.5561  0.0285
19539TIP3    H180108   1.924   1.766   5.167 -1.2990  2.0472  2.0105
19539TIP3    H280109   1.933   1.842   5.037  2.4224 -2.2043 -0.5199
19540TIP3   OH280110   5.237   3.187  12.580  0.4075 -0.6256 -0.0485
19540TIP3    H180111   5.143   3.170  12.583  0.3203 -0.2975 -0.9836
19540TIP3    H280112   5.253   3.226  12.495  1.1152  1.0634  0.8101
19541TIP3   OH280113   6.057   1.878  14.868 -0.1205  0.6086 -0.1955
19541TIP3    H180114   6.042   1.834  14.785  1.5080 -0.9885  0.3136
19541TIP3    H280115   6.093   1.964  14.844 -0.5263  0.5339 -1.1196
19542TIP3   OH280116   5.707   0.388  15.091 -0.7177 -0.1804  0.0715
19542TIP3    H180117   5.789   0.417  15.130 -2.1636  0.2746  3.0646
19542TIP3    H280118   5.660   0.469  15.071 -2.0998 -0.3258  2.3857
19543TIP3   OH280119   0.772   4.452  13.672  0.7824 -0.1780  0.8617
19543TIP3    H180120   0.710   4.390  13.635 -0.3348  1.0632  0.5634
19543TIP3    H280121   0.808   4.498  13.596  1.8097 -0.6259  1.0583
19544TIP3   OH280122   3.297   6.668   2.572 -0.2116  0.3404 -0.3922
19544TIP3    H180123   3.264   6.728   2.638 -2.3496 -0.7525 -0.3737
19544TIP3    H280124   3.284   6.581   2.609  0.9086 -0.2225 -1.2389
19545TIP3   OH280125   0.181   5.042  15.948  0.1390  0.0626  0.1646
19545TIP3    H180126   0.189   5.052  15.853 -1.6911 -1.0645 -0.1636
19545TIP3    H280127   0.094   5.077  15.968  0.7987  1.0043  1.5773
19546TIP3   OH280128   0.071   4.234   2.240 -0.0508 -0.2851 -0.3039
19546TIP3    H180129   0.005   4.191   2.187 -1.2699 -0.3797  1.2232
19546TIP3    H280130   0.108   4.163   2.293 -1.3286  0.3106  1.4626
19547TIP3   OH280131   5.719   1.428  16.145  0.7953 -0.0492  0.6240
19547TIP3    H180132   5.648   1.371  16.115 -0.3300  2.1711 -1.1751
19547TIP3    H280133   5.756   1.382  16.220  0.0042 -3.1641 -0.7280
19548TIP3   OH280134   2.522   6.011  16.773  0.1263 -0.1739  0.0995
19548TIP3    H180135   2.519   6.052  16.860 -1.2781 -0.2768  0.1248
19548TIP3    H280136   2.543   5.919  16.790 -1.3661 -0.4735  0.4672
19549TIP3   OH280137   0.579   1.242   2.661  0.2536  0.3621 -0.2961
19549TIP3    H180138   0.613   1.328   2.636 -1.0936  0.8053 -0.6921
19549TIP3    H280139   0.554   1.201   2.579 -0.1684  0.0572 -0.0220
19550TIP3   OH280140   5.432   1.618   3.257  0.2614 -0.0323  0.0608
19550TIP3    H180141   5.369   1.556   3.221 -0.3523 -0.3765  1.6612
19550TIP3    H280142   5.502   1.562   3.293 -0.1780  0.1918  1.2920
19551TIP3   OH280143   2.113   4.134   5.173  0.4598 -0.0500  0.3127
19551TIP3    H180144   2.207   4.151   5.174  0.4652  0.1509  2.5890
19551TIP3    H280145   2.099   4.081   5.094  2.1402  1.4653 -1.0874
19552TIP3   OH280146   2.062   6.693   1.263 -0.6068 -0.2071 -0.0578
19552TIP3    H180147   2.055   6.602   1.290 -1.6804  0.5543  2.6378
19552TIP3    H280148   1.987   6.736   1.305 -0.9332  1.6895 -2.4033
19553TIP3   OH280149   5.495   4.794   4.377  0.2104 -0.1132 -0.1545
19553TIP3    H180150   5.567   4.838   4.332  0.7477  0.5846  1.3401
19553TIP3    H280151   5.535   4.717   4.418  0.5208  1.1487  2.0577
19554TIP3   OH280152   3.468   3.834   3.209 -0.3900 -0.6188  0.1605
19554TIP3    H180153   3.403   3.903   3.224 -1.9345 -1.7858 -0.7921
19554TIP3    H280154   3.435   3.760   3.259 -0.9794 -1.8759 -1.9618
19555TIP3   OH280155   0.201   1.129   1.329  0.3763  0.4155 -0.2318
19555TIP3    H180156   0.148   1.054   1.354  0.8396  0.4034  0.7876
19555TIP3    H280157   0.137   1.199   1.315  0.0920  0.7610  2.2486
19556TIP3   OH280158   1.477   1.915   5.319 -0.2461  0.2000 -0.0110
19556TIP3    H180159   1.432   1.925   5.235 -1.3009  0.6758  0.5808
19556TIP3    H280160   1.422   1.853   5.367 -0.5734  1.1656  0.9088
19557TIP3   OH280161   6.795   0.611  12.117 -0.1799  0.4011 -0.2571
19557TIP3    H180162   6.784   0.695  12.072  1.1298  1.0330  0.5483
19557TIP3    H280163   6.775   0.545  12.050 -0.2014  1.3348 -1.1953
19558TIP3   OH280164   4.192   2.008   4.986  0.9331  1.3389 -1.2231
19558TIP3    H180165   4.238   2.001   4.902  0.7584  2.3978 -1.4283
19558TIP3    H280166   4.166   2.100   4.991  0.6066  1.2031 -0.1761
19559TIP3   OH280167   6.432   1.875   4.830 -0.5207 -0.1794 -0.0333
19559TIP3    H180168   6.402   1.785   4.841 -0.0600 -0.4202 -0.6921
19559TIP3    H280169   6.517   1.877   4.874 -1.7156  0.6742  2.4160
19560TIP3   OH280170   4.477   5.210   4.580 -0.1950  0.6540  0.4661
19560TIP3    H180171   4.569   5.223   4.555 -0.5166 -1.4375 -2.2774
19560TIP3    H280172   4.470   5.116   4.597 -2.1265  0.4620 -1.0247
19561TIP3   OH280173   4.860   1.593   1.817 -0.1041  0.2473  0.2820
19561TIP3    H180174   4.816   1.516   1.782  0.7171  0.4967 -1.4157
19561TIP3    H280175   4.951   1.566   1.829 -0.1486  0.4865  1.2767
19562TIP3   OH280176   5.661   5.463   4.548  0.4119 -0.0928 -0.0343
19562TIP3    H180177   5.671   5.493   4.639 -2.0154  1.0813 -0.0444
19562TIP3    H280178   5.660   5.368   4.553 -1.6154 -0.0666  1.5375
19563TIP3   OH280179   3.647   6.209   1.121  0.1498 -0.0892  0.2815
19563TIP3    H180180   3.629   6.189   1.213 -0.0902 -0.3586  0.1768
19563TIP3    H280181   3.735   6.247   1.122  1.6519 -3.2458  0.2617
19564TIP3   OH280182   1.359   5.932   3.831 -0.0223  0.0199 -0.8022
19564TIP3    H180183   1.290   5.952   3.768 -2.8485 -1.6289  1.5151
19564TIP3    H280184   1.338   5.986   3.907  1.0617 -0.7449  0.0753
19565TIP3   OH280185   0.249   2.021  11.365 -0.1690 -0.1268 -0.5841
19565TIP3    H180186   0.231   2.092  11.427 -1.5279 -0.5847 -0.4291
19565TIP3    H280187   0.227   2.057  11.280 -0.3817 -0.1937 -0.5591
19566TIP3   OH280188   0.393   1.065   5.077  0.4113 -0.3089 -0.1484
19566TIP3    H180189   0.371   0.972   5.077  1.7453 -0.6852  1.6245
19566TIP3    H280190   0.414   1.084   5.168 -1.4934  2.1902 -0.1506
19567TIP3   OH280191   1.415   0.081  15.137 -0.2488 -0.7072 -0.1033
19567TIP3    H180192   1.365   0.137  15.078 -0.7790 -0.5311  0.5073
19567TIP3    H280193   1.362   0.075  15.216  0.3576 -1.1088  0.2836
19568TIP3   OH280194   2.688   0.610  12.796 -0.0230  0.2540  0.3427
19568TIP3    H180195   2.645   0.656  12.869  0.0698  0.9712 -0.0464
19568TIP3    H280196   2.709   0.679  12.733  0.4875 -0.2719 -0.0764
19569TIP3   OH280197   0.216   3.174   4.473 -0.0359 -0.2349  0.2553
19569TIP3    H180198   0.154   3.220   4.529 -2.0210 -2.3587 -0.0385
19569TIP3    H280199   0.291   3.155   4.530 -0.0553  1.4821  0.9025
19570TIP3   OH280200   5.159   4.378   1.572  0.9295  0.1143 -0.0188
19570TIP3    H180201   5.244   4.422   1.565  0.3036  1.1567 -4.5442
19570TIP3    H280202   5.095   4.447   1.558 -0.4454 -1.1832 -0.3155
19571TIP3   OH280203   1.522   3.377   5.152  0.2948  0.1904 -0.1167
19571TIP3    H180204   1.580   3.304   5.173  1.3518  1.0427 -0.0044
19571TIP3    H280205   1.526   3.433   5.230 -0.1155  0.6221 -0.4042
19572TIP3   OH280206   3.245   3.039   2.909  0.0525 -0.3710  0.6907
19572TIP3    H180207   3.165   3.047   2.858  0.2529  0.9965  0.5586
19572TIP3    H280208   3.241   3.111   2.972  0.7790 -0.8017  1.2467
19573TIP3   OH280209   6.258   4.971  11.985 -0.0798  0.4509  0.0597
19573TIP3    H180210   6.250   5.008  12.072  2.0624  1.0611  0.0534
19573TIP3    H280211   6.190   5.015  11.933 -1.9382 -0.5315  1.5511
19574TIP3   OH280212   6.249   0.056  16.260 -0.4363 -0.0819  0.6674
19574TIP3    H180213   6.293   0.005  16.327 -1.1444 -1.4709  0.1135
19574TIP3    H280214   6.156   0.050  16.282 -0.4724  2.6525  1.7256
19575TIP3   OH280215   2.503   5.057  12.616  0.3165  0.5372  0.6231
19575TIP3    H180216   2.489   5.126  12.680  2.2446  2.3379 -0.7788
19575TIP3    H280217   2.469   5.093  12.534  0.8732 -0.3876 -0.0347
19576TIP3   OH280218   5.804   5.887  16.366 -0.4158 -0.5376 -0.1456
19576TIP3    H180219   5.770   5.942  16.295 -0.1578 -1.3866 -0.9377
19576TIP3    H280220   5.754   5.916  16.443 -1.0248  0.0838 -0.7506
19577TIP3   OH280221   0.546   1.873   2.754  0.0604 -0.6772  0.4050
19577TIP3    H180222   0.499   1.904   2.832  0.4782  2.5788 -0.5190
19577TIP3    H280223   0.478   1.862   2.688  0.0660 -0.5658  0.3818
19578TIP3   OH280224   0.112   2.262   2.198  0.5416 -0.0082 -0.0937
19578TIP3    H180225   0.177   2.192   2.202  0.4253 -0.1416 -0.4272
19578TIP3    H280226   0.163   2.341   2.179  0.5650 -0.1892 -0.8281
19579TIP3   OH280227   5.253   0.591   0.278  0.4476  0.1064  0.0386
19579TIP3    H180228   5.162   0.590   0.248  1.2508  0.4328 -2.7272
19579TIP3    H280229   5.249   0.570   0.371 -2.5306  1.3241  0.2666
19580TIP3   OH280230   4.954   0.190   4.624 -0.1667 -0.7474  0.2346
19580TIP3    H180231   4.968   0.156   4.536 -0.7241  0.0236 -0.1667
19580TIP3    H280232   4.987   0.121   4.682  0.6954 -1.0393 -0.5757
19581TIP3   OH280233   4.486   1.533  15.075 -0.6965 -0.1980 -0.1111
19581TIP3    H180234   4.464   1.440  15.065 -0.6933 -0.2334  0.2044
19581TIP3    H280235   4.403   1.579  15.058 -0.5903 -0.2310 -0.7311
19582TIP3   OH280236   6.218   4.242  16.708 -0.4719 -0.0042 -0.0761
19582TIP3    H180237   6.167   4.314  16.745 -0.0673  0.7034 -0.8533
19582TIP3    H280238   6.292   4.231  16.769 -1.2389 -0.6714  0.7579
19583TIP3   OH280239   4.170   4.797  13.509  0.6062  0.3299 -0.0385
19583TIP3    H180240   4.203   4.709  13.525  0.9843  0.3443 -0.7464
19583TIP3    H280241   4.147   4.799  13.417  0.3609  0.8972  0.0271
19584TIP3   OH280242   0.182   6.783  12.513 -0.4886 -0.1050  0.7354
19584TIP3    H180243   0.153   6.826  12.594  0.2945 -0.2731  1.1195
19584TIP3    H280244   0.114   6.717  12.496 -0.2174 -0.6930  1.7838
19585TIP3   OH280245   4.123   4.269   0.660 -0.3195 -0.0346  0.6928
19585TIP3    H180246   4.155   4.188   0.699  0.9917 -0.4924 -1.2485
19585TIP3    H280247   4.056   4.300   0.722 -0.2544 -2.1242  1.8885
19586TIP3   OH280248   1.947   1.199   2.999  0.4508  0.3745 -0.2323
19586TIP3    H180249   1.949   1.264   3.069 -1.4782 -1.4753  1.7091
19586TIP3    H280250   1.885   1.235   2.936 -2.7530 -0.5646  2.1103
19587TIP3   OH280251   3.849   2.916  17.175 -0.0938  0.1120  0.9976
19587TIP3    H180252   3.754   2.909  17.160  0.0418  0.1978  0.0238
19587TIP3    H280253   3.878   2.826  17.187 -0.2970  0.0871  1.3243
19588TIP3   OH280254   3.072   5.610  17.169  0.1759  0.2721  0.1681
19588TIP3    H180255   3.068   5.547  17.097 -1.0851 -0.8451  1.1819
19588TIP3    H280256   3.131   5.569  17.233  0.3817  0.7347  0.2804
19589TIP3   OH280257   4.502   3.980  13.776 -0.1536  0.4598 -0.0836
19589TIP3    H180258   4.556   4.059  13.772 -1.0516  1.1859  1.3834
19589TIP3    H280259   4.415   4.011  13.798 -0.7528 -0.8731 -0.4445
19590TIP3   OH280260   2.615   3.459  14.185  0.1222  0.7365 -0.0628
19590TIP3    H180261   2.591   3.468  14.093  1.8181 -0.8523 -0.7150
19590TIP3    H280262   2.548   3.400  14.221 -0.4290  1.2007 -0.3058
19591TIP3   OH280263   5.328   4.385   0.770  0.7318  0.3486  0.5994
19591TIP3    H180264   5.313   4.448   0.700 -0.0250 -0.4875 -0.0023
19591TIP3    H280265   5.241   4.361   0.801  1.0447  0.5108  1.6648
19592TIP3   OH280266   5.001   0.316  14.714 -0.4347 -0.2981  0.3270
19592TIP3    H180267   4.954   0.273  14.786  0.2453 -0.7849  0.4878
19592TIP3    H280268   4.933   0.335  14.649 -0.9170 -0.6346  0.7235
19593TIP3   OH280269   0.923   0.472   3.776 -0.1011 -0.3207  0.3378
19593TIP3    H180270   1.008   0.452   3.816  1.2860 -1.7386 -2.9930
19593TIP3    H280271   0.940   0.547   3.720 -1.3292 -0.0015  0.3734
19594TIP3   OH280272   5.810   4.561  13.927  0.0710  0.0339 -0.2600
19594TIP3    H180273   5.715   4.564  13.943  0.2928  0.6824  1.0758
19594TIP3    H280274   5.849   4.559  14.014  1.2954 -0.6083 -0.7966
19595TIP3   OH280275   0.758   0.504  11.478  0.0079 -0.1215 -0.5229
19595TIP3    H180276   0.747   0.570  11.546  1.0708  0.2499 -0.6982
19595TIP3    H280277   0.844   0.521  11.441 -0.5607 -0.2968 -1.9883
19596TIP3   OH280278   3.144   6.734  11.235  0.4095 -0.9595  0.0688
19596TIP3    H180279   3.227   6.762  11.199 -0.3312  0.1435 -0.8466
19596TIP3    H280280   3.113   6.808  11.287 -0.0188 -1.3569  0.3975
19597TIP3   OH280281   4.639   1.538   3.974  0.2690  0.2894  0.0416
19597TIP3    H180282   4.699   1.588   3.919 -0.3563 -0.0901 -1.0120
19597TIP3    H280283   4.674   1.449   3.974 -0.1475  0.1223 -0.3705
19598TIP3   OH280284   5.839   0.931  12.788  0.1846 -0.3752 -0.2552
19598TIP3    H180285   5.807   0.961  12.873 -0.5923 -0.7568 -0.4009
19598TIP3    H280286   5.855   1.011  12.738  1.3371 -0.1235  0.4824
19599TIP3   OH280287   2.841   4.828   1.033 -0.0511 -0.1330 -0.0313
19599TIP3    H180288   2.909   4.857   1.093  1.4409 -1.6963 -0.8969
19599TIP3    H280289   2.877   4.846   0.946 -0.3685 -1.7215 -0.5207
19600TIP3   OH280290   1.963   4.498  11.643  0.3046  0.2991  0.8079
19600TIP3    H180291   1.986   4.408  11.662  0.0935  0.2379  0.7748
19600TIP3    H280292   2.032   4.550  11.684 -0.3547  0.1952  2.0857
19601TIP3   OH280293   6.798   6.591   3.553  0.3515 -0.4040  0.1166
19601TIP3    H180294   6.839   6.660   3.501  0.3591  0.8132  1.6881
19601TIP3    H280295   6.866   6.524   3.562  0.9043  0.1249 -0.0410
19602TIP3   OH280296   6.613   3.337   1.879  0.1499  0.1716  0.2359
19602TIP3    H180297   6.522   3.336   1.849 -0.1134 -0.2256  1.0097
19602TIP3    H280298   6.656   3.401   1.823 -0.4908 -0.0037 -0.4779
19603TIP3   OH280299   3.475   2.174   5.247 -0.3330 -0.3697 -0.1055
19603TIP3    H180300   3.527   2.121   5.186  0.8972  2.5672 -1.8128
19603TIP3    H280301   3.415   2.222   5.190 -1.3430  0.1333  1.3530
19604TIP3   OH280302   1.673   0.906  16.702 -0.6194  0.2934  0.5075
19604TIP3    H180303   1.674   0.979  16.764  3.5579  0.5777  0.3988
19604TIP3    H280304   1.735   0.932  16.634 -0.9339 -2.3156 -0.8899
19605TIP3   OH280305   3.129   5.984  11.448  0.3746  0.0376  0.0971
19605TIP3    H180306   3.148   6.047  11.517  0.1560 -0.2927  0.4616
19605TIP3    H280307   3.065   6.028  11.392  0.1750  0.1092  0.3853
19606TIP3   OH280308   6.199   5.405  15.200 -0.3193 -0.0740  0.3374
19606TIP3    H180309   6.233   5.333  15.253 -0.2944 -0.1349  0.2392
19606TIP3    H280310   6.167   5.469  15.263 -0.5358 -0.2648  0.4202
19607TIP3   OH280311   6.108   1.380  17.278 -0.6055 -0.1441 -0.3705
19607TIP3    H180312   6.194   1.412  17.250 -0.3539  0.3162  0.8704
19607TIP3    H280313   6.110   1.287  17.259  0.5380 -0.3138  0.4689
19608TIP3   OH280314   1.060   2.633  11.862  0.4261  0.6039  0.1341
19608TIP3    H180315   1.020   2.719  11.874 -0.6591  0.2578 -0.8609
19608TIP3    H280316   1.017   2.577  11.926 -0.1088  0.4136 -0.3899
19609TIP3   OH280317   1.268   3.120   0.023 -0.3562 -0.3229 -0.0434
19609TIP3    H180318   1.307   3.068  -0.047  2.0395  0.1168  0.8643
19609TIP3    H280319   1.269   3.062   0.099 -2.0783 -0.4929 -0.1276
19610TIP3   OH280320   5.300   0.221   2.783 -0.0195 -0.5567  0.3888
19610TIP3    H180321   5.326   0.131   2.804 -3.5738 -1.9393 -0.4123
19610TIP3    H280322   5.249   0.249   2.859  1.3786  1.0198  0.7991
19611TIP3   OH280323   1.936   6.257  15.771 -0.0213  0.8054  0.2266
19611TIP3    H180324   2.019   6.306  15.765 -0.5701  1.6389 -0.8935
19611TIP3    H280325   1.908   6.270  15.861  1.9961 -1.0771  1.2164
19612TIP3   OH280326   0.103   0.558   4.941  0.7751 -0.2371 -0.1407
19612TIP3    H180327   0.079   0.550   5.033  1.8700  1.9559  0.3928
19612TIP3    H280328   0.199   0.551   4.940  0.7846 -0.1764 -1.1085
19613TIP3   OH280329   1.808   3.685  12.991 -0.4133  0.1700  0.7188
19613TIP3    H180330   1.796   3.730  13.075 -0.9504 -0.0914  0.7864
19613TIP3    H280331   1.778   3.596  13.007 -0.5446  0.1282  0.2411
19614TIP3   OH280332   1.995   2.035  10.416 -0.1316 -0.1529  0.1482
19614TIP3    H180333   2.006   2.121  10.376  1.0266 -0.1749  0.4020
19614TIP3    H280334   1.987   2.053  10.509 -0.2240 -0.3058  0.1697
19615TIP3   OH280335   1.826   6.267   0.882 -0.0133 -0.2373  0.2908
19615TIP3    H180336   1.758   6.270   0.814  2.8915  3.1637 -2.8969
19615TIP3    H280337   1.879   6.190   0.860  0.3674  0.3133 -0.7515
19616TIP3   OH280338   5.132   5.208   6.210  0.6828 -0.1644  0.3287
19616TIP3    H180339   5.078   5.142   6.254  0.0467 -0.6228 -1.0871
19616TIP3    H280340   5.215   5.164   6.192  0.0981 -0.7639 -1.0249
19617TIP3   OH280341   5.799   1.633   5.520 -0.1767 -0.3661 -0.0357
19617TIP3    H180342   5.765   1.593   5.600 -1.2699  2.3393  0.9409
19617TIP3    H280343   5.894   1.634   5.532 -0.2420 -1.1130  0.6318
19618TIP3   OH280344   2.074   5.041  17.128  0.3601 -0.4978  0.3751
19618TIP3    H180345   2.117   4.956  17.136  2.1668  0.0685 -2.0300
19618TIP3    H280346   2.024   5.036  17.046  0.4663  0.7071  0.2116
19619TIP3   OH280347   0.894   2.890   5.554 -0.1916  0.4952  0.0797
19619TIP3    H180348   0.943   2.971   5.571 -0.0220  0.0127  2.2351
19619TIP3    H280349   0.883   2.851   5.641 -1.6808 -0.9936 -0.7304
19620TIP3   OH280350   5.501   2.518   0.619  0.7808 -0.3937  0.5579
19620TIP3    H180351   5.457   2.443   0.659  0.0332 -1.1242 -1.4772
19620TIP3    H280352   5.431   2.584   0.609  0.6759 -0.6628 -0.5552
19621TIP3   OH280353   6.549   0.109   4.029  0.2380 -0.1780  0.0962
19621TIP3    H180354   6.608   0.033   4.038  1.6322  1.0547  2.0398
19621TIP3    H280355   6.589   0.177   4.083 -2.2403  1.2180  0.2878
19622TIP3   OH280356   6.141   5.259  12.836  0.1454  0.0729  0.2049
19622TIP3    H180357   6.193   5.331  12.800 -1.4515  1.2591  0.1628
19622TIP3    H280358   6.158   5.264  12.930  0.8384 -0.1712  0.1017
19623TIP3   OH280359   4.520   5.398  14.821  0.1258  0.6688  0.8671
19623TIP3    H180360   4.543   5.305  14.822  0.3042  0.6426 -1.0181
19623TIP3    H280361   4.592   5.440  14.773  1.0073  2.1270  3.2579
19624TIP3   OH280362   4.777   3.829  16.195  0.5252 -0.1834  0.7143
19624TIP3    H180363   4.788   3.772  16.271 -1.1572 -1.9788 -0.2893
19624TIP3    H280364   4.685   3.857  16.198  0.8420  1.0347  0.1850
19625TIP3   OH280365   4.016   5.146   1.016 -0.1615 -0.1281 -0.2948
19625TIP3    H180366   3.984   5.105   0.936  2.0321  0.9928 -1.8262
19625TIP3    H280367   4.043   5.234   0.989 -1.1538  1.0271  2.1049
19626TIP3   OH280368   4.313   3.575   0.106 -0.8610  0.0511  0.0748
19626TIP3    H180369   4.298   3.565   0.012  0.0718 -0.4608 -0.0279
19626TIP3    H280370   4.228   3.555   0.146 -1.1558 -0.1284 -0.6346
19627TIP3   OH280371   2.071   2.555   3.788 -0.1019  0.4861  0.0235
19627TIP3    H180372   2.039   2.465   3.781  0.9617  0.0440  0.5990
19627TIP3    H280373   2.064   2.590   3.699  0.0672 -0.3797 -0.3421
19628TIP3   OH280374   6.696   3.365   5.194  0.6245 -0.1404  0.4920
19628TIP3    H180375   6.667   3.423   5.124 -1.0950  0.2989  1.5310
19628TIP3    H280376   6.719   3.283   5.148 -0.9097 -0.0276 -0.5621
19629TIP3   OH280377   6.654   0.403   4.492  0.7146  0.2211 -0.3564
19629TIP3    H180378   6.582   0.400   4.429  1.6389 -1.0807 -1.4095
19629TIP3    H280379   6.699   0.485   4.473 -0.7125  1.2794  0.6235
19630TIP3   OH280380   1.533   6.672  10.448  0.0005 -0.1756  0.2578
19630TIP3    H180381   1.437   6.668  10.441  0.0304  0.8653 -1.4888
19630TIP3    H280382   1.562   6.583  10.429 -0.6389 -0.8873  2.3572
19631TIP3   OH280383   1.885   5.226   2.887 -0.5202 -0.3107  0.1239
19631TIP3    H180384   1.931   5.304   2.917 -0.7575 -0.3010  0.4742
19631TIP3    H280385   1.884   5.233   2.792  0.0076 -0.2021  0.1230
19632TIP3   OH280386   1.322   2.050  11.462  0.8056 -0.3470  0.2122
19632TIP3    H180387   1.351   2.136  11.492 -1.0073  0.4394 -0.1261
19632TIP3    H280388   1.390   1.990  11.491  1.8547  1.1309  0.9346
19633TIP3   OH280389   3.647   2.485  12.502  0.3021 -0.6344  0.1949
19633TIP3    H180390   3.707   2.553  12.470  0.0223 -0.0053  0.9571
19633TIP3    H280391   3.678   2.466  12.591 -2.0842  1.5810  1.6333
19634TIP3   OH280392   1.821   5.494  15.072 -0.3498  0.3274 -0.5067
19634TIP3    H180393   1.797   5.408  15.037  3.5033 -1.3373  0.3578
19634TIP3    H280394   1.822   5.481  15.167  2.5341  0.4742 -0.4300
19635TIP3   OH280395   1.962   4.309  14.363 -0.2457  0.3111 -0.1220
19635TIP3    H180396   1.928   4.368  14.296 -0.6505  2.1839  1.6747
19635TIP3    H280397   2.051   4.289  14.333 -0.6848  0.4268 -1.6082
19636TIP3   OH280398   1.087   3.795  11.678  0.1258  0.1454 -0.0805
19636TIP3    H180399   1.033   3.856  11.628  0.9685  0.7392 -0.2879
19636TIP3    H280400   1.053   3.709  11.654 -1.7307  0.5379  0.9826
19637TIP3   OH280401   2.196   4.991  14.345 -0.0012  0.3552  0.8151
19637TIP3    H180402   2.189   5.031  14.258  0.6482 -2.0961 -0.4457
19637TIP3    H280403   2.272   4.933  14.339 -0.1326 -0.1239  2.9375
19638TIP3   OH280404   5.173   6.799  13.613  0.1847 -0.5389 -0.0210
19638TIP3    H180405   5.252   6.746  13.605  0.9277  0.7701 -1.9837
19638TIP3    H280406   5.179   6.840  13.699  2.4634  0.7360 -0.7205
19639TIP3   OH280407   0.871   6.172  13.322 -0.2875  0.0235 -0.0042
19639TIP3    H180408   0.911   6.255  13.350 -0.9089 -0.1965  1.6940
19639TIP3    H280409   0.784   6.173  13.363  0.1440 -1.9799  1.0963
19640TIP3   OH280410   2.535   4.658   3.906 -0.1179 -0.5710  0.4437
19640TIP3    H180411   2.485   4.733   3.873  1.7512  0.2280 -0.7116
19640TIP3    H280412   2.551   4.679   3.998  2.5717  1.8412 -0.4103
19641TIP3   OH280413   1.600   3.901   3.300 -0.0670 -0.1779  0.3770
19641TIP3    H180414   1.660   3.923   3.228 -0.2789 -1.7059 -0.3155
19641TIP3    H280415   1.623   3.811   3.323 -1.9511 -0.7357  0.2223
19642TIP3   OH280416   5.603   4.455   3.120 -0.0707  0.1864  0.2246
19642TIP3    H180417   5.568   4.540   3.145 -2.4210 -0.9101  1.0142
19642TIP3    H280418   5.542   4.423   3.053 -1.4784 -2.2909  2.4488
19643TIP3   OH280419   6.381   5.816   5.472 -0.3741  0.2913 -0.0180
19643TIP3    H180420   6.347   5.855   5.392 -0.7935  1.6456  0.7930
19643TIP3    H280421   6.387   5.889   5.534 -0.0711 -0.7263  1.1919
19644TIP3   OH280422   2.595   0.424   1.265 -0.3194 -0.2190 -0.4285
19644TIP3    H180423   2.516   0.373   1.250  0.2117 -1.3814  0.5848
19644TIP3    H280424   2.608   0.423   1.360 -0.3060  1.8634 -0.3563
19645TIP3   OH280425   6.261   0.495  11.997 -0.6853  0.0281 -0.2410
19645TIP3    H180426   6.210   0.416  12.014 -0.1941  0.1511  2.1363
19645TIP3    H280427   6.336   0.464  11.946 -0.9325 -0.9010 -0.0672
19646TIP3   OH280428   6.220   3.510  15.071 -0.1545 -0.2292  0.5584
19646TIP3    H180429   6.235   3.601  15.096 -0.3217  0.5522 -1.9342
19646TIP3    H280430   6.299   3.463  15.101  0.3674  0.9021  1.0073
19647TIP3   OH280431   4.112   4.419   5.817 -0.0065  0.3900  0.2676
19647TIP3    H180432   4.083   4.328   5.812  0.7524  0.0464  1.6434
19647TIP3    H280433   4.032   4.471   5.807 -0.4544 -0.4102 -0.4669
19648TIP3   OH280434   3.765   3.015   5.600 -0.2623  0.5376  0.0493
19648TIP3    H180435   3.698   2.956   5.565 -0.5584  1.6379 -1.3328
19648TIP3    H280436   3.834   3.015   5.534  1.8407 -1.6374  2.0617
19649TIP3   OH280437   5.378   4.272  12.253  0.2035  0.3116 -0.2249
19649TIP3    H180438   5.296   4.299  12.211 -1.2148  0.9839  2.7137
19649TIP3    H280439   5.361   4.183  12.282  1.2992 -0.2768 -1.3011
19650TIP3   OH280440   3.113   2.185   3.739 -0.2787  0.2789  0.7052
19650TIP3    H180441   3.102   2.129   3.816 -0.4090 -0.0836  0.4296
19650TIP3    H280442   3.160   2.129   3.676 -0.5006  0.4460  0.3910
19651TIP3   OH280443   5.953   6.745  15.360  0.0560  0.0596 -0.7211
19651TIP3    H180444   5.957   6.670  15.302  1.0402 -0.2506 -0.2704
19651TIP3    H280445   5.927   6.709  15.445  0.7496  0.1909 -0.4480
19652TIP3   OH280446   4.808   1.096   0.906  0.6513 -1.0186 -0.2437
19652TIP3    H180447   4.717   1.111   0.880  0.8614 -1.8456 -1.5749
19652TIP3    H280448   4.805   1.018   0.962  0.5459 -1.1176 -0.3860
19653TIP3   OH280449   3.479   1.781   6.057  0.4935  0.0379  0.5262
19653TIP3    H180450   3.440   1.698   6.084 -0.6932  0.7610  1.0722
19653TIP3    H280451   3.550   1.795   6.119  0.8442 -0.6641  0.2972
19654TIP3   OH280452   2.120   5.347  11.102 -0.3768  0.3208  0.7739
19654TIP3    H180453   2.047   5.341  11.040 -0.7742 -0.3197  1.2944
19654TIP3    H280454   2.188   5.292  11.063 -0.1743  0.9124  0.2915
19655TIP3   OH280455   5.092   5.400  14.276 -0.4470 -0.0851  0.0155
19655TIP3    H180456   5.167   5.453  14.305  0.6559 -0.8656 -1.2538
19655TIP3    H280457   5.037   5.393  14.353  0.4582  1.0726  0.8209
19656TIP3   OH280458   6.080   5.801  14.039 -0.5001  0.7939  0.2105
19656TIP3    H180459   6.133   5.794  13.960 -0.1517  2.3436  0.2727
19656TIP3    H280460   5.989   5.804  14.007 -0.3710  1.2258 -0.1258
19657TIP3   OH280461   0.645   2.594  13.269  0.2156 -0.8102 -0.1750
19657TIP3    H180462   0.582   2.618  13.200  0.1984  2.0879  0.7369
19657TIP3    H280463   0.727   2.635  13.242  1.0090 -2.1566  0.0983
19658TIP3   OH280464   4.810   0.038   5.019 -0.3747  0.8565 -0.6127
19658TIP3    H180465   4.769  -0.027   4.963  2.1237 -2.4421  1.0294
19658TIP3    H280466   4.739   0.073   5.072 -1.9761  0.3807 -2.3461
19659TIP3   OH280467   2.655   3.029   2.700  0.1695 -0.2019 -0.5400
19659TIP3    H180468   2.686   3.019   2.791 -0.8968 -0.7619 -0.2242
19659TIP3    H280469   2.636   2.940   2.671 -1.0621  0.1074 -0.7412
19660TIP3   OH280470   3.312   0.806  12.510  0.0716  0.1241 -0.4519
19660TIP3    H180471   3.229   0.840  12.545  1.1486  1.3998  0.9850
19660TIP3    H280472   3.289   0.721  12.472 -1.3703 -1.1035  2.7669
19661TIP3   OH280473   5.032   1.593  13.916 -0.0141  0.3254  0.1192
19661TIP3    H180474   5.112   1.587  13.863 -1.3145 -2.0134 -1.7853
19661TIP3    H280475   5.054   1.548  13.998  0.6196 -0.4202 -0.4394
19662TIP3   OH280476   4.730   4.408   3.895 -0.4512 -0.2099 -0.4330
19662TIP3    H180477   4.681   4.427   3.975  1.4651 -0.8070  0.9790
19662TIP3    H280478   4.713   4.315   3.877  0.8935 -0.7190  0.6859
19663TIP3   OH280479   5.163   5.024  15.812  0.1677  0.5479 -0.3790
19663TIP3    H180480   5.144   5.026  15.719 -0.7184  0.7283 -0.2041
19663TIP3    H280481   5.246   4.977  15.819  1.0417  1.9037 -1.3777
19664TIP3   OH280482   1.945   4.213   6.400  0.0592  0.6005 -0.0865
19664TIP3    H180483   1.878   4.262   6.355  0.7332  1.2411 -0.4068
19664TIP3    H280484   2.019   4.273   6.407  0.5202 -0.0101  0.4639
19665TIP3   OH280485   3.377   4.696   0.359 -0.5226  0.1201 -0.6293
19665TIP3    H180486   3.406   4.648   0.282  0.5937 -1.3881  0.6707
19665TIP3    H280487   3.331   4.631   0.412 -0.8022  1.0047  0.2460
19666TIP3   OH280488   1.143   4.130   0.199  0.2455  0.3396 -0.4644
19666TIP3    H180489   1.130   4.223   0.219  3.1876  1.1235 -1.6924
19666TIP3    H280490   1.089   4.115   0.121 -1.3049  0.5951  0.5071
19667TIP3   OH280491   0.965   0.849  14.657 -1.1604  0.3075 -0.0358
19667TIP3    H180492   0.998   0.939  14.650  1.2244 -0.5766 -1.3474
19667TIP3    H280493   0.984   0.824  14.747  1.0593  0.1632 -0.4848
19668TIP3   OH280494   3.107   3.039   0.819  1.2148 -0.2863 -0.4515
19668TIP3    H180495   3.033   3.006   0.770  0.9158 -1.9514  0.9957
19668TIP3    H280496   3.069   3.091   0.889  1.3695 -1.1793  0.3217
19669TIP3   OH280497   6.133   5.518   0.480  0.1679 -0.1394 -0.0593
19669TIP3    H180498   6.063   5.562   0.432  0.0847 -1.5866 -1.3803
19669TIP3    H280499   6.199   5.585   0.493 -0.6572  0.7874 -0.4860
19670TIP3   OH280500   6.224   6.288  13.535  0.0888 -0.0865  0.2428
19670TIP3    H180501   6.287   6.232  13.580  0.5591  0.6233  0.4927
19670TIP3    H280502   6.274   6.367  13.513 -0.5139  0.1709 -0.2424
19671TIP3   OH280503   0.463   0.302  15.749 -0.2241 -0.1128  0.4867
19671TIP3    H180504   0.429   0.311  15.838 -1.9861 -2.4721  0.1304
19671TIP3    H280505   0.438   0.384  15.706 -1.1132  0.2441  1.6151
19672TIP3   OH280506   4.410   1.418   4.880  0.3996 -0.1662  0.3637
19672TIP3    H180507   4.483   1.392   4.824  0.8057  1.4281  0.1141
19672TIP3    H280508   4.440   1.400   4.969  0.8916 -0.0197  0.2290
19673TIP3   OH280509   6.535   2.662  15.455  0.4728 -0.1646  0.6837
19673TIP3    H180510   6.524   2.736  15.395 -1.3178 -1.2542 -0.4470
19673TIP3    H280511   6.608   2.612  15.419  0.1986 -0.1448  0.0781
19674TIP3   OH280512   6.359   2.106   4.148  0.6324  0.3209  0.9596
19674TIP3    H180513   6.288   2.110   4.084 -0.0891  0.1858  1.7186
19674TIP3    H280514   6.405   2.190   4.140  0.4132  0.3891  0.4212
19675TIP3   OH280515   1.109   4.052   2.196 -0.4311  0.6377 -0.8204
19675TIP3    H180516   1.182   4.063   2.256 -0.6501  0.0187 -0.4306
19675TIP3    H280517   1.032   4.049   2.252 -0.4927 -1.7097 -0.9441
19676TIP3   OH280518   4.184   5.164  16.520 -0.0964  0.1093  0.3586
19676TIP3    H180519   4.262   5.209  16.553  0.1279 -0.8271  1.1701
19676TIP3    H280520   4.213   5.074  16.505 -0.8964 -0.1239  0.1502
19677TIP3   OH280521   6.608   0.637   6.003  0.3076 -0.5505 -0.1808
19677TIP3    H180522   6.558   0.583   6.063  1.7940 -1.8590 -0.0618
19677TIP3    H280523   6.657   0.697   6.059  1.7631 -1.8306 -0.0249
19678TIP3   OH280524   3.648   5.742   2.695  0.4148  0.5034  0.3841
19678TIP3    H180525   3.599   5.824   2.685 -3.1568 -1.4686  0.0486
19678TIP3    H280526   3.654   5.729   2.789 -3.0501 -0.8599  0.5510
19679TIP3   OH280527   0.365   2.678  14.630 -0.8839  0.2174  0.8995
19679TIP3    H180528   0.333   2.724  14.552 -2.2866 -0.6383  0.9322
19679TIP3    H280529   0.403   2.746  14.684  1.4337  0.6640 -1.1153
19680TIP3   OH280530   4.364   5.078  12.786 -0.1979  1.1405 -0.2895
19680TIP3    H180531   4.385   5.169  12.806  0.4984  1.0884 -0.7505
19680TIP3    H280532   4.439   5.047  12.735 -0.3670  0.2731 -0.0310
19681TIP3   OH280533   4.592   6.131  10.586 -0.0211 -0.0918  0.5357
19681TIP3    H180534   4.617   6.223  10.598  0.5876 -0.2050  0.1750
19681TIP3    H280535   4.586   6.096  10.675 -1.9210  0.7198  0.7615
19682TIP3   OH280536   3.140   5.337   4.025  0.0415  0.1516  0.3023
19682TIP3    H180537   3.071   5.394   4.056 -0.2504 -0.7056  1.2787
19682TIP3    H280538   3.201   5.396   3.980 -0.2125  1.2375  1.3225
19683TIP3   OH280539   6.668   2.368   3.157 -0.0971  0.6457 -0.1672
19683TIP3    H180540   6.695   2.339   3.244  0.4819  1.3916 -0.0899
19683TIP3    H280541   6.574   2.349   3.153  0.1001 -0.4390  0.1906
19684TIP3   OH280542   6.228   5.704  15.154  0.3465  0.2279  0.3903
19684TIP3    H180543   6.237   5.608  15.148 -1.3140  0.1346 -1.6347
19684TIP3    H280544   6.318   5.737  15.145  0.6723 -1.0834 -2.1043
19685TIP3   OH280545   1.550   2.027   1.538 -0.3862 -0.6713 -0.2814
19685TIP3    H180546   1.640   2.024   1.506  0.2258  0.0625  1.2633
19685TIP3    H280547   1.511   1.944   1.509  1.0087 -1.3175 -0.3701
19686TIP3   OH280548   1.101   2.714  14.539  0.2738  0.1889 -0.2842
19686TIP3    H180549   1.107   2.631  14.585 -2.6317  0.4994  0.8663
19686TIP3    H280550   1.117   2.692  14.447  0.6734 -1.4204  0.1484
19687TIP3   OH280551   5.825   4.017  14.094 -0.1599 -0.4214  0.7004
19687TIP3    H180552   5.789   4.031  14.181  0.0490 -0.6537  0.8246
19687TIP3    H280553   5.845   4.105  14.062 -2.8101 -0.0774 -0.2313
19688TIP3   OH280554   4.860   3.608  10.645 -0.3579  0.0211  0.2875
19688TIP3    H180555   4.918   3.589  10.718  0.4986  1.1667 -0.0583
19688TIP3    H280556   4.896   3.559  10.571  0.8590  1.5265 -0.1881
19689TIP3   OH280557   6.069   5.864  17.008  0.8803 -0.2773  0.1331
19689TIP3    H180558   5.977   5.868  17.034  1.1023 -0.5542  0.9918
19689TIP3    H280559   6.102   5.952  17.022  0.6592 -0.0768 -0.5475
19690TIP3   OH280560   5.099   3.705  14.295 -0.6891 -0.2220  0.0938
19690TIP3    H180561   5.102   3.616  14.328 -0.0698 -0.5608 -0.8469
19690TIP3    H280562   5.050   3.698  14.213 -0.9441  0.3600  0.1930
19691TIP3   OH280563   4.806   4.183   1.401  0.0021 -0.2321  0.2617
19691TIP3    H180564   4.836   4.124   1.470 -0.2134  0.2708  0.7959
19691TIP3    H280565   4.719   4.211   1.429  0.9268  2.0107  1.1276
19692TIP3   OH280566   6.358   2.909   2.163 -0.2837  0.7198  0.3930
19692TIP3    H180567   6.350   2.819   2.197  2.0688  0.6885  1.0014
19692TIP3    H280568   6.268   2.935   2.144 -1.1314 -1.3717  1.2466
19693TIP3   OH280569   0.048   2.006   4.444  0.2836 -0.1276 -0.1650
19693TIP3    H180570   0.082   2.093   4.423  0.6864 -0.0778  0.6421
19693TIP3    H280571  -0.042   2.021   4.471  0.6123  0.1631  0.8169
19694TIP3   OH280572   3.646   2.514   1.515  0.3224  0.2608 -0.2411
19694TIP3    H180573   3.740   2.500   1.526 -0.0584 -1.7356  1.1932
19694TIP3    H280574   3.616   2.546   1.600 -0.3338  0.6590 -0.6133
19695TIP3   OH280575   2.518   3.277  16.285 -0.1685  0.9044 -0.1638
19695TIP3    H180576   2.609   3.260  16.311 -0.3738 -3.0002 -1.2845
19695TIP3    H280577   2.479   3.322  16.360  1.4628 -2.0027  2.6605
19696TIP3   OH280578   6.293   2.044  11.824  0.4491 -0.4025 -0.5481
19696TIP3    H180579   6.222   2.066  11.764 -0.7849  0.6884  1.2183
19696TIP3    H280580   6.299   1.949  11.821 -0.6061 -0.4513 -1.2649
19697TIP3   OH280581   4.273   5.118   2.647  0.3215  0.2062  0.0040
19697TIP3    H180582   4.193   5.168   2.631  0.0064 -0.0706  0.6993
19697TIP3    H280583   4.270   5.096   2.740  0.5575 -0.9353 -0.2428
19698TIP3   OH280584   5.619   2.074   1.967  0.3734  0.3404  0.2405
19698TIP3    H180585   5.645   2.084   2.059 -1.1690 -0.7867  0.8485
19698TIP3    H280586   5.683   2.012   1.931  1.3342  1.2266  0.3562
19699TIP3   OH280587   5.638   6.251  16.669  0.1126  0.4228 -0.5021
19699TIP3    H180588   5.576   6.313  16.707 -0.2855 -0.0056 -0.4478
19699TIP3    H280589   5.705   6.306  16.629  0.0921  0.8872  0.0851
19700TIP3   OH280590   2.391   0.463  11.419 -0.0916 -0.2284  0.1034
19700TIP3    H180591   2.467   0.517  11.397  0.7766 -1.3158  0.3361
19700TIP3    H280592   2.422   0.406  11.490 -1.6791  0.5537  1.5101
19701TIP3   OH280593   2.410   3.367  14.837  0.0448  0.2984 -0.0351
19701TIP3    H180594   2.484   3.426  14.822  0.4270 -0.0198  0.5530
19701TIP3    H280595   2.337   3.409  14.793  0.6646  0.4035 -1.0005
19702TIP3   OH280596   4.698   2.528   0.277  0.4402  0.2970 -0.6672
19702TIP3    H180597   4.753   2.603   0.301 -0.8496  0.8760  0.6902
19702TIP3    H280598   4.715   2.463   0.345 -0.7737  0.6258 -0.0143
19703TIP3   OH280599   4.582   1.776  15.191 -0.0254 -0.1274 -0.0579
19703TIP3    H180600   4.537   1.692  15.176  1.5097 -1.1224  0.6375
19703TIP3    H280601   4.529   1.820  15.257 -0.2507 -1.0692  0.4132
19704TIP3   OH280602   1.439   4.197  12.701  0.4960 -0.2367  0.5794
19704TIP3    H180603   1.420   4.112  12.662 -1.2749  0.8017 -1.0313
19704TIP3    H280604   1.533   4.209  12.689  0.6381 -1.6222  0.1230
19705TIP3   OH280605   3.260   3.193   6.620  0.1361  0.6229 -0.3064
19705TIP3    H180606   3.347   3.230   6.631 -0.0421  1.0927 -0.4457
19705TIP3    H280607   3.229   3.228   6.536 -0.6861  1.4826  0.3402
19706TIP3   OH280608   2.729   1.349   5.768 -0.3640 -0.0121  0.6171
19706TIP3    H180609   2.743   1.383   5.856  1.1642  0.2224  0.3147
19706TIP3    H280610   2.771   1.263   5.768 -0.5919 -0.1265  0.2038
19707TIP3   OH280611   2.195   5.053  12.875  0.7538  0.2163 -0.4323
19707TIP3    H180612   2.262   4.987  12.888  1.1236  0.4501 -1.0951
19707TIP3    H280613   2.156   5.066  12.961  2.5960  1.2005  0.2860
19708TIP3   OH280614   6.590   2.970  12.931 -0.3007  0.0488  0.1262
19708TIP3    H180615   6.511   3.023  12.946  1.1260  1.7873  2.0439
19708TIP3    H280616   6.557   2.889  12.893 -2.8648  1.2531 -0.4820
19709TIP3   OH280617   5.326   1.128   5.314  0.7367 -0.1087 -0.5439
19709TIP3    H180618   5.420   1.140   5.329  0.3876 -0.6039  2.5285
19709TIP3    H280619   5.284   1.182   5.380 -1.0941 -2.1409  0.0511
19710TIP3   OH280620   5.178   4.450  13.525  0.1307 -0.0535 -0.6009
19710TIP3    H180621   5.183   4.546  13.533  0.6957 -0.1856  1.0213
19710TIP3    H280622   5.148   4.421  13.611 -0.2328 -1.3341 -1.1429
19711TIP3   OH280623   6.696   6.628  12.785  0.2960 -0.5206 -0.2361
19711TIP3    H180624   6.770   6.678  12.818 -0.4252  0.3025  0.1872
19711TIP3    H280625   6.719   6.608  12.694  1.3266 -0.8903  0.0918
19712TIP3   OH280626   6.523   1.741  14.989  0.5521 -0.5374 -0.1533
19712TIP3    H180627   6.452   1.803  14.975  0.3425 -0.9799 -1.1470
19712TIP3    H280628   6.487   1.678  15.053  0.1600 -0.5780 -0.4076
19713TIP3   OH280629   0.315   5.292  15.549 -0.0384 -0.4521  0.1283
19713TIP3    H180630   0.226   5.313  15.576  0.5567  1.7040  0.5299
19713TIP3    H280631   0.370   5.320  15.622  1.1756  0.7389 -1.1923
19714TIP3   OH280632   5.144   3.638  13.884  0.4177  0.0274  0.0875
19714TIP3    H180633   5.218   3.673  13.933 -0.8454  3.2882 -0.1058
19714TIP3    H280634   5.067   3.667  13.932 -0.8692 -3.0216  0.1228
19715TIP3   OH280635   3.353   1.611  14.737  0.4320  0.5126  0.2779
19715TIP3    H180636   3.317   1.573  14.657 -0.5705 -0.0403  0.9730
19715TIP3    H280637   3.307   1.695  14.747 -0.9707 -0.3324  1.3310
19716TIP3   OH280638   5.980   6.305  11.722 -0.5012  0.2081  0.3763
19716TIP3    H180639   5.988   6.285  11.629  1.4367  0.7378  0.3900
19716TIP3    H280640   5.930   6.387  11.725 -0.9872 -0.0614 -0.1523
19717TIP3   OH280641   2.336   5.659  14.679  0.0162  0.3768  0.0328
19717TIP3    H180642   2.316   5.751  14.695  1.1928  0.7433 -0.4700
19717TIP3    H280643   2.293   5.639  14.595  0.7948  0.8417 -0.4915
19718TIP3   OH280644   3.087   4.937   1.742 -0.2515 -0.1050 -0.2666
19718TIP3    H180645   3.068   5.028   1.719 -2.6904  0.8138  4.1808
19718TIP3    H280646   3.165   4.942   1.798 -0.7531 -0.5820  0.5018
19719TIP3   OH280647   0.256   2.617   0.296 -0.6734 -0.2380  0.0070
19719TIP3    H180648   0.191   2.554   0.327  0.0087 -0.1676  1.6689
19719TIP3    H280649   0.339   2.570   0.300 -0.3926  0.1991 -0.4946
19720TIP3   OH280650   5.455   0.050   2.369  0.4919  0.4055 -0.1091
19720TIP3    H180651   5.430   0.021   2.457 -1.0320 -0.6990 -0.8629
19720TIP3    H280652   5.403   0.129   2.354 -1.6476 -1.0998 -1.1282
19721TIP3   OH280653   1.881   1.368  11.105 -0.1731 -0.1138 -0.0716
19721TIP3    H180654   1.972   1.355  11.080  0.0115  1.4816 -0.3063
19721TIP3    H280655   1.843   1.280  11.103  0.7259 -0.5279 -2.4129
19722TIP3   OH280656   5.196   5.719  15.534  0.4033 -0.0904  0.3903
19722TIP3    H180657   5.283   5.759  15.530  1.6440 -2.5955 -0.2209
19722TIP3    H280658   5.210   5.637  15.581 -1.6838 -0.4859  0.4052
19723TIP3   OH280659   6.289   1.102  16.529 -0.0832 -0.2554  0.0673
19723TIP3    H180660   6.229   1.162  16.484  0.1787  0.1169  0.2055
19723TIP3    H280661   6.239   1.021  16.540 -0.8396  0.3135  0.9227
19724TIP3   OH280662   2.201   4.028  15.797 -0.4403 -0.4269  0.2500
19724TIP3    H180663   2.133   3.983  15.849 -2.5171 -0.5725 -2.3776
19724TIP3    H280664   2.189   4.121  15.818 -0.7198 -0.5398  0.6151
19725TIP3   OH280665   6.101   0.526   3.214  0.3943  0.3403 -0.1203
19725TIP3    H180666   6.118   0.443   3.260  0.2844  0.7143  0.6045
19725TIP3    H280667   6.147   0.516   3.130  0.4835 -0.4069  0.0085
19726TIP3   OH280668   5.122   2.803   1.089 -0.1597  0.3295 -0.2575
19726TIP3    H180669   5.085   2.715   1.091  1.1873 -0.3140 -1.3890
19726TIP3    H280670   5.195   2.797   1.027 -0.3343  2.3618 -0.7500
19727TIP3   OH280671   1.648   5.649  13.526 -0.1427  0.2481 -0.2527
19727TIP3    H180672   1.604   5.616  13.604  0.0186 -0.1499 -0.3242
19727TIP3    H280673   1.581   5.699  13.479 -0.7943 -1.1088 -0.8289
19728TIP3   OH280674   2.743   4.275  14.125  0.5122 -0.6246  0.3363
19728TIP3    H180675   2.800   4.260  14.049 -1.4151 -2.9023 -0.7980
19728TIP3    H280676   2.770   4.209  14.188  0.1133 -0.7408  0.3857
19729TIP3   OH280677   5.670   3.039  15.616  0.1649 -0.4690 -0.5936
19729TIP3    H180678   5.765   3.042  15.615  0.1616  1.8030  0.4148
19729TIP3    H280679   5.647   2.981  15.543  2.3167 -2.8238  0.4252
19730TIP3   OH280680   4.379   2.013  15.597  0.1426  0.3756 -0.4732
19730TIP3    H180681   4.393   2.067  15.676 -1.2570  1.4422 -0.9088
19730TIP3    H280682   4.300   1.963  15.616  0.2417  0.0485 -0.9073
19731TIP3   OH280683   0.165   5.851  16.795 -0.0884 -0.1404 -0.2348
19731TIP3    H180684   0.098   5.807  16.847  0.8146 -1.3254 -0.0411
19731TIP3    H280685   0.245   5.800  16.809  0.6357  0.6588 -1.2369
19732TIP3   OH280686   1.489   3.549   4.003 -0.3596 -0.4295  0.4622
19732TIP3    H180687   1.414   3.504   4.042 -1.1183 -1.5538 -2.0596
19732TIP3    H280688   1.452   3.593   3.926  1.1493  1.1128  0.5769
19733TIP3   OH280689   6.120   4.430  14.973  0.1611 -0.1100 -0.0866
19733TIP3    H180690   6.150   4.348  14.932 -0.1231  0.2956 -1.1483
19733TIP3    H280691   6.035   4.446  14.933  0.5286  1.0742 -0.4265
19734TIP3   OH280692   0.573   6.066   5.740  0.3454  0.7402  0.2203
19734TIP3    H180693   0.565   6.150   5.694  0.1126  0.3347 -0.4964
19734TIP3    H280694   0.664   6.039   5.724  1.0511  1.7983  2.1417
19735TIP3   OH280695   6.420   3.158   3.060  0.0676  0.1319  0.4158
19735TIP3    H180696   6.361   3.137   2.987  2.4040 -1.4181 -1.1513
19735TIP3    H280697   6.390   3.102   3.132  0.0468 -1.2034 -0.5950
19736TIP3   OH280698   6.662   0.155   5.110  0.4461  0.5056  0.3500
19736TIP3    H180699   6.577   0.126   5.077  0.9497 -0.6092 -0.0526
19736TIP3    H280700   6.642   0.224   5.173 -0.8377 -0.6556  1.2655
19737TIP3   OH280701   5.797   3.442   5.764  0.3852 -0.0707  0.9541
19737TIP3    H180702   5.781   3.349   5.747  3.1614 -0.5061  0.1229
19737TIP3    H280703   5.738   3.465   5.835 -0.5930 -2.3944  0.9507
19738TIP3   OH280704   3.597   5.346   6.635 -0.8845 -0.1981  0.9965
19738TIP3    H180705   3.680   5.311   6.604 -0.5273 -0.7315  2.4962
19738TIP3    H280706   3.587   5.429   6.587 -0.0884 -0.7029 -0.0790
19739TIP3   OH280707   2.107   3.058   6.304  0.0651 -0.0461 -0.2846
19739TIP3    H180708   2.171   3.092   6.366 -0.5295  0.6179 -0.0244
19739TIP3    H280709   2.156   2.995   6.251  0.6751 -0.3082  0.5751
19740TIP3   OH280710   5.408   4.894   1.230 -0.1176  0.0027 -0.9216
19740TIP3    H180711   5.447   4.831   1.290  1.6108 -0.7026 -2.6611
19740TIP3    H280712   5.318   4.863   1.217  0.2687 -1.2725 -0.6535
19741TIP3   OH280713   4.981   6.117   1.059  0.0777 -0.2666 -0.1837
19741TIP3    H180714   5.010   6.205   1.036  3.1129 -0.8049  1.1600
19741TIP3    H280715   5.014   6.061   0.988  0.8581 -0.6821  0.4951
19742TIP3   OH280716   1.909   0.105  11.767  0.3772  0.0905  0.8379
19742TIP3    H180717   1.933   0.158  11.692  0.6299  0.3528  1.1004
19742TIP3    H280718   1.846   0.041  11.733  2.4742 -1.5248 -0.1808
19743TIP3   OH280719   0.131   3.533   4.407 -0.1540  0.2227  0.1278
19743TIP3    H180720   0.213   3.581   4.405 -0.7815  1.3648  0.6291
19743TIP3    H280721   0.146   3.457   4.351  0.4449  1.7019 -1.8418
19744TIP3   OH280722   3.058   3.107  14.915 -0.3002 -0.0592  0.0095
19744TIP3    H180723   3.051   3.194  14.955  0.8462 -0.0227  0.1544
19744TIP3    H280724   3.085   3.125  14.825  0.7995 -0.2901  0.2834
19745TIP3   OH280725   4.540   3.867  13.537 -0.2255  0.3225  0.1277
19745TIP3    H180726   4.522   3.897  13.626 -2.8249  2.1243 -0.8586
19745TIP3    H280727   4.586   3.940  13.496 -0.3123  0.0896 -0.3942
19746TIP3   OH280728   6.028   4.867   3.884  0.0096 -0.2193  0.5049
19746TIP3    H180729   6.060   4.881   3.973 -0.8230  0.8760  0.6593
19746TIP3    H280730   5.944   4.914   3.881 -0.3821 -0.9349 -0.6094
19747TIP3   OH280731   3.607   2.858  14.294 -0.0464 -0.4427 -0.0339
19747TIP3    H180732   3.652   2.778  14.264  2.7708  1.0612 -0.1739
19747TIP3    H280733   3.634   2.868  14.385  0.2549  0.6989 -0.2286
19748TIP3   OH280734   5.873   0.362  13.494  0.0976 -0.0083  0.6721
19748TIP3    H180735   5.789   0.320  13.508 -0.3532  0.5197 -0.3899
19748TIP3    H280736   5.877   0.380  13.400  1.1475  0.4799  0.7897
19749TIP3   OH280737   2.263   2.950   1.772  0.0784  0.6324  0.1480
19749TIP3    H180738   2.227   2.862   1.761  0.2792  0.3707  1.3777
19749TIP3    H280739   2.344   2.949   1.722  0.8193 -0.3802  1.3009
19750TIP3   OH280740   3.171   5.772  16.513  0.5297 -0.5285  0.2430
19750TIP3    H180741   3.086   5.797  16.478 -0.1113  0.4683  2.3543
19750TIP3    H280742   3.210   5.854  16.543  1.9707 -1.0522 -0.0786
19751TIP3   OH280743   6.412   1.139   1.146  0.4980  0.2153 -0.0044
19751TIP3    H180744   6.458   1.088   1.212 -2.2504 -1.3698  0.8643
19751TIP3    H280745   6.389   1.075   1.078 -1.0999  0.6929  0.0288
19752TIP3   OH280746   5.697   4.650  12.614 -0.0421  0.5153 -0.0219
19752TIP3    H180747   5.653   4.710  12.554 -1.1353  0.6301  0.8629
19752TIP3    H280748   5.722   4.575  12.560 -2.1129  0.0497 -0.3999
19753TIP3   OH280749   1.378   2.760   6.234 -0.0736  0.3531  0.1694
19753TIP3    H180750   1.375   2.775   6.329 -1.2908  0.7552  0.0838
19753TIP3    H280751   1.471   2.745   6.215  0.3460  1.3752  1.2628
19754TIP3   OH280752   0.389   5.854   5.654 -0.2324  0.7952  0.0402
19754TIP3    H180753   0.294   5.863   5.646 -0.2962  0.5411  0.4709
19754TIP3    H280754   0.421   5.943   5.667 -0.4144  0.8803 -0.0952
19755TIP3   OH280755   0.061   4.959   1.967  0.4242 -0.5383  0.0671
19755TIP3    H180756   0.025   4.972   1.880  2.3653 -1.9141 -1.0247
19755TIP3    H280757   0.073   4.864   1.974 -0.1336 -0.5132  2.0503
19756TIP3   OH280758   6.503   1.661   5.959 -0.1804  0.2765  0.5435
19756TIP3    H180759   6.498   1.755   5.942 -0.9946  0.0462 -0.6494
19756TIP3    H280760   6.468   1.621   5.880  0.2432 -1.0417  0.9997
19757TIP3   OH280761   5.343   3.177  12.146  0.5036 -0.1519 -0.0576
19757TIP3    H180762   5.343   3.196  12.052  0.5232 -1.1107 -0.2638
19757TIP3    H280763   5.405   3.241  12.183  0.4742  0.2534 -0.6856
19758TIP3   OH280764   5.751   6.741   3.461 -0.4125  0.3874  0.1317
19758TIP3    H180765   5.742   6.791   3.380 -0.3904  1.9251  1.0303
19758TIP3    H280766   5.825   6.682   3.445 -0.5795  0.4734 -1.0439
19759TIP3   OH280767   3.592   0.459   5.717  0.1500 -0.0046 -0.7083
19759TIP3    H180768   3.506   0.419   5.704 -0.4998  0.9330  0.5137
19759TIP3    H280769   3.648   0.420   5.649 -0.7068 -2.1611 -0.2311
19760TIP3   OH280770   5.569   1.113  13.544 -0.1540 -0.3393  0.0461
19760TIP3    H180771   5.637   1.113  13.612 -0.7852 -0.9471  0.6930
19760TIP3    H280772   5.544   1.205  13.536  0.3185 -0.1886  0.2313
19761TIP3   OH280773   2.289   4.960  16.293 -0.0714  0.4370 -0.4413
19761TIP3    H180774   2.258   5.022  16.360  1.2143 -0.0899  0.6883
19761TIP3    H280775   2.383   4.977  16.286  0.2737 -1.2504 -0.2482
19762TIP3   OH280776   1.740   2.117   3.491  0.5705  0.1698  0.1157
19762TIP3    H180777   1.684   2.156   3.424 -1.8322  0.1184  1.9343
19762TIP3    H280778   1.703   2.030   3.505 -0.8215  1.1136  3.2799
19763TIP3   OH280779   0.509   0.223   3.996  0.3089 -0.0460  0.1409
19763TIP3    H180780   0.603   0.207   3.985  0.4686  1.0090 -0.1478
19763TIP3    H280781   0.502   0.317   4.011 -0.7207 -0.0834 -0.0219
19764TIP3   OH280782   1.372   4.911  14.027 -0.1997  0.9784  0.1437
19764TIP3    H180783   1.297   4.921  14.085 -1.7380 -3.8673 -0.5397
19764TIP3    H280784   1.342   4.946  13.943 -0.7136  1.3371  0.4702
19765TIP3   OH280785   3.629   0.759   2.813  0.0140  0.1695  0.0907
19765TIP3    H180786   3.589   0.761   2.899  0.1892  0.8425  0.1587
19765TIP3    H280787   3.582   0.825   2.762 -0.8323 -0.9711 -0.6724
19766TIP3   OH280788   3.206   4.956   3.344  0.0135  0.0517  0.4351
19766TIP3    H180789   3.185   4.970   3.436 -1.2932  0.2369  0.1315
19766TIP3    H280790   3.270   4.885   3.344 -1.2826 -1.1849  1.4116
19767TIP3   OH280791   5.427   0.193  14.504  0.0306  0.1283 -0.0240
19767TIP3    H180792   5.383   0.219  14.585  0.1185 -0.6182  0.2716
19767TIP3    H280793   5.471   0.111  14.526  0.4819  0.1853 -0.6850
19768TIP3   OH280794   5.333   5.756  12.835  0.2879 -0.2005  0.1612
19768TIP3    H180795   5.339   5.848  12.861  0.2069 -0.2779  0.4557
19768TIP3    H280796   5.384   5.709  12.901  1.1583 -0.2667 -0.5453
19769TIP3   OH280797   0.285   2.185  16.462  0.2390 -0.1826  0.5744
19769TIP3    H180798   0.213   2.150  16.410 -0.0023 -0.8074  1.3166
19769TIP3    H280799   0.264   2.161  16.552  1.1898 -0.0552  0.8433
19770TIP3   OH280800   2.469   4.431   1.498  0.1861 -0.3864  0.0691
19770TIP3    H180801   2.483   4.388   1.414 -0.4637 -0.6598  0.0949
19770TIP3    H280802   2.557   4.458   1.526  0.3986 -0.2099 -0.7330
19771TIP3   OH280803   3.917   3.325  15.265 -0.1467  0.4888 -0.2128
19771TIP3    H180804   3.844   3.267  15.285  0.7113 -1.3852 -2.1227
19771TIP3    H280805   3.878   3.398  15.217 -0.9311  0.2537  0.0552
19772TIP3   OH280806   0.518   4.369  13.514 -0.0340 -0.3272 -0.5084
19772TIP3    H180807   0.530   4.447  13.569 -2.0347  0.5763 -1.2788
19772TIP3    H280808   0.459   4.313  13.564 -0.5537 -0.2340 -1.0076
19773TIP3   OH280809   4.867   0.726   4.999 -0.1217  0.2364  0.0515
19773TIP3    H180810   4.871   0.737   5.094 -2.7352 -1.4336  0.4473
19773TIP3    H280811   4.956   0.699   4.974  0.2248 -0.9120  2.2725
19774TIP3   OH280812   5.332   4.651   4.135  0.6209 -0.3302 -0.5036
19774TIP3    H180813   5.308   4.595   4.209 -2.1323 -0.5106 -1.4340
19774TIP3    H280814   5.348   4.737   4.174  1.2491 -0.8770  0.4942
19775TIP3   OH280815   0.019   4.418   1.299  0.7513  0.5605  0.4440
19775TIP3    H180816   0.092   4.358   1.310 -0.2150 -0.5675  0.8608
19775TIP3    H280817   0.021   4.473   1.378  0.3368 -0.3757  1.1244
19776TIP3   OH280818   1.681   2.872   6.021  0.5641  0.6342 -0.0682
19776TIP3    H180819   1.761   2.830   5.990  0.9127  0.4662  1.0155
19776TIP3    H280820   1.613   2.805   6.011  0.8945  0.1966  0.6014
19777TIP3   OH280821   3.970   2.479  14.347  0.2701  0.4748  0.1057
19777TIP3    H180822   4.062   2.461  14.326 -0.5912 -1.0371 -2.9842
19777TIP3    H280823   3.948   2.414  14.414  1.1734  0.1310  0.0883
19778TIP3   OH280824   1.470   3.762  15.390  0.3174  0.0905 -0.3292
19778TIP3    H180825   1.458   3.844  15.439  0.3654 -0.7340  1.1197
19778TIP3    H280826   1.512   3.703  15.453 -0.5752 -1.3550 -1.0519
19779TIP3   OH280827   5.296   5.251  16.012  0.2036  0.1303 -0.0576
19779TIP3    H180828   5.217   5.300  15.989 -0.3505 -1.4696 -1.8729
19779TIP3    H280829   5.347   5.249  15.931 -0.2015 -2.9114 -0.3489
19780TIP3   OH280830   1.144   4.730   6.825 -0.2041  0.5423  0.2486
19780TIP3    H180831   1.186   4.762   6.905 -1.0025 -1.3584  1.4977
19780TIP3    H280832   1.208   4.669   6.787 -0.5506  0.0493  0.4472
19781TIP3   OH280833   3.892   5.076   2.149 -0.0933  0.2725 -0.0584
19781TIP3    H180834   3.805   5.039   2.167  0.3008 -0.0418  1.3794
19781TIP3    H280835   3.875   5.166   2.121 -0.9304 -0.1627 -1.0169
19782TIP3   OH280836   4.433   2.725  12.767 -0.0865 -0.5594  0.2944
19782TIP3    H180837   4.440   2.796  12.831 -1.9230  0.1620 -0.2337
19782TIP3    H280838   4.499   2.662  12.795  2.7836  1.9987 -0.1237
19783TIP3   OH280839   6.413   2.152  16.606 -0.0149  0.3280  0.4531
19783TIP3    H180840   6.418   2.098  16.685 -4.1589 -0.4761  0.3548
19783TIP3    H280841   6.402   2.241  16.637 -0.0599  0.2255  0.7310
19784TIP3   OH280842   6.541   2.551  14.722  0.1104 -0.3239  0.0521
19784TIP3    H180843   6.472   2.502  14.765  0.7635  0.1448  1.7414
19784TIP3    H280844   6.501   2.586  14.642 -1.1745 -1.1874  0.3024
19785TIP3   OH280845   3.419   0.679   1.426 -0.1929  0.5453 -0.1079
19785TIP3    H180846   3.445   0.771   1.422  0.4800  0.3100 -1.6126
19785TIP3    H280847   3.499   0.633   1.450 -0.6290  0.3667  1.0859
19786TIP3   OH280848   3.223   4.962  15.073 -0.9978 -0.1324  0.2794
19786TIP3    H180849   3.249   4.871  15.061  0.0804  0.2766 -0.6410
19786TIP3    H280850   3.275   4.992  15.147 -0.9158 -0.1014  0.2094
19787TIP3   OH280851   0.061   1.033   5.542  0.5699  0.8157  0.7287
19787TIP3    H180852   0.072   0.942   5.570  0.4036  0.9585  1.2616
19787TIP3    H280853   0.116   1.041   5.464 -0.1202  0.0096  0.1460
19788TIP3   OH280854   1.075   6.459  11.949  0.1623 -0.1369 -0.2627
19788TIP3    H180855   1.103   6.522  12.015  0.9990  2.2881 -2.7735
19788TIP3    H280856   1.135   6.385  11.958 -0.3866 -0.3579  2.2604
19789TIP3   OH280857   5.596   2.167   4.287  0.4723 -0.0086  0.8698
19789TIP3    H180858   5.654   2.227   4.240  1.4161 -1.4939  0.0351
19789TIP3    H280859   5.562   2.109   4.218 -1.2544  0.2277  1.4919
19790TIP3   OH280860   2.817   4.339  15.193 -0.4303 -0.1441  0.7608
19790TIP3    H180861   2.753   4.294  15.137 -1.3577  1.8277  0.1409
19790TIP3    H280862   2.895   4.346  15.139 -0.4474 -0.5226  0.6799
19791TIP3   OH280863   3.667   6.297  11.291  0.3353 -0.2049  0.4674
19791TIP3    H180864   3.659   6.345  11.209 -2.3856 -2.1841 -0.5846
19791TIP3    H280865   3.727   6.225  11.272  1.3718  0.5241  0.8939
19792TIP3   OH280866   5.448   5.565  15.872 -0.1918 -0.2257  0.3072
19792TIP3    H180867   5.534   5.607  15.874 -0.8880  1.3960 -1.3975
19792TIP3    H280868   5.440   5.525  15.959  2.6052 -1.1978  0.2343
19793TIP3   OH280869   5.758   3.607   4.849 -0.7728 -0.4144 -0.2032
19793TIP3    H180870   5.813   3.566   4.916 -1.9271 -1.6774  0.0327
19793TIP3    H280871   5.730   3.534   4.794 -2.7086  0.0534  0.0785
19794TIP3   OH280872   1.650   4.757  14.329  0.4316 -0.5690 -0.0269
19794TIP3    H180873   1.564   4.716  14.341 -0.2357  0.8224  0.0860
19794TIP3    H280874   1.631   4.840  14.285  1.8477 -0.8017 -1.1559
19795TIP3   OH280875   5.232   0.769  17.160  0.3172 -0.2057  0.0962
19795TIP3    H180876   5.175   0.758  17.083  0.5385 -1.2556  0.0678
19795TIP3    H280877   5.176   0.813  17.224  0.0052  0.3272 -0.5257
19796TIP3   OH280878   2.151   4.784  17.222  0.0771  0.3390 -0.0184
19796TIP3    H180879   2.198   4.840  17.283  0.2279 -1.6434  1.7889
19796TIP3    H280880   2.217   4.760  17.156  0.4007  1.0829  0.0258
19797TIP3   OH280881   5.058   1.936   5.007 -0.3053 -0.3522 -0.0909
19797TIP3    H180882   4.972   1.951   4.967 -0.3148 -0.1497  0.0102
19797TIP3    H280883   5.066   1.840   5.009  0.6050 -0.4144 -2.5648
19798TIP3   OH280884   4.071   0.430  12.597 -0.1208 -0.3708 -0.1183
19798TIP3    H180885   3.999   0.438  12.535 -0.2449  3.6498  0.2698
19798TIP3    H280886   4.036   0.375  12.667 -2.1790 -0.0023 -0.7863
19799TIP3   OH280887   0.670   5.256   1.339 -0.0338 -0.0155 -0.0970
19799TIP3    H180888   0.694   5.164   1.329 -0.9067 -0.3752  0.9587
19799TIP3    H280889   0.698   5.297   1.257  1.1690 -1.0372 -0.2227
19800TIP3   OH280890   3.600   4.871  12.238  0.0940 -0.3771 -0.1966
19800TIP3    H180891   3.566   4.912  12.318 -0.5537 -0.8618 -0.2140
19800TIP3    H280892   3.565   4.925  12.167 -0.1605 -0.5343 -0.1914
19801TIP3   OH280893   1.562   5.361  11.661 -0.1278  0.1611  0.1998
19801TIP3    H180894   1.565   5.450  11.627  0.7685 -0.2997 -0.9930
19801TIP3    H280895   1.623   5.363  11.736  2.0037 -0.0422 -1.4206
19802TIP3   OH280896   5.661   4.119  11.150 -0.3360 -0.7039 -0.3229
19802TIP3    H180897   5.673   4.208  11.118  0.2182  0.0074  1.6741
19802TIP3    H280898   5.598   4.080  11.091 -3.3760  2.1772  0.7171
19803TIP3   OH280899   2.400   0.801   3.002  0.2490  0.2816  0.5766
19803TIP3    H180900   2.309   0.827   3.013 -0.5928 -2.6264  1.2537
19803TIP3    H280901   2.448   0.858   3.062 -1.1662  1.4746  0.6416
19804TIP3   OH280902   1.398   3.438   5.842  0.2445 -0.4953 -0.2845
19804TIP3    H180903   1.347   3.425   5.762  0.1496  0.8304 -0.4642
19804TIP3    H280904   1.381   3.360   5.895 -0.8646 -0.7077 -0.9307
19805TIP3   OH280905   5.360   5.400  11.149  0.0874 -0.2171  0.3800
19805TIP3    H180906   5.321   5.357  11.072  0.5141 -1.6579  0.9357
19805TIP3    H280907   5.287   5.410  11.210 -0.1442  0.4564  0.0068
19806TIP3   OH280908   1.850   6.489  14.750  0.4757  0.5753 -0.1394
19806TIP3    H180909   1.933   6.516  14.789  0.8070 -0.4699 -0.0836
19806TIP3    H280910   1.799   6.457  14.824  1.2347 -1.7374 -0.5298
19807TIP3   OH280911   6.558   3.329  11.418 -0.6523  0.5097 -0.0465
19807TIP3    H180912   6.474   3.342  11.374 -0.6770  0.1879 -0.0961
19807TIP3    H280913   6.621   3.320  11.347 -0.7757 -0.5718 -0.0293
19808TIP3   OH280914   3.201   2.268  15.186 -0.1559 -0.3776 -0.7535
19808TIP3    H180915   3.260   2.248  15.258 -0.7062 -1.1148 -0.4948
19808TIP3    H280916   3.214   2.361  15.169  1.1471 -0.5464 -0.7732
19809TIP3   OH280917   6.338   2.138   4.885 -0.0157  0.2072  0.1854
19809TIP3    H180918   6.417   2.191   4.879 -0.2509  0.3692 -3.1250
19809TIP3    H280919   6.368   2.048   4.871 -0.2545  0.0474  0.6491
19810TIP3   OH280920   4.681   2.443  11.971  0.0460  0.3128  0.3004
19810TIP3    H180921   4.678   2.452  11.876 -1.9499 -2.0550  0.0618
19810TIP3    H280922   4.708   2.353  11.987 -1.2861  0.1336  1.9151
19811TIP3   OH280923   2.775   0.580  17.110 -0.0448  0.5461 -0.6097
19811TIP3    H180924   2.799   0.572  17.018 -0.5434  1.6817 -0.8568
19811TIP3    H280925   2.841   0.638  17.148  1.1130 -1.2102  0.1565
19812TIP3   OH280926   2.491   2.870  10.991  0.7763  0.2657  0.0694
19812TIP3    H180927   2.434   2.944  11.014  0.3610 -0.2191  0.6357
19812TIP3    H280928   2.461   2.843  10.904 -1.1370 -1.1388  1.0749
19813TIP3   OH280929   1.233   6.038   4.616  0.5222 -0.6502  0.0478
19813TIP3    H180930   1.150   6.013   4.656 -0.8368  1.2470 -1.3769
19813TIP3    H280931   1.253   6.124   4.654  0.9671 -0.3539 -0.8197
19814TIP3   OH280932   0.916   0.897   0.195 -0.0927 -0.7012 -0.3160
19814TIP3    H180933   0.901   0.972   0.253  2.1054 -0.6772  0.2976
19814TIP3    H280934   0.834   0.847   0.200 -1.6287  1.6067 -0.7494
19815TIP3   OH280935   3.939   3.867   1.920  0.4177  0.2901 -0.6798
19815TIP3    H180936   3.854   3.825   1.914 -0.1334  0.4749  3.2111
19815TIP3    H280937   3.986   3.817   1.987  1.6002  2.8130  0.5246
19816TIP3   OH280938   3.743   0.828  16.810 -0.3813 -0.3045 -0.2722
19816TIP3    H180939   3.804   0.783  16.869 -0.4533 -1.5507 -1.1181
19816TIP3    H280940   3.791   0.836  16.728 -1.1415 -0.8120 -0.7827
19817TIP3   OH280941   3.195   3.786  16.175 -0.0564  0.1008  0.2117
19817TIP3    H180942   3.138   3.733  16.231 -1.7809  2.9459  1.4043
19817TIP3    H280943   3.134   3.844  16.128  1.5701 -0.2241 -2.4835
19818TIP3   OH280944   3.956   2.974   4.168 -0.2068 -0.2582 -0.5376
19818TIP3    H180945   3.870   2.967   4.210  0.2869  0.4302  0.6547
19818TIP3    H280946   4.016   2.995   4.240  0.5505  1.9488 -1.7250
19819TIP3   OH280947   4.834   1.716   5.772  0.0160  0.0697  0.6914
19819TIP3    H180948   4.761   1.707   5.834 -0.6222  0.0968 -0.0414
19819TIP3    H280949   4.876   1.798   5.796 -0.0038 -0.0914  1.3078
19820TIP3   OH280950   1.432   6.555  17.272 -0.0770  0.0642  0.4741
19820TIP3    H180951   1.337   6.564  17.269  0.0362  1.2526  0.0754
19820TIP3    H280952   1.454   6.557  17.365 -0.4107  0.0494  0.5524
19821TIP3   OH280953   6.502   3.355   2.137 -0.0112 -0.0408 -0.2716
19821TIP3    H180954   6.533   3.390   2.053 -0.8944 -2.1962 -1.5768
19821TIP3    H280955   6.563   3.391   2.202  0.6084  1.8073 -1.7884
19822TIP3   OH280956   0.139   0.886   0.446  0.5167  0.4602 -0.4377
19822TIP3    H180957   0.069   0.907   0.384 -1.3969  3.6237  2.4500
19822TIP3    H280958   0.219   0.911   0.401 -0.7203  2.0007 -1.9221
19823TIP3   OH280959   5.543   0.340   3.763 -0.5219 -0.7469  0.1631
19823TIP3    H180960   5.613   0.282   3.732  0.1954  0.5537 -0.7721
19823TIP3    H280961   5.474   0.332   3.697 -0.9338 -1.4221  0.6646
19824TIP3   OH280962   3.191   5.429   2.035  0.4915 -0.8775 -0.5401
19824TIP3    H180963   3.113   5.443   1.982  1.4390  0.6044 -1.6285
19824TIP3    H280964   3.175   5.346   2.081 -2.1464 -0.0801  0.1125
19825TIP3   OH280965   0.856   5.788  10.853  0.1111  0.1059  0.0373
19825TIP3    H180966   0.939   5.830  10.833  0.8593 -0.4479  1.7953
19825TIP3    H280967   0.860   5.703  10.808  0.8665 -0.2538  0.7561
19826TIP3   OH280968   6.324   4.200   5.359  0.0042 -0.5871  0.7464
19826TIP3    H180969   6.290   4.116   5.392  3.2898 -2.0279  0.8315
19826TIP3    H280970   6.419   4.188   5.356  0.4544  2.3825 -1.4303
19827TIP3   OH280971   4.973   3.513   1.004  0.1305  0.1176 -0.8702
19827TIP3    H180972   4.970   3.590   1.062  0.9172  0.1250 -0.8309
19827TIP3    H280973   4.890   3.469   1.019  0.7768 -0.5117  1.1368
19828TIP3   OH280974   5.376   0.263   0.772  0.7056  0.1596  0.2660
19828TIP3    H180975   5.286   0.290   0.755  0.7147 -0.0695 -0.1542
19828TIP3    H280976   5.416   0.339   0.815  0.2900  0.2281  0.5389
19829TIP3   OH280977   4.435   5.195  16.661  0.3732  0.0229  0.2415
19829TIP3    H180978   4.447   5.185  16.755  1.4739 -0.0242  0.1078
19829TIP3    H280979   4.494   5.131  16.622  0.1112  0.2093 -0.4836
19830TIP3   OH280980   0.929   3.735   5.097  0.5942  0.1811  0.1390
19830TIP3    H180981   0.857   3.797   5.104  0.9370  0.5414  0.5473
19830TIP3    H280982   0.900   3.671   5.032 -0.5355 -0.3144  1.1052
19831TIP3   OH280983   4.842   3.397   4.594  0.9567 -0.2016 -0.1218
19831TIP3    H180984   4.936   3.412   4.599  0.7456  1.0210  0.8221
19831TIP3    H280985   4.804   3.485   4.582 -0.0831 -0.5961  0.1253
19832TIP3   OH280986   2.115   4.890  13.754  0.2657  0.3723 -0.4155
19832TIP3    H180987   2.203   4.859  13.774  0.9917  2.6591  0.2166
19832TIP3    H280988   2.060   4.853  13.823  0.6085 -1.4035 -1.0369
19833TIP3   OH280989   6.588   2.652   3.775  0.3916 -0.3200 -0.6898
19833TIP3    H180990   6.528   2.644   3.701 -1.7014  1.4843  0.7112
19833TIP3    H280991   6.542   2.613   3.849  1.7240 -0.5092  0.0854
19834TIP3   OH280992   4.146   1.660  14.140 -0.3896 -0.5055 -0.6260
19834TIP3    H180993   4.220   1.601  14.125  0.2797  0.1589 -0.0224
19834TIP3    H280994   4.115   1.638  14.228 -0.4363 -0.2858 -0.5860
19835TIP3   OH280995   2.465   2.167   4.207 -0.8426 -0.6740 -0.0626
19835TIP3    H180996   2.403   2.233   4.239  1.3011  0.6175  1.7834
19835TIP3    H280997   2.512   2.211   4.136 -1.2162 -1.2293 -0.6678
19836TIP3   OH280998   3.409   3.861   3.922 -0.3400 -0.8332 -0.0982
19836TIP3    H180999   3.454   3.837   3.841 -0.0415 -0.1609 -0.1427
19836TIP3    H281000   3.380   3.778   3.959 -1.0612 -1.1037 -1.2309
19837TIP3   OH281001   1.458   4.086   6.585 -0.4768 -0.4197  0.1435
19837TIP3    H181002   1.366   4.066   6.603 -1.0550  0.8033 -1.2004
19837TIP3    H281003   1.471   4.173   6.622  0.0425 -0.4640  0.0677
19838TIP3   OH281004   4.190   0.139  14.053  0.1143 -0.0032 -0.4209
19838TIP3    H181005   4.141   0.109  14.130  0.2815 -0.9587 -0.6673
19838TIP3    H281006   4.262   0.191  14.089  0.2298 -0.4987  0.0764
19839TIP3   OH281007   3.318   2.344   4.781  0.4001  0.3425  0.3720
19839TIP3    H181008   3.356   2.272   4.730  0.8200  1.0603 -0.3481
19839TIP3    H281009   3.331   2.318   4.872 -1.2201 -1.4152  0.1525
19840TIP3   OH281010   0.053   1.452   0.914  0.2608 -0.1313 -0.2384
19840TIP3    H181011   0.040   1.547   0.914 -0.5763 -0.2124  1.5631
19840TIP3    H281012  -0.035   1.416   0.924  0.4619 -1.1668 -1.7464
19841TIP3   OH281013   2.221   6.129   3.135  0.1804 -0.4914 -0.4875
19841TIP3    H181014   2.170   6.206   3.160 -0.5749 -0.8428 -0.9080
19841TIP3    H281015   2.260   6.154   3.051 -0.6856 -0.8372 -1.0015
19842TIP3   OH281016   4.010   5.478   0.528  0.0707 -0.1004  0.5054
19842TIP3    H181017   4.011   5.506   0.436 -0.6223  0.2656  0.6105
19842TIP3    H281018   3.964   5.547   0.574  1.7559  0.4936  1.3938
19843TIP3   OH281019   5.826   4.382   2.150  0.2942  0.4387 -0.1853
19843TIP3    H181020   5.833   4.473   2.178  0.3504 -0.0786  1.5661
19843TIP3    H281021   5.736   4.356   2.170  1.0949 -0.7636  2.2960
19844TIP3   OH281022   1.892   1.326  13.392 -0.0310 -0.4813 -0.7634
19844TIP3    H181023   1.838   1.392  13.436  2.7752  0.4797  1.6209
19844TIP3    H281024   1.946   1.376  13.331 -0.5474 -1.1695 -1.8086
19845TIP3   OH281025   2.655   5.531   4.437  0.1268  0.2066  0.3980
19845TIP3    H181026   2.666   5.619   4.402 -0.1690 -0.4494 -1.4800
19845TIP3    H281027   2.598   5.541   4.513  0.5807  1.6918  0.5561
19846TIP3   OH281028   3.000   5.012   3.161 -0.0928 -0.4094  0.1908
19846TIP3    H181029   3.076   4.989   3.215 -0.3069 -0.0297  0.6622
19846TIP3    H281030   3.038   5.042   3.079  0.3201  0.6856  0.7665
19847TIP3   OH281031   4.230   0.228  10.508  0.0489  0.1455  0.4622
19847TIP3    H181032   4.199   0.288  10.576  0.8083 -0.0014  0.9473
19847TIP3    H281033   4.168   0.155  10.511 -0.6554  0.7167  0.1307
19848TIP3   OH281034   6.145   5.684   2.964 -0.3391  0.0145  0.2092
19848TIP3    H181035   6.064   5.727   2.991 -0.5224 -0.1908 -0.0112
19848TIP3    H281036   6.142   5.686   2.868 -0.4015 -0.5921  0.1989
19849TIP3   OH281037   4.609   4.056  11.155 -0.2772  0.3338 -0.3228
19849TIP3    H181038   4.577   4.146  11.152 -1.6091 -0.1204 -0.6073
19849TIP3    H281039   4.703   4.063  11.142 -0.1217  1.8031  1.2073
19850TIP3   OH281040   5.450   4.491  13.116  0.7133 -0.0608 -0.2984
19850TIP3    H181041   5.504   4.550  13.169 -1.0026  1.1075  0.2571
19850TIP3    H281042   5.429   4.419  13.175 -1.3541  1.3319  0.8008
19851TIP3   OH281043   1.796   0.394  13.236  0.7411 -0.2866  0.0261
19851TIP3    H181044   1.843   0.324  13.191  1.5423  0.3490 -0.1576
19851TIP3    H281045   1.778   0.359  13.323  0.0238 -1.1725 -0.4644
19852TIP3   OH281046   6.777   3.271   5.622  0.0353  0.3711  0.3255
19852TIP3    H181047   6.782   3.176   5.638  0.6479  0.1647 -0.9393
19852TIP3    H281048   6.692   3.283   5.581 -1.6302  0.9302  3.5815
19853TIP3   OH281049   2.461   6.564  13.228 -0.1338 -0.1946  0.2319
19853TIP3    H181050   2.539   6.584  13.176  0.5522  0.4146  1.4545
19853TIP3    H281051   2.428   6.650  13.256 -3.0837 -0.1456 -2.7412
19854TIP3   OH281052   0.551   2.709  16.817  0.0877 -0.1423  0.0231
19854TIP3    H181053   0.633   2.736  16.859 -1.6136  0.9193  2.9789
19854TIP3    H281054   0.548   2.615  16.831  0.4006 -0.0597  0.7368
19855TIP3   OH281055   2.954   1.617   1.908 -0.1749  0.1944 -0.9978
19855TIP3    H181056   2.980   1.549   1.970 -0.6717 -0.1953 -1.2002
19855TIP3    H281057   2.886   1.667   1.953 -0.5261 -0.0804 -1.2153
19856TIP3   OH281058   0.523   4.676  13.349 -0.6380 -0.3557  0.0462
19856TIP3    H181059   0.513   4.607  13.283 -2.5966 -0.3681  0.3194
19856TIP3    H281060   0.440   4.723  13.348 -0.0956  0.6935  1.3549
19857TIP3   OH281061   4.018   3.800   4.750  0.3876 -0.0774  0.0292
19857TIP3    H181062   3.987   3.710   4.743 -0.9510  0.4794 -1.9281
19857TIP3    H281063   3.953   3.844   4.805  2.0145 -0.6497  2.5568
19858TIP3   OH281064   2.097   4.711   5.902  0.3813 -0.1022 -0.4771
19858TIP3    H181065   2.077   4.634   5.956 -1.6175 -0.9827 -2.3371
19858TIP3    H281066   2.137   4.772   5.963 -0.3193 -1.6413  1.6655
19859TIP3   OH281067   3.434   3.541   2.618 -0.5036 -0.1637 -0.3791
19859TIP3    H181068   3.406   3.610   2.678  1.8074 -0.0841  0.7279
19859TIP3    H281069   3.353   3.501   2.587 -1.9092  2.5931 -0.5605
19860TIP3   OH281070   3.370   1.540  10.385  0.3535 -0.3902  0.1725
19860TIP3    H181071   3.286   1.567  10.347  0.5374 -0.8931 -0.6030
19860TIP3    H281072   3.378   1.592  10.465 -1.0930 -0.9137  0.6997
19861TIP3   OH281073   6.058   6.595   4.120 -0.3946 -0.3182  0.0305
19861TIP3    H181074   6.048   6.690   4.132 -1.2704 -0.2498 -1.0167
19861TIP3    H281075   6.108   6.586   4.039 -0.3486 -0.7488  0.1047
19862TIP3   OH281076   3.061   3.016  13.534  0.6306 -0.4529 -0.1322
19862TIP3    H181077   3.014   2.934  13.522 -0.2388  0.3463 -3.0614
19862TIP3    H281078   3.150   2.997  13.504  0.1695 -0.1332 -1.7946
19863TIP3   OH281079   4.201   6.195  11.665 -0.2325  0.4115 -0.1399
19863TIP3    H181080   4.125   6.173  11.719 -1.6767 -0.6869 -2.4751
19863TIP3    H281081   4.255   6.117  11.666  0.5870  0.9620  0.9740
19864TIP3   OH281082   4.968   5.508   4.660  0.1990 -0.5923 -0.5595
19864TIP3    H181083   5.053   5.507   4.617  1.6920  1.8736  2.0101
19864TIP3    H281084   4.973   5.437   4.725 -0.1158 -1.0832 -1.0644
19865TIP3   OH281085   2.246   0.031   0.425 -0.0116  0.2554  0.1929
19865TIP3    H181086   2.248   0.098   0.494  0.1558 -0.5653  1.0031
19865TIP3    H281087   2.337   0.002   0.418 -0.4333 -1.5332  1.5239
19866TIP3   OH281088   3.465   4.432  15.591  0.0551 -0.4712  0.8267
19866TIP3    H181089   3.382   4.468  15.621 -0.0342 -0.2044  0.2659
19866TIP3    H281090   3.462   4.340  15.617 -1.6534 -1.2129 -1.6390
19867TIP3   OH281091   4.232   4.438  15.978  0.4304  1.2479  0.1821
19867TIP3    H181092   4.313   4.477  15.946  0.2028  1.9471  0.4421
19867TIP3    H281093   4.166   4.462  15.912  0.6755 -0.5273 -0.8015
19868TIP3   OH281094   1.808   2.378  13.671  0.2485  0.8290 -0.7246
19868TIP3    H181095   1.823   2.379  13.576 -0.2337 -0.2006 -0.8270
19868TIP3    H281096   1.722   2.336  13.681 -0.2669  2.0187  0.1130
19869TIP3   OH281097   1.681   6.348  10.905 -0.2470  0.2866  0.0116
19869TIP3    H181098   1.734   6.308  10.974 -2.0221 -1.0101  0.6806
19869TIP3    H281099   1.717   6.436  10.896  1.1745 -0.1081  1.3203
19870TIP3   OH281100   1.819   5.097  17.218  0.3651  0.1306  0.0315
19870TIP3    H181101   1.851   5.183  17.245  1.0868 -0.4100  0.9495
19870TIP3    H281102   1.897   5.042  17.216  0.1129 -0.2370 -1.7321
19871TIP3   OH281103   6.679   2.772   2.999  0.4122 -0.0225  0.1708
19871TIP3    H181104   6.665   2.849   2.943  1.3672 -0.4278 -0.6620
19871TIP3    H281105   6.592   2.734   3.008  0.0568  0.6969 -0.0837
19872TIP3   OH281106   0.271   2.830  12.427  0.1422 -0.6590 -0.3780
19872TIP3    H181107   0.265   2.842  12.522 -0.4511 -0.3356 -0.4536
19872TIP3    H281108   0.209   2.760  12.407  0.9940 -1.4225 -0.4064
19873TIP3   OH281109   1.939   2.665  13.866 -0.2265 -0.3210 -0.0141
19873TIP3    H181110   1.914   2.753  13.837  1.0375  0.2390  0.4993
19873TIP3    H281111   1.955   2.617  13.785 -0.2780  0.1185 -0.2935
19874TIP3   OH281112   4.222   2.617   2.334 -1.2408 -0.3093  0.0473
19874TIP3    H181113   4.234   2.533   2.379 -0.2482 -1.1597 -1.6819
19874TIP3    H281114   4.147   2.602   2.277 -0.5372 -0.3491 -0.8984
19875TIP3   OH281115   1.204   1.866   1.823 -0.1512 -0.8645 -0.4713
19875TIP3    H181116   1.124   1.820   1.798 -0.4423  0.0498 -1.2737
19875TIP3    H281117   1.182   1.959   1.818  0.1699 -0.5902  2.0159
19876TIP3   OH281118   3.571   1.941   5.817 -0.2028  0.7683  0.3754
19876TIP3    H181119   3.614   1.858   5.798 -0.1115  0.7669  0.5817
19876TIP3    H281120   3.539   1.931   5.907  0.4092  1.2100  0.6444
19877TIP3   OH281121   1.357   3.608   2.000 -0.4306 -0.3626 -1.0493
19877TIP3    H181122   1.267   3.579   2.013 -0.1507 -0.3043  1.4193
19877TIP3    H281123   1.362   3.694   2.042  1.0742 -0.9367  0.0437
19878TIP3   OH281124   6.599   0.022   2.434 -0.3225  0.3369  0.2748
19878TIP3    H181125   6.617   0.061   2.519  1.2142  0.1587  0.0612
19878TIP3    H281126   6.685   0.015   2.392 -0.8862 -0.7778 -0.7674
19879TIP3   OH281127   6.735   2.507  12.628 -0.1753 -0.7457  0.4680
19879TIP3    H181128   6.680   2.492  12.705 -0.0880 -2.0986  0.2916
19879TIP3    H281129   6.702   2.446  12.562  1.3149 -1.3974  0.2619
19880TIP3   OH281130   4.081   0.892  13.487  0.0976 -0.4500  0.1831
19880TIP3    H181131   4.056   0.946  13.562 -1.9329  0.4689 -1.0769
19880TIP3    H281132   4.020   0.818  13.489  2.9968 -3.0285  2.0324
19881TIP3   OH281133   4.918   6.546  14.421 -0.2040  0.1870 -0.1995
19881TIP3    H181134   4.945   6.630  14.457 -0.3901 -0.0284  0.4705
19881TIP3    H281135   4.988   6.521  14.362  0.2633  0.4167  0.2470
19882TIP3   OH281136   1.685   0.383   0.367  0.0163  0.1219 -0.0878
19882TIP3    H181137   1.684   0.329   0.288  0.9946  0.3406 -0.2605
19882TIP3    H281138   1.635   0.462   0.343 -0.4537 -0.2010 -0.1889
19883TIP3   OH281139   4.664   0.171  11.836  0.5803  0.0611  0.4252
19883TIP3    H181140   4.584   0.193  11.884  1.4916  1.4461  1.4027
19883TIP3    H281141   4.651   0.209  11.749 -1.1022 -2.4999 -0.5392
19884TIP3   OH281142   3.388   0.408   4.679 -0.3995 -0.3177 -0.2694
19884TIP3    H181143   3.387   0.482   4.739 -0.7184  0.1920 -0.8874
19884TIP3    H281144   3.337   0.341   4.723  0.6410 -0.5090  0.6952
19885TIP3   OH281145   0.649   0.147   6.008 -0.1899 -0.4496 -0.0787
19885TIP3    H181146   0.730   0.162   6.056 -0.8961  1.3446  0.6488
19885TIP3    H281147   0.581   0.188   6.062 -1.0364  1.6576 -2.5199
19886TIP3   OH281148   3.820   6.154   2.720  0.5106  0.3279  0.5869
19886TIP3    H181149   3.808   6.092   2.792 -0.8551 -1.5363 -1.1198
19886TIP3    H281150   3.867   6.105   2.653  1.0845  1.7652 -0.1004
19887TIP3   OH281151   0.955   2.828   2.947  0.2608  0.4354  0.2865
19887TIP3    H181152   0.938   2.799   2.857 -0.1920 -1.5381  0.9559
19887TIP3    H281153   1.028   2.774   2.977 -1.7455 -1.4319  2.1845
19888TIP3   OH281154   1.692   2.144  10.694  0.3545 -0.0809 -0.5771
19888TIP3    H181155   1.645   2.076  10.742 -0.7732  1.8710  1.2452
19888TIP3    H281156   1.782   2.110  10.687  0.1359 -1.2294  1.3786
19889TIP3   OH281157   4.716   3.378   4.002  0.4635  0.1229  0.3629
19889TIP3    H181158   4.780   3.358   3.934 -1.1358  1.6978 -1.7187
19889TIP3    H281159   4.638   3.327   3.979 -0.3845  1.3113  0.5258
19890TIP3   OH281160   1.866   3.197   5.672  0.5739 -0.0492  0.2247
19890TIP3    H181161   1.955   3.199   5.707 -0.8764  0.9670  4.4547
19890TIP3    H281162   1.818   3.140   5.732 -1.8436  0.1818 -1.3645
19891TIP3   OH281163   2.715   3.796   0.232 -0.5157 -0.2770 -0.0486
19891TIP3    H181164   2.654   3.725   0.247 -2.0456  1.3992  2.3054
19891TIP3    H281165   2.660   3.870   0.205  0.9358  0.2833 -1.6665
19892TIP3   OH281166   2.941   6.231   3.869 -0.4292 -0.1788 -0.2303
19892TIP3    H181167   2.901   6.316   3.849  0.1414  0.2314  0.3474
19892TIP3    H281168   2.875   6.167   3.842  0.0393  0.3236 -2.9499
19893TIP3   OH281169   1.112   1.903  11.603  0.1200  0.3048  0.5356
19893TIP3    H181170   1.078   1.854  11.528 -1.5602  1.0873  0.7499
19893TIP3    H281171   1.197   1.936  11.573  0.1944 -0.6996 -0.4501
19894TIP3   OH281172   0.992   6.151   0.608 -0.3025 -0.6235 -0.3939
19894TIP3    H181173   0.991   6.224   0.546  0.5123 -0.4938 -0.2665
19894TIP3    H281174   0.931   6.178   0.677 -0.7042 -0.4730 -0.7963
19895TIP3   OH281175   0.751   3.047  12.854  0.1032  0.1780 -0.0838
19895TIP3    H181176   0.665   3.044  12.813 -0.5079 -0.4113  1.1867
19895TIP3    H281177   0.759   3.137  12.886 -0.2004  0.1394  0.1056
19896TIP3   OH281178   5.416   1.278  17.144 -0.3072 -0.0706  0.3691
19896TIP3    H181179   5.444   1.197  17.188  0.6853  0.0151 -0.0900
19896TIP3    H281180   5.429   1.261  17.051 -0.1255  0.6024  0.2673
19897TIP3   OH281181   2.962   6.248   5.592 -0.6302  0.2479  0.5537
19897TIP3    H181182   3.014   6.317   5.634 -1.4157  1.0967  0.1735
19897TIP3    H281183   2.882   6.242   5.645 -1.4304  1.0126 -0.5285
19898TIP3   OH281184   1.106   6.447  16.477  0.1209 -0.2448  0.1667
19898TIP3    H181185   1.044   6.374  16.487 -0.7705  0.7595  3.0205
19898TIP3    H281186   1.056   6.517  16.436 -0.8241  0.6064  2.5768
19899TIP3   OH281187   4.679   3.448  15.915  0.3478  0.8578  0.1232
19899TIP3    H181188   4.639   3.510  15.976 -0.6512 -0.3557  0.7747
19899TIP3    H281189   4.618   3.374  15.914  1.2852  0.0654 -0.9360
19900TIP3   OH281190   3.220   4.790  12.094  0.4214  0.3720 -0.4994
19900TIP3    H181191   3.143   4.771  12.039  0.5479  0.5114 -0.7262
19900TIP3    H281192   3.223   4.717  12.156  1.5557 -1.0310 -2.0780
19901TIP3   OH281193   2.835   0.374   0.782  0.3061 -0.5386 -0.3467
19901TIP3    H181194   2.801   0.463   0.775  1.1408 -0.1357  0.5232
19901TIP3    H281195   2.763   0.319   0.751 -0.9999  0.3116  1.0390
19902TIP3   OH281196   4.678   5.531   0.853  0.3025 -0.4856  0.3848
19902TIP3    H181197   4.731   5.454   0.832  0.2849 -0.1212 -1.1206
19902TIP3    H281198   4.631   5.550   0.771  0.7440  1.4582  0.5484
19903TIP3   OH281199   0.621   5.682  12.177  0.0432  0.1150  0.6327
19903TIP3    H181200   0.529   5.656  12.176 -0.3859  1.3251  2.7815
19903TIP3    H281201   0.662   5.628  12.109 -2.2518 -0.3491 -0.4763
19904TIP3   OH281202   5.245   0.344  13.581  0.6614  0.7515 -0.1891
19904TIP3    H181203   5.214   0.431  13.556 -0.5591  0.2821 -0.3596
19904TIP3    H281204   5.299   0.316  13.507 -1.0156  0.3420 -1.3021
19905TIP3   OH281205   6.535   5.043  15.489 -0.3781  0.6284 -0.1011
19905TIP3    H181206   6.501   5.075  15.573  1.6891  2.8922 -0.0260
19905TIP3    H281207   6.539   5.120  15.433  0.9885 -0.2818 -1.3352
19906TIP3   OH281208   5.905   5.661  11.500  0.0903  0.0777  0.0136
19906TIP3    H181209   5.993   5.623  11.493 -0.3891 -1.0539 -0.0504
19906TIP3    H281210   5.906   5.710  11.582  0.8463  0.2529 -0.0943
19907TIP3   OH281211   0.898   6.000  14.159 -0.5040 -0.1670  0.4306
19907TIP3    H181212   0.964   5.960  14.216  0.7809  1.1028 -0.1001
19907TIP3    H281213   0.907   6.094  14.174 -1.2727  0.0973 -0.6427
19908TIP3   OH281214   1.903   2.006   2.477 -0.2455 -0.0920  0.1282
19908TIP3    H181215   1.908   1.954   2.557 -2.3209 -0.8189 -0.1384
19908TIP3    H281216   1.901   2.097   2.508 -2.7652 -0.3970  1.1236
19909TIP3   OH281217   0.708   0.486   2.389  0.5142 -0.2596  0.3621
19909TIP3    H181218   0.713   0.471   2.295 -2.0438  0.0149  0.1134
19909TIP3    H281219   0.773   0.427   2.427 -0.4016 -2.4981 -1.3987
19910TIP3   OH281220   4.708   2.465   5.675  0.5093  0.2698  0.0979
19910TIP3    H181221   4.783   2.479   5.734 -0.0573 -2.3950  1.6284
19910TIP3    H281222   4.633   2.454   5.734 -1.0009  1.9257 -1.3626
19911TIP3   OH281223   5.609   6.807  11.348 -0.0376  0.4950  0.2139
19911TIP3    H181224   5.573   6.886  11.389 -0.6771  0.2874  0.0569
19911TIP3    H281225   5.577   6.811  11.258 -0.0356  0.0770  0.1951
19912TIP3   OH281226   6.513   1.887  17.219  0.6272 -0.0848 -0.1937
19912TIP3    H181227   6.523   1.802  17.261 -0.8982 -0.1929 -0.0129
19912TIP3    H281228   6.426   1.884  17.179  1.4404  0.5502 -2.1291
19913TIP3   OH281229   4.099   4.087   3.725 -0.0481  0.3765  0.1467
19913TIP3    H181230   4.068   4.145   3.655 -0.1130  0.1933  0.0216
19913TIP3    H281231   4.045   4.008   3.716  0.0011  0.3198  0.3506
19914TIP3   OH281232   2.971   0.801  15.941 -0.1878 -0.4767  0.1820
19914TIP3    H181233   2.894   0.845  15.978 -0.2902 -0.6593  0.1893
19914TIP3    H281234   3.016   0.762  16.016  0.0189 -0.2025  0.1991
19915TIP3   OH281235   5.398   6.283   6.186  0.0185 -0.7419 -0.5331
19915TIP3    H181236   5.446   6.222   6.242  1.6681 -0.9670 -2.0728
19915TIP3    H281237   5.429   6.369   6.212  0.1276 -0.7861 -0.5151
19916TIP3   OH281238   4.843   5.009   0.717  0.4333  0.6337  0.2142
19916TIP3    H181239   4.854   5.094   0.759  3.9313 -0.2103  1.3140
19916TIP3    H281240   4.875   5.021   0.628 -0.8130  0.8553 -0.2237
19917TIP3   OH281241   1.997   1.411  13.993  0.3673  0.1932  0.3466
19917TIP3    H181242   1.974   1.339  13.934 -1.4979  1.4135 -0.4912
19917TIP3    H281243   2.065   1.460  13.946 -0.9470  1.0289 -0.7373
19918TIP3   OH281244   1.686   6.528  16.731 -0.3580  0.4508 -0.1883
19918TIP3    H181245   1.685   6.619  16.761  0.4404  0.1633  0.7721
19918TIP3    H281246   1.764   6.521  16.678 -0.6502  0.4288 -0.6167
19919TIP3   OH281247   1.591   2.641   6.160 -0.2445 -0.4711 -0.4184
19919TIP3    H181248   1.562   2.571   6.219 -0.7347 -0.8494 -1.1011
19919TIP3    H281249   1.683   2.655   6.183  0.6731 -3.1792 -2.0097
19920TIP3   OH281250   2.789   5.446   1.680  0.2865 -0.5517 -0.1746
19920TIP3    H181251   2.756   5.532   1.654 -1.6951 -1.2074 -0.0442
19920TIP3    H281252   2.778   5.391   1.603 -1.4881 -1.4234  0.6309
19921TIP3   OH281253   5.209   0.019  17.267  0.2938  0.2477 -0.7780
19921TIP3    H181254   5.186  -0.072  17.250 -0.5679  0.3461 -0.1860
19921TIP3    H281255   5.247   0.018  17.355  0.9444  0.3579 -1.0526
19922TIP3   OH281256   3.653   4.860   2.517  0.4922 -0.0490  0.5315
19922TIP3    H181257   3.682   4.814   2.595  1.1645  0.5900  0.6704
19922TIP3    H281258   3.729   4.909   2.488  0.6282 -1.2572 -1.2798
19923TIP3   OH281259   5.798   4.953  17.136 -0.0013  0.0878 -0.1963
19923TIP3    H181260   5.813   4.860  17.116 -0.9560 -0.3336  0.9611
19923TIP3    H281261   5.742   4.953  17.213 -0.9728  1.6303 -0.8490
19924TIP3   OH281262   6.329   1.864   1.912  0.3746 -0.5834 -0.4707
19924TIP3    H181263   6.247   1.896   1.951  1.1451 -0.1807  0.8474
19924TIP3    H281264   6.370   1.943   1.875 -0.3769 -0.9632 -2.2485
19925TIP3   OH281265   3.090   6.202   0.920  0.6366 -0.3084  0.0958
19925TIP3    H181266   3.111   6.115   0.955  0.0229  0.0099  1.2961
19925TIP3    H281267   2.998   6.196   0.894  0.5547  0.0067  0.3000
19926TIP3   OH281268   4.057   1.096  16.983 -0.5685  0.0584 -0.0824
19926TIP3    H181269   4.077   1.104  17.076  0.7942  0.3329 -0.3804
19926TIP3    H281270   4.076   1.005  16.962 -0.8584  0.0009 -0.0954
19927TIP3   OH281271   6.084   5.216   6.377 -0.7971  0.3228  0.1584
19927TIP3    H181272   6.160   5.163   6.354 -1.2243  0.0107 -0.5674
19927TIP3    H281273   6.122   5.295   6.415 -0.1677 -0.7794  1.9285
19928TIP3   OH281274   6.533   2.422  11.335 -0.2328  0.0200 -0.0382
19928TIP3    H181275   6.535   2.328  11.322  0.4802  0.0871 -0.4656
19928TIP3    H281276   6.557   2.459  11.250  0.0022  0.5792  0.2609
19929TIP3   OH281277   2.302   0.428   5.964  0.5820 -0.2060  0.2304
19929TIP3    H181278   2.298   0.338   5.995  2.4256  0.1817  1.7959
19929TIP3    H281279   2.286   0.481   6.042  0.7664  0.8130 -0.4025
19930TIP3   OH281280   2.860   1.468   1.718 -0.4237  1.0972  0.0572
19930TIP3    H181281   2.951   1.445   1.700 -0.2858 -0.7810  2.6083
19930TIP3    H281282   2.864   1.530   1.791 -1.1783  0.7731  0.3939
19931TIP3   OH281283   6.497   6.556   4.014 -0.0667  0.0237  1.0796
19931TIP3    H181284   6.556   6.630   4.021  0.6740 -0.4429 -0.0235
19931TIP3    H281285   6.513   6.504   4.093 -0.8288  1.1753  2.0229
19932TIP3   OH281286   0.722   2.431   4.551 -0.6519  0.0702  0.1602
19932TIP3    H181287   0.800   2.463   4.596  0.4946 -2.4261  0.0927
19932TIP3    H281288   0.675   2.380   4.617 -2.8462  2.3208  0.4892
19933TIP3   OH281289   1.145   0.747  13.969 -0.0762  0.1995 -0.4586
19933TIP3    H181290   1.171   0.791  14.050 -2.3996 -1.0300  1.0955
19933TIP3    H281291   1.199   0.667  13.968 -1.9650 -1.2188  1.5203
19934TIP3   OH281292   4.002   0.579  11.376 -0.4609 -0.7984 -0.0483
19934TIP3    H181293   3.923   0.553  11.423 -1.3874 -0.6725 -1.4780
19934TIP3    H281294   4.074   0.560  11.437 -1.1030 -5.4361 -0.3486
19935TIP3   OH281295   5.626   5.608  10.734 -0.3583 -0.0988  0.0386
19935TIP3    H181296   5.603   5.701  10.745 -0.6630 -0.0756 -0.7211
19935TIP3    H281297   5.597   5.567  10.815  1.4597  0.7571  1.1888
19936TIP3   OH281298   6.293   6.574   0.440 -0.8700 -0.4186  0.5166
19936TIP3    H181299   6.203   6.540   0.440 -1.1783  0.3122 -1.1095
19936TIP3    H281300   6.320   6.569   0.349  0.0476  1.1661  0.6771
19937TIP3   OH281301   4.271   3.647  14.908  0.1956  0.0996 -0.1917
19937TIP3    H181302   4.274   3.578  14.975  1.9540 -0.5798 -0.9188
19937TIP3    H281303   4.182   3.641  14.872  0.4934 -2.2925 -0.7206
19938TIP3   OH281304   0.784   5.507  12.004 -0.0842 -0.0153  0.1090
19938TIP3    H181305   0.847   5.550  11.947  0.2956 -1.3577 -0.5254
19938TIP3    H281306   0.836   5.444  12.055 -0.7653 -0.4900  0.2397
19939TIP3   OH281307   4.875   0.919   5.659  0.0533  0.1011  0.1403
19939TIP3    H181308   4.853   0.885   5.572 -1.4543 -2.0442  1.2893
19939TIP3    H281309   4.796   0.965   5.687  0.3946  0.4394  0.5558
19940TIP3   OH281310   5.458   1.281   4.398 -0.3153 -0.1461  0.0354
19940TIP3    H181311   5.510   1.362   4.395 -0.9891  0.3243  0.6622
19940TIP3    H281312   5.427   1.269   4.309  1.1555 -0.6371 -0.4393
19941TIP3   OH281313   6.714   6.642  11.454 -0.5829 -0.7201  0.3115
19941TIP3    H181314   6.799   6.625  11.413 -0.8672  1.1775 -1.1956
19941TIP3    H281315   6.652   6.643  11.381 -1.7492 -1.0625  1.2717
19942TIP3   OH281316   4.144   1.520  16.733 -0.3831  0.1918  0.7321
19942TIP3    H181317   4.158   1.429  16.758 -0.2484 -0.5745 -1.7913
19942TIP3    H281318   4.067   1.517  16.676 -0.7287  1.7636  1.0804
19943TIP3   OH281319   4.498   4.111  10.358  0.4322 -0.0293 -0.3183
19943TIP3    H181320   4.433   4.145  10.296  2.8088 -1.0608 -3.6810
19943TIP3    H281321   4.546   4.189  10.387 -0.5746  0.4594  0.0657
19944TIP3   OH281322   1.854   5.280   1.391 -0.4655  0.8421 -0.1578
19944TIP3    H181323   1.827   5.305   1.303 -1.7455 -0.4887 -0.1873
19944TIP3    H281324   1.802   5.336   1.449 -1.4745  0.0293 -0.2466
19945TIP3   OH281325   4.927   5.008  17.007  0.1543  0.1457 -0.4769
19945TIP3    H181326   4.839   5.002  17.043  0.0830 -0.6597 -0.7597
19945TIP3    H281327   4.957   5.095  17.032 -0.9211  0.6407 -0.8278
19946TIP3   OH281328   2.508   4.539  17.184 -0.1205  0.2463  0.2646
19946TIP3    H181329   2.577   4.479  17.212 -0.3985  0.1210  0.7074
19946TIP3    H281330   2.506   4.532  17.089 -2.4522 -3.1239  0.3709
19947TIP3   OH281331   0.658   0.001  12.967 -0.2692  0.0653  0.1213
19947TIP3    H181332   0.609   0.077  12.935 -2.4881 -0.9517  0.9175
19947TIP3    H281333   0.644  -0.066  12.900  0.8996  0.0356 -0.1147
19948TIP3   OH281334   2.589   4.720   2.433  0.7522 -0.1788 -0.3828
19948TIP3    H181335   2.669   4.750   2.389  1.0209 -1.7888 -1.0844
19948TIP3    H281336   2.549   4.660   2.370  0.7703 -2.0233  1.2581
19949TIP3   OH281337   2.176   3.621  16.654  0.8423 -0.6671  0.0835
19949TIP3    H181338   2.245   3.678  16.618  0.1282  0.3472  0.2751
19949TIP3    H281339   2.223   3.546  16.690  1.7241 -0.7747 -1.2265
19950TIP3   OH281340   0.235   6.774   4.996 -1.1409  0.5047  0.4605
19950TIP3    H181341   0.206   6.859   4.965 -0.0639  1.3187  1.5756
19950TIP3    H281342   0.173   6.751   5.065 -0.5101  1.1685  1.2698
19951TIP3   OH281343   1.489   6.549  16.263 -0.2447 -0.1483 -0.5153
19951TIP3    H181344   1.481   6.589  16.176  0.7180 -0.3373 -0.6955
19951TIP3    H281345   1.507   6.457  16.246  0.2333 -0.1309 -0.1109
19952TIP3   OH281346   4.358   2.898  13.844 -0.1006  0.3086 -0.0632
19952TIP3    H181347   4.284   2.929  13.896  0.7729  3.4101 -0.4731
19952TIP3    H281348   4.320   2.875  13.759 -1.1930 -2.7444  1.0839
19953TIP3   OH281349   1.830   4.040   5.770  0.2297 -0.6258 -0.3764
19953TIP3    H181350   1.822   4.115   5.711  0.8981 -0.4706 -0.2752
19953TIP3    H281351   1.752   4.044   5.825  0.1371 -0.1488 -0.5434
19954TIP3   OH281352   3.695   4.175  13.259  0.1355 -0.4911 -0.2326
19954TIP3    H181353   3.670   4.083  13.266 -1.1314 -0.1460  0.0050
19954TIP3    H281354   3.621   4.216  13.214 -0.6225  0.9294  2.1792
19955TIP3   OH281355   4.895   2.503  12.449 -0.1616 -0.0818  0.5122
19955TIP3    H181356   4.933   2.524  12.534  2.1291 -0.7606 -0.2559
19955TIP3    H281357   4.802   2.521  12.459  0.3227  1.7999  2.5276
19956TIP3   OH281358   6.792   6.359  11.079  0.5513 -0.1479  0.8651
19956TIP3    H181359   6.811   6.438  11.028  0.2974  1.1108  2.5996
19956TIP3    H281360   6.699   6.366  11.100 -0.3408 -2.6827 -1.7391
19957TIP3   OH281361   1.808   4.369   4.703  0.2615 -0.0477 -0.0304
19957TIP3    H181362   1.881   4.401   4.650 -0.0885 -1.2988 -1.3256
19957TIP3    H281363   1.840   4.373   4.793  1.3751  0.8303 -0.4412
19958TIP3   OH281364   1.808   1.854  15.637 -0.1753 -0.3573 -0.2743
19958TIP3    H181365   1.719   1.823  15.619 -0.6142 -0.4036  1.7030
19958TIP3    H281366   1.853   1.778  15.673  0.4623 -0.1550 -0.6275
19959TIP3   OH281367   2.573   0.815   5.753  0.3036  0.4965 -0.2343
19959TIP3    H181368   2.653   0.827   5.702 -0.2522 -1.4141 -1.6485
19959TIP3    H281369   2.568   0.720   5.769 -0.0671  0.8922  2.5784
19960TIP3   OH281370   1.207   2.800  13.844 -0.3695  0.3686 -0.0245
19960TIP3    H181371   1.269   2.785  13.916  0.2522  0.3062 -0.5664
19960TIP3    H281372   1.228   2.888  13.813 -1.1828  0.7243  0.3874
19961TIP3   OH281373   2.997   0.766   1.987 -0.0135 -0.1776  0.2151
19961TIP3    H181374   3.073   0.708   1.983 -1.4087 -2.0016 -1.4335
19961TIP3    H281375   3.014   0.832   1.920 -0.2073 -1.0587 -0.7287
19962TIP3   OH281376   6.475   3.837  13.212  0.0639  0.0393  0.3293
19962TIP3    H181377   6.519   3.898  13.153 -2.9128  3.3752  1.2609
19962TIP3    H281378   6.410   3.792  13.158  1.4414 -1.5539 -0.0920
19963TIP3   OH281379   0.574   0.372  13.828 -0.0521  0.2633 -0.4159
19963TIP3    H181380   0.648   0.348  13.772 -0.3630 -0.9700 -0.3187
19963TIP3    H281381   0.511   0.412  13.770  1.4609  3.2148 -0.2128
19964TIP3   OH281382   6.576   3.306   5.449 -0.0119  0.0475  0.2993
19964TIP3    H181383   6.636   3.310   5.375  0.3188  0.8312  0.5936
19964TIP3    H281384   6.575   3.395   5.484  0.1669 -0.3981  1.4835
19965TIP3   OH281385   4.594   4.503  13.308 -0.2159 -0.8748 -0.3856
19965TIP3    H181386   4.610   4.526  13.217  2.5115 -0.1552  0.1803
19965TIP3    H281387   4.552   4.580  13.346  0.5713 -0.3364 -0.5854
19966TIP3   OH281388   5.236   3.904   5.297 -0.3278 -0.1546 -0.2985
19966TIP3    H181389   5.298   3.914   5.369  0.1153 -0.0828 -0.6776
19966TIP3    H281390   5.202   3.815   5.306 -0.1758 -0.1905 -0.0775
19967TIP3   OH281391   3.532   0.973   0.015 -0.1014 -0.0946 -0.1083
19967TIP3    H181392   3.623   0.967   0.046 -0.3924 -1.7024  0.5552
19967TIP3    H281393   3.484   1.009   0.089 -0.2070 -0.5288  0.0401
19968TIP3   OH281394   4.063   6.068   1.790  0.1056  0.0054 -0.6513
19968TIP3    H181395   4.016   5.985   1.784  0.6955 -0.4861  0.8927
19968TIP3    H281396   4.014   6.118   1.856  0.4600  0.3874 -0.6746
19969TIP3   OH281397   4.978   3.370  17.106  0.0471  0.3824  0.0442
19969TIP3    H181398   4.901   3.417  17.136 -0.0604  0.3795 -0.2220
19969TIP3    H281399   4.946   3.315  17.034  0.1273 -0.2596  0.4876
19970TIP3   OH281400   3.154   2.462   3.796 -0.2769  0.1707 -0.5029
19970TIP3    H181401   3.140   2.374   3.761  0.0218 -0.4810  0.9564
19970TIP3    H281402   3.200   2.509   3.726 -0.4735 -0.8178 -1.3105
19971TIP3   OH281403   3.009   3.912  14.751 -0.4769  0.6111  0.0488
19971TIP3    H181404   2.945   3.980  14.731 -2.8761 -1.2872  0.8978
19971TIP3    H281405   3.053   3.896  14.667 -1.8523  1.2310 -0.8332
19972TIP3   OH281406   0.644   2.313  13.183 -0.6309 -0.3685  0.7179
19972TIP3    H181407   0.699   2.333  13.107  1.2011 -1.6790  1.6396
19972TIP3    H281408   0.628   2.397  13.224 -0.2783  0.1659 -0.2047
19973TIP3   OH281409   4.049   6.729   5.769 -0.1325 -0.7265  0.0288
19973TIP3    H181410   3.994   6.669   5.820 -0.2284  0.6818  1.7056
19973TIP3    H281411   3.990   6.800   5.744  0.3807 -0.4226 -0.3347
19974TIP3   OH281412   6.717   4.123  14.350 -0.1164 -0.3099 -0.3909
19974TIP3    H181413   6.778   4.196  14.338 -0.9537  0.4038 -0.3422
19974TIP3    H281414   6.655   4.132  14.278 -1.2119  0.0212  0.5815
19975TIP3   OH281415   1.016   4.946  13.666  0.5269 -0.2261 -0.1292
19975TIP3    H181416   1.082   5.008  13.635  1.3436 -2.1080 -2.5014
19975TIP3    H281417   0.951   4.942  13.596  0.9995 -2.6858 -0.5354
19976TIP3   OH281418   5.823   6.178   5.552 -0.1555  0.0902  0.0956
19976TIP3    H181419   5.915   6.165   5.528  0.2443  1.4717  0.8377
19976TIP3    H281420   5.790   6.089   5.568  0.3867 -0.6487 -2.4380
19977TIP3   OH281421   0.390   5.564   4.306  0.3125 -0.6752  0.0088
19977TIP3    H181422   0.344   5.584   4.388  0.5463  0.5175 -0.1405
19977TIP3    H281423   0.325   5.579   4.238  1.0590  1.6365 -0.2496
19978TIP3   OH281424   4.556   2.758  17.021  0.2878  0.1962 -0.1225
19978TIP3    H181425   4.626   2.695  17.037 -0.6224 -0.8294 -0.0858
19978TIP3    H281426   4.529   2.742  16.931 -0.5608 -0.1057  0.1769
19979TIP3   OH281427   4.876   1.339  12.352  0.3816  0.6057 -0.7377
19979TIP3    H181428   4.942   1.362  12.417  2.5096  0.8327 -2.8119
19979TIP3    H281429   4.923   1.286  12.287 -1.8098 -0.3364 -1.6775
19980TIP3   OH281430   5.896   0.311  16.601  0.0429  0.3772  0.5092
19980TIP3    H181431   5.957   0.237  16.594  0.9668  1.0361  1.2599
19980TIP3    H281432   5.826   0.290  16.540  0.4765 -0.9359  0.4240
19981TIP3   OH281433   5.265   1.990   3.192  0.2111 -0.2087  0.4604
19981TIP3    H181434   5.255   1.924   3.261  1.2625  1.0905  1.9546
19981TIP3    H281435   5.215   2.065   3.225 -2.2864 -0.6708 -1.9329
19982TIP3   OH281436   1.651   0.484  11.998 -0.3934 -0.6395 -0.2639
19982TIP3    H181437   1.676   0.569  11.964 -0.1861 -0.8336 -0.6063
19982TIP3    H281438   1.632   0.431  11.920 -0.0593 -1.0452 -0.0780
19983TIP3   OH281439   3.863   6.087  11.162 -0.5266  0.0392  0.1235
19983TIP3    H181440   3.783   6.049  11.125  0.0473 -1.2721  0.1709
19983TIP3    H281441   3.933   6.058  11.103  0.3452 -1.6506  1.8752
19984TIP3   OH281442   6.363   3.731   2.949 -0.0993  0.3510  0.2646
19984TIP3    H181443   6.405   3.696   2.869  2.2111  1.0552  1.0778
19984TIP3    H281444   6.286   3.675   2.961 -0.1979 -0.1729 -2.1052
19985TIP3   OH281445   3.954   4.984  16.853  0.0870  0.0601 -0.0089
19985TIP3    H181446   3.996   4.926  16.790  0.1769  0.2338 -0.1126
19985TIP3    H281447   3.877   4.936  16.884 -0.7861  0.5428 -1.3369
19986TIP3   OH281448   6.352   4.182   1.243  0.1922 -0.2347 -0.0411
19986TIP3    H181449   6.360   4.245   1.314  1.2791  2.0355 -2.0278
19986TIP3    H281450   6.346   4.097   1.286  0.4750  1.0598  2.7285
19987TIP3   OH281451   1.799   0.769  10.880 -0.7116 -0.5783 -0.7183
19987TIP3    H181452   1.754   0.705  10.825  0.7674 -1.4784 -0.9341
19987TIP3    H281453   1.730   0.808  10.934 -2.0822 -0.2723 -2.5910
19988TIP3   OH281454   3.488   4.212   1.089 -0.3387  0.3818  0.5013
19988TIP3    H181455   3.513   4.297   1.124  1.0847  0.2994 -0.2678
19988TIP3    H281456   3.440   4.232   1.009  1.7734  0.4578 -0.7995
19989TIP3   OH281457   2.797   0.589   1.994 -0.0495 -0.6525  0.0240
19989TIP3    H181458   2.735   0.608   1.924 -1.1283 -0.4279  1.0036
19989TIP3    H281459   2.859   0.661   1.992 -0.7396 -0.0489  0.0123
19990TIP3   OH281460   6.384   3.036  11.676  0.3465  0.4109  0.0886
19990TIP3    H181461   6.292   3.059  11.663  0.2697  0.3677  0.5295
19990TIP3    H281462   6.382   2.952  11.723  0.5526  1.5643  2.3035
19991TIP3   OH281463   4.253   3.896   3.997 -0.2077 -0.1721  0.2948
19991TIP3    H181464   4.211   3.982   3.992 -1.1161 -0.6634 -1.0910
19991TIP3    H281465   4.187   3.839   4.036  0.4988 -0.2016  1.4938
19992TIP3   OH281466   5.103   1.390  15.845 -0.1751  0.5205  0.3455
19992TIP3    H181467   5.188   1.361  15.876  0.4123 -0.1392 -1.7486
19992TIP3    H281468   5.114   1.483  15.826 -0.0758  0.5521  0.5598
19993TIP3   OH281469   4.924   0.630  16.906 -0.3900  0.5150  0.3863
19993TIP3    H181470   4.852   0.683  16.941  1.6871  2.0550  2.6793
19993TIP3    H281471   4.977   0.692  16.856 -0.8957 -0.7235 -1.7983
19994TIP3   OH281472   6.560   2.731   5.385  0.1382  0.3186  0.2628
19994TIP3    H181473   6.571   2.826   5.379  0.2492  0.2606 -0.5854
19994TIP3    H281474   6.465   2.717   5.381  0.1891  0.3032 -1.3484
19995TIP3   OH281475   1.007   5.240   2.205  0.0301  0.6169  0.0908
19995TIP3    H181476   1.079   5.252   2.266  0.7880 -1.3566 -0.3605
19995TIP3    H281477   0.942   5.305   2.232  1.8486  2.3206  0.6303
19996TIP3   OH281478   2.699   5.204  15.321 -0.5163  0.2789  0.0519
19996TIP3    H181479   2.629   5.260  15.287 -0.1581  0.6138 -0.1447
19996TIP3    H281480   2.700   5.129  15.261  0.8639  1.4016 -1.4232
19997TIP3   OH281481   3.678   4.579   1.074 -0.3798  0.1462  0.0582
19997TIP3    H181482   3.765   4.595   1.036 -0.1213 -1.6817 -0.1916
19997TIP3    H281483   3.647   4.666   1.099  1.7195  0.7992  0.6028
19998TIP3   OH281484   6.560   3.933  12.795  0.0882 -0.1332 -0.5203
19998TIP3    H181485   6.499   4.006  12.791 -0.7338 -0.7374  0.5001
19998TIP3    H281486   6.611   3.949  12.875  0.4791 -0.2303 -0.7504
19999TIP3   OH281487   6.391   5.853  11.870  0.2752  0.2571  0.2728
19999TIP3    H181488   6.429   5.773  11.908  2.0769  1.4335  1.1389
19999TIP3    H281489   6.320   5.876  11.929 -1.3220 -1.5133 -0.8666
20000TIP3   OH281490   3.915   5.742  17.163  0.2775 -0.3927  0.2941
20000TIP3    H181491   3.979   5.670  17.162  0.0355 -0.6674 -2.4874
20000TIP3    H281492   3.885   5.749  17.072 -0.9607  2.1452  0.8136
20001TIP3   OH281493   3.227   5.825   0.461 -0.3183 -0.5936  0.3720
20001TIP3    H181494   3.190   5.883   0.528 -0.6527 -0.7741  0.3464
20001TIP3    H281495   3.151   5.780   0.425 -0.0766 -0.9143  0.2650
20002TIP3   OH281496   3.651   5.144   0.651  0.8524 -0.2329  0.3704
20002TIP3    H181497   3.601   5.066   0.675 -0.9779  1.0109  0.7939
20002TIP3    H281498   3.619   5.167   0.564  0.5890  0.6322  0.6822
20003TIP3   OH281499   1.317   2.674  10.523  0.1768  0.1864 -0.2867
20003TIP3    H181500   1.246   2.609  10.523 -1.0536  1.4862 -0.9063
20003TIP3    H281501   1.385   2.634  10.469  0.0216 -1.1709  0.4730
20004TIP3   OH281502   2.498   4.356   2.665 -0.0242 -0.1485 -0.3795
20004TIP3    H181503   2.438   4.387   2.597 -3.3047 -0.5313  2.1171
20004TIP3    H281504   2.493   4.423   2.734  0.7753 -1.2497  0.7870
20005TIP3   OH281505   4.681   4.412  14.960  0.4837 -0.0528  0.2747
20005TIP3    H181506   4.604   4.441  15.009 -0.4446  0.4398 -1.3827
20005TIP3    H281507   4.726   4.493  14.936 -0.2296 -0.1261 -1.4313
20006TIP3   OH281508   2.293   5.921  14.740  0.1086  0.4073 -0.1830
20006TIP3    H181509   2.213   5.955  14.700  0.6860  0.9301 -0.9258
20006TIP3    H281510   2.340   5.999  14.770  0.2855  0.0972  0.3522
20007TIP3   OH281511   1.727   0.655  14.849 -0.0335  0.0701  0.1777
20007TIP3    H181512   1.797   0.592  14.830  0.2428  0.1038  1.0487
20007TIP3    H281513   1.659   0.636  14.783  0.6223 -0.2168 -0.4304
20008TIP3   OH281514   4.460   2.095  11.631 -0.2058 -0.4507 -0.0072
20008TIP3    H181515   4.382   2.143  11.659 -0.1184 -0.7700  0.8164
20008TIP3    H281516   4.432   2.047  11.553 -0.3623  0.7190 -0.6971
20009TIP3   OH281517   5.928   1.482  14.959  0.2683 -0.6047 -0.2019
20009TIP3    H181518   5.854   1.421  14.961  0.0066 -0.2767  1.2610
20009TIP3    H281519   5.934   1.516  15.048 -0.2086  2.2704 -1.1580
20010TIP3   OH281520   4.977   3.972  11.804 -0.5447  0.0121 -0.2636
20010TIP3    H181521   4.920   4.030  11.854 -2.0851  0.6190 -2.5860
20010TIP3    H281522   4.944   3.976  11.715  1.2521 -2.0510 -1.1216
20011TIP3   OH281523   0.158   0.483   1.427  0.8588  0.7014  0.1871
20011TIP3    H181524   0.069   0.500   1.394  1.1121  0.2048 -0.8023
20011TIP3    H281525   0.159   0.521   1.515 -0.6551 -0.1392  0.6165
20012TIP3   OH281526   5.424   6.656  13.745 -0.3063 -0.0963  0.9501
20012TIP3    H181527   5.508   6.688  13.715 -1.1369  2.0288  0.7023
20012TIP3    H281528   5.444   6.574  13.790  1.6810 -0.3569 -0.3059
20013TIP3   OH281529   3.489   2.999   2.794  0.5843 -0.1465  0.2113
20013TIP3    H181530   3.398   3.028   2.803  0.6304  0.1935 -0.3725
20013TIP3    H281531   3.519   2.985   2.884 -0.4173 -1.4225  0.3871
20014TIP3   OH281532   5.607   5.460   2.924 -0.1467 -0.0725  0.4439
20014TIP3    H181533   5.603   5.428   3.014  2.0722 -0.2456  0.5392
20014TIP3    H281534   5.565   5.391   2.872  0.7615 -1.1762  1.1083
20015TIP3   OH281535   0.465   6.637  11.234 -0.2761 -0.1331 -0.1047
20015TIP3    H181536   0.551   6.631  11.192  0.0979  1.7715  0.2938
20015TIP3    H281537   0.403   6.645  11.161  0.2020  1.3899 -0.3831
20016TIP3   OH281538   6.202   4.151   1.556 -0.0798  0.4593 -0.0381
20016TIP3    H181539   6.228   4.067   1.518 -0.2690  0.5537 -0.3811
20016TIP3    H281540   6.269   4.213   1.526 -0.6106  0.6769 -0.8153
20017TIP3   OH281541   3.348   5.983  13.968 -0.1552 -0.2682  0.6004
20017TIP3    H181542   3.423   5.963  14.024  0.4554  1.1021  0.3123
20017TIP3    H281543   3.337   6.078  13.976 -1.6580 -0.4015  0.3806
20018TIP3   OH281544   3.059   1.013  12.109  0.6631  0.3358 -0.0690
20018TIP3    H181545   3.125   0.977  12.167  0.3335  1.0414  0.7695
20018TIP3    H281546   3.053   0.951  12.036  1.3495 -0.3612  0.4654
20019TIP3   OH281547   3.797   5.965  11.402 -0.8114 -0.2146 -0.2781
20019TIP3    H181548   3.852   5.991  11.329  0.6522  0.5855  1.0454
20019TIP3    H281549   3.819   5.873  11.418 -0.8000 -0.2576 -0.5336
20020TIP3   OH281550   3.412   6.285   4.797  0.2479  0.7089 -0.4115
20020TIP3    H181551   3.400   6.295   4.892 -0.6123  1.3894 -0.5727
20020TIP3    H281552   3.506   6.293   4.784  0.4515 -0.0816  0.4550
20021TIP3   OH281553   2.873   6.605  14.328 -0.5698 -0.8595 -0.0880
20021TIP3    H181554   2.781   6.604  14.351 -0.8795 -0.1130 -1.1831
20021TIP3    H281555   2.874   6.604  14.232  0.4595  1.4954 -0.1968
20022TIP3   OH281556   4.303   5.908   6.023 -0.4033 -0.1984 -0.5054
20022TIP3    H181557   4.375   5.869   6.073  0.0290 -0.7631 -1.5472
20022TIP3    H281558   4.235   5.840   6.022 -0.8636  0.2321  0.2436
20023TIP3   OH281559   4.472   1.133   2.371  0.5297 -0.3795 -0.1274
20023TIP3    H181560   4.527   1.124   2.294  0.4092 -1.7050 -0.0857
20023TIP3    H281561   4.396   1.078   2.353  0.1913 -0.1879  0.6652
20024TIP3   OH281562   5.542   3.693   1.264  0.5702  0.3713 -0.3788
20024TIP3    H181563   5.452   3.670   1.288  0.6703  0.4892  0.1214
20024TIP3    H281564   5.566   3.628   1.198  0.9170 -1.1512  1.1630
20025TIP3   OH281565   2.813   2.893   1.196 -0.5538 -0.1046 -0.3789
20025TIP3    H181566   2.806   2.975   1.246  0.1671  1.7556 -3.0769
20025TIP3    H281567   2.895   2.853   1.226 -1.3674 -0.4166  1.6357
20026TIP3   OH281568   1.182   6.559  17.111  0.1026 -0.6829 -0.2418
20026TIP3    H181569   1.102   6.591  17.069  1.2237  2.9875  0.1086
20026TIP3    H281570   1.165   6.568  17.204  0.9428  0.3076 -0.1691
20027TIP3   OH281571   3.646   0.362  12.744  0.2100 -0.3508  0.2519
20027TIP3    H181572   3.638   0.454  12.718 -0.1249 -0.3905  0.2073
20027TIP3    H281573   3.619   0.361  12.836 -0.5540 -0.5276  0.0301
20028TIP3   OH281574   1.864   0.851  12.736 -0.4294 -1.1916 -0.0127
20028TIP3    H181575   1.958   0.838  12.733 -0.4087 -1.0615  0.0800
20028TIP3    H281576   1.830   0.798  12.664 -0.2273 -0.6799 -0.4818
20029TIP3   OH281577   3.764   2.352   5.599  0.1956  0.4041 -0.0546
20029TIP3    H181578   3.807   2.436   5.614  0.1530  0.0695  2.3463
20029TIP3    H281579   3.672   2.374   5.588  0.1665  0.6923  0.6932
20030TIP3   OH281580   6.003   5.644   0.989 -0.6836  0.4486 -0.1085
20030TIP3    H181581   6.027   5.661   0.898 -1.5286 -0.3420 -0.4977
20030TIP3    H281582   5.999   5.731   1.030  0.1068  0.7812 -0.7069
20031TIP3   OH281583   3.662   5.224  12.266 -0.6120  0.4085 -0.0892
20031TIP3    H181584   3.576   5.194  12.296  0.0495 -1.4457  0.1315
20031TIP3    H281585   3.724   5.187  12.330  0.4469  0.5068 -1.0209
20032TIP3   OH281586   6.795   4.713  13.579  0.0618 -0.3803 -0.1367
20032TIP3    H181587   6.785   4.626  13.616  0.6630 -0.7086 -0.7352
20032TIP3    H281588   6.845   4.700  13.499  0.2880  0.5322 -0.1570
20033TIP3   OH281589   3.669   4.118   3.099 -0.2202 -0.3939 -0.0753
20033TIP3    H181590   3.759   4.141   3.120 -0.7143  1.4106  0.2340
20033TIP3    H281591   3.622   4.125   3.182 -0.5498 -1.9032 -0.1131
20034TIP3   OH281592   3.315   0.230  12.801  0.1381  0.3396 -0.4352
20034TIP3    H181593   3.270   0.311  12.824  0.9853  0.3760  1.2636
20034TIP3    H281594   3.329   0.236  12.706  0.0561  2.1105 -0.3609
20035TIP3   OH281595   3.474   2.709  15.597 -0.5167 -0.2443  0.2517
20035TIP3    H181596   3.501   2.665  15.516  0.1961 -0.4488  0.5999
20035TIP3    H281597   3.389   2.748  15.575 -0.1548  0.0396 -0.7252
20036TIP3   OH281598   6.564   1.723  16.916  0.5461  0.2072 -0.5768
20036TIP3    H181599   6.650   1.693  16.946 -0.6363 -1.9193  0.9409
20036TIP3    H281600   6.536   1.657  16.853 -1.0074 -0.5762  0.8520
20037TIP3   OH281601   0.708   4.853  11.749  0.4932  0.1070 -0.2003
20037TIP3    H181602   0.697   4.759  11.734  2.6759 -0.1125 -0.8278
20037TIP3    H281603   0.787   4.859  11.803  0.1593  1.5799  0.1650
20038TIP3   OH281604   3.630   3.658  16.113  0.2084 -0.0836  0.0999
20038TIP3    H181605   3.551   3.687  16.067  0.6203  3.1663  1.1944
20038TIP3    H281606   3.612   3.674  16.205  0.9614 -2.5557  0.7567
20039TIP3   OH281607   4.898   3.175  12.502 -0.1204 -0.6729  0.1954
20039TIP3    H181608   4.873   3.118  12.429  0.6480 -0.1921 -0.4491
20039TIP3    H281609   4.821   3.175  12.559 -0.4224 -1.7239 -0.1891
20040TIP3   OH281610   1.787   2.134  12.935 -0.5209 -0.4113 -0.3828
20040TIP3    H181611   1.857   2.198  12.932  0.8688 -1.8566 -0.2614
20040TIP3    H281612   1.729   2.159  12.863  0.1874  0.7284 -0.5862
20041TIP3   OH281613   6.312   3.924   2.174  0.1553 -0.7406 -1.1182
20041TIP3    H181614   6.249   3.865   2.132  0.6430 -1.7950 -0.4153
20041TIP3    H281615   6.397   3.886   2.156  0.6651  0.9100 -2.4231
20042TIP3   OH281616   4.289   4.418  12.488 -0.3393  0.1945 -0.1408
20042TIP3    H181617   4.297   4.511  12.463  0.1102  0.2342  0.1426
20042TIP3    H281618   4.211   4.415  12.542  0.1354  0.5762  0.5892
20043TIP3   OH281619   0.342   2.173  15.880  0.1893  0.0709  0.2749
20043TIP3    H181620   0.252   2.167  15.846 -0.2206  1.2176  1.0864
20043TIP3    H281621   0.379   2.086  15.866 -0.7857 -0.1887 -0.8044
20044TIP3   OH281622   1.517   4.779  15.401 -0.1694 -0.0383  0.1155
20044TIP3    H181623   1.433   4.789  15.444  0.5952 -0.8055  1.8911
20044TIP3    H281624   1.559   4.706  15.447  0.2130 -1.8262 -2.7698
20045TIP3   OH281625   5.056   4.707   3.089  0.4623  0.2451 -0.6725
20045TIP3    H181626   5.121   4.654   3.135 -0.0787  0.9772  1.0332
20045TIP3    H281627   5.095   4.794   3.085 -0.1712  0.5585 -0.1492
20046TIP3   OH281628   4.146   1.194   5.780 -0.3000 -0.1720  0.7204
20046TIP3    H181629   4.132   1.288   5.794 -1.5909 -0.4892  1.7127
20046TIP3    H281630   4.128   1.180   5.687 -1.7909  0.2880  0.9258
20047TIP3   OH281631   6.807   3.399   2.055  0.7134  0.1195 -0.5786
20047TIP3    H181632   6.803   3.493   2.037  0.1900 -0.1326 -1.8731
20047TIP3    H281633   6.727   3.364   2.018  1.1957 -0.9314 -0.6613
20048TIP3   OH281634   2.265   0.116  12.438  0.3066  0.1812 -0.4165
20048TIP3    H181635   2.211   0.186  12.475  1.3915  0.8157  0.0252
20048TIP3    H281636   2.346   0.120  12.489  0.2058 -1.7494 -0.0261
20049TIP3   OH281637   1.742   5.318  15.273 -0.2596 -0.9548  0.0546
20049TIP3    H181638   1.702   5.232  15.263  0.7527 -1.3131 -1.2611
20049TIP3    H281639   1.835   5.300  15.288 -0.0586 -0.1073 -0.1015
20050TIP3   OH281640   0.402   3.663   2.143 -0.1952  0.6536  0.1683
20050TIP3    H181641   0.387   3.586   2.087  0.3077 -0.0954  1.0404
20050TIP3    H281642   0.493   3.687   2.127 -0.1945  0.7396  0.3017
20051TIP3   OH281643   1.452   1.715  12.515 -0.0973  0.1739  0.2927
20051TIP3    H181644   1.398   1.759  12.581 -2.4510 -1.0170 -0.7559
20051TIP3    H281645   1.425   1.624  12.519 -0.9808  0.2008 -2.8847
20052TIP3   OH281646   2.430   4.948  16.963 -0.2491  0.7001  0.3910
20052TIP3    H181647   2.411   5.040  16.977  0.3928  0.6153  2.0882
20052TIP3    H281648   2.418   4.907  17.049  0.8966 -0.5244  0.0138
20053TIP3   OH281649   3.033   5.358  10.770  0.1143  0.0777  0.4819
20053TIP3    H181650   3.044   5.319  10.683  0.0053  0.0185  0.4944
20053TIP3    H281651   2.947   5.326  10.800  1.8006 -3.3098  2.3344
20054TIP3   OH281652   1.042   1.198   2.788  0.0582 -0.1646 -0.0127
20054TIP3    H181653   0.998   1.256   2.850  2.2090  0.5471  0.9645
20054TIP3    H281654   1.129   1.185   2.826  0.5803 -1.7910 -1.6395
20055TIP3   OH281655   5.969   5.237   1.855  0.0102 -0.8116  0.4225
20055TIP3    H181656   6.032   5.291   1.904 -2.5776  1.3255  1.6356
20055TIP3    H281657   5.949   5.164   1.914  0.1490 -0.6219  0.7064
20056TIP3   OH281658   5.552   6.528   1.112 -0.1407 -0.5741 -0.3361
20056TIP3    H181659   5.617   6.507   1.178  0.3671  0.4664 -0.4769
20056TIP3    H281660   5.601   6.532   1.030 -0.9325 -2.8901 -1.0021
20057TIP3   OH281661   1.281   5.608  15.659 -0.3820  0.1068  0.0834
20057TIP3    H181662   1.351   5.659  15.619 -1.0180  2.6174  1.8816
20057TIP3    H281663   1.217   5.674  15.687 -1.3997 -1.7051  2.3538
20058TIP3   OH281664   5.988   2.553   3.561 -0.0030 -0.0636 -0.3457
20058TIP3    H181665   6.044   2.477   3.550  1.4369  1.1671 -2.1772
20058TIP3    H281666   6.045   2.619   3.602 -0.5718  0.6848 -0.7260
20059TIP3   OH281667   5.421   6.404  16.681  0.3047 -0.4011  0.1652
20059TIP3    H181668   5.362   6.378  16.752 -0.7113  0.4105 -0.3529
20059TIP3    H281669   5.369   6.389  16.602  0.9657 -0.0956 -0.3279
20060TIP3   OH281670   5.446   3.304   4.820  0.2457 -0.0124  0.6789
20060TIP3    H181671   5.415   3.251   4.893 -0.0844  0.4913  0.9149
20060TIP3    H281672   5.374   3.366   4.803 -0.9002 -1.8594 -1.8657
20061TIP3   OH281673   0.313   0.099  12.216  0.0306  0.3198  0.3826
20061TIP3    H181674   0.242   0.147  12.173  1.0555  2.0628  0.5019
20061TIP3    H281675   0.375   0.080  12.146 -0.0779 -0.2771  0.4480
20062TIP3   OH281676   2.117   0.173   3.825  0.2901  0.6966 -0.1298
20062TIP3    H181677   2.114   0.101   3.761  0.5834 -3.0607  3.6267
20062TIP3    H281678   2.025   0.196   3.840  0.1460  0.6587 -0.9122
20063TIP3   OH281679   4.172   4.442  15.394  0.1800  0.1069 -0.3028
20063TIP3    H181680   4.083   4.460  15.364 -0.7475 -2.8175  0.3962
20063TIP3    H281681   4.184   4.498  15.471 -1.4574 -0.2237  0.2186
20064TIP3   OH281682   4.411   3.573   4.436  0.5307  0.5982 -0.3570
20064TIP3    H181683   4.418   3.603   4.346  0.4212  0.5545 -0.3804
20064TIP3    H281684   4.337   3.622   4.472  0.4605  0.4836 -0.3444
20065TIP3   OH281685   3.949   1.324   3.986 -0.1244  0.6429 -0.0849
20065TIP3    H181686   3.870   1.276   4.012  0.3148 -0.5843 -0.9059
20065TIP3    H281687   3.917   1.396   3.932 -0.7629  0.8693  0.5957
20066TIP3   OH281688   2.179   4.775   4.568 -0.2678  0.3150  0.0033
20066TIP3    H181689   2.247   4.819   4.516 -1.3380 -0.0039 -1.7576
20066TIP3    H281690   2.216   4.690   4.590 -0.1049  0.1112 -1.0158
20067TIP3   OH281691   1.958   0.498  14.791  0.4232  0.1915 -0.6021
20067TIP3    H181692   1.953   0.549  14.710 -0.0324  0.1924 -0.5793
20067TIP3    H281693   2.022   0.544  14.845  0.4911  0.3731 -0.8371
20068TIP3   OH281694   4.572   5.291  15.829  0.3348  0.5012  0.5817
20068TIP3    H181695   4.566   5.379  15.865  0.5452  0.6886  0.1766
20068TIP3    H281696   4.651   5.293  15.775  0.0424  0.2221  0.1377
20069TIP3   OH281697   3.133   0.292  16.633 -0.2417  0.5536 -0.0460
20069TIP3    H181698   3.205   0.265  16.689 -0.0401  0.4602 -0.3497
20069TIP3    H281699   3.092   0.365  16.680 -0.4792  0.0586  0.5375
20070TIP3   OH281700   2.573   1.913   3.822  0.0545 -0.4643  0.3315
20070TIP3    H181701   2.574   1.914   3.726  2.6721 -2.6012  0.2190
20070TIP3    H281702   2.571   2.006   3.846  0.0699  0.1577 -1.7938
20071TIP3   OH281703   3.270   4.672   4.900  0.0840  0.2621 -0.4176
20071TIP3    H181704   3.179   4.704   4.898  0.0412  0.1539 -0.1041
20071TIP3    H281705   3.273   4.611   4.973  0.0893 -0.6939 -1.1991
20072TIP3   OH281706   5.716   6.261  13.558 -0.1054 -1.3200 -0.5602
20072TIP3    H181707   5.708   6.216  13.474  0.3170  0.7458 -1.7517
20072TIP3    H281708   5.810   6.279  13.567  0.0142 -2.4050  0.8966
20073TIP3   OH281709   2.707   5.987  17.250 -0.3035 -0.1341  0.6479
20073TIP3    H181710   2.715   6.076  17.285  1.3097 -0.7709  2.0537
20073TIP3    H281711   2.770   5.935  17.301 -1.0725 -2.0584 -0.2404
20074TIP3   OH281712   4.409   0.584  15.871  0.5682 -0.1658  0.2802
20074TIP3    H181713   4.412   0.605  15.964  0.5435 -2.1457  0.7697
20074TIP3    H281714   4.471   0.513  15.860  1.3497  0.7038 -1.4485
20075TIP3   OH281715   1.360   6.559  13.989  0.1234  0.4943  0.1377
20075TIP3    H181716   1.427   6.608  14.036  1.0025 -0.5838  0.0670
20075TIP3    H281717   1.408   6.513  13.920 -0.4458 -1.3432  0.9060
20076TIP3   OH281718   2.318   3.888   6.812  0.5964  0.6191 -0.0782
20076TIP3    H181719   2.224   3.898   6.825  0.4481 -0.2932 -0.3461
20076TIP3    H281720   2.327   3.806   6.764  1.4912  1.0539 -0.6807
20077TIP3   OH281721   1.009   6.671   0.682 -0.1951  0.6174 -0.4462
20077TIP3    H181722   0.942   6.609   0.711 -0.5843  1.1405 -0.1989
20077TIP3    H281723   1.090   6.641   0.723 -0.2432 -0.1147 -0.8760
20078TIP3   OH281724   1.488   5.537  14.214 -0.5930  0.7533 -0.2773
20078TIP3    H181725   1.406   5.510  14.173 -1.6575  2.3953  0.6578
20078TIP3    H281726   1.461   5.591  14.289  1.2892 -0.8050  1.6493
20079TIP3   OH281727   0.897   2.451  14.746 -0.4074 -0.2201  0.1479
20079TIP3    H181728   0.820   2.482  14.698  0.1158  1.7244  0.4891
20079TIP3    H281729   0.967   2.449  14.681  0.6313  3.6923  0.9320
20080TIP3   OH281730   6.747   1.072   4.984 -0.0170 -0.0884  0.3670
20080TIP3    H181731   6.799   1.145   5.017 -1.6713  0.9401  0.7755
20080TIP3    H281732   6.750   1.007   5.054  2.0891 -0.8209 -0.2956
20081TIP3   OH281733   6.800   2.510   0.402 -0.3358  0.2521  0.3050
20081TIP3    H181734   6.720   2.471   0.366  0.3431  0.1085 -1.0781
20081TIP3    H281735   6.849   2.435   0.437  0.3726 -0.0287 -1.1993
20082TIP3   OH281736   3.322   6.287   5.052  0.4818 -0.5467  0.0515
20082TIP3    H181737   3.278   6.206   5.077  0.6787 -0.7317 -0.1875
20082TIP3    H281738   3.311   6.345   5.127 -2.0403  0.1914 -0.7837
20083TIP3   OH281739   1.349   3.359  13.366 -0.0293  0.1881  0.1124
20083TIP3    H181740   1.401   3.280  13.350  0.2554  0.3452  0.2385
20083TIP3    H281741   1.302   3.375  13.284 -0.4617 -0.3826  0.2465
20084TIP3   OH281742   3.396   6.746  14.565  0.3712  0.1048  0.2002
20084TIP3    H181743   3.356   6.782  14.644 -1.3538  0.6610 -0.8821
20084TIP3    H281744   3.394   6.651  14.579  0.2238  0.2046  0.8837
20085TIP3   OH281745   3.259   4.057   6.155  0.2060  0.6536  0.3414
20085TIP3    H181746   3.192   3.994   6.182  0.0509  0.6232 -0.0950
20085TIP3    H281747   3.269   4.116   6.230  1.0537 -0.4561  1.1306
20086TIP3   OH281748   3.779   5.286  14.862  0.2553  0.0447 -0.2915
20086TIP3    H181749   3.798   5.365  14.913 -0.4459  0.1226 -0.1461
20086TIP3    H281750   3.776   5.216  14.928 -1.4397  0.2657 -0.0926
20087TIP3   OH281751   3.954   4.920  13.671  0.1531 -0.1684  0.2057
20087TIP3    H181752   3.881   4.863  13.645  0.4170 -0.4074 -0.0173
20087TIP3    H281753   4.033   4.872  13.644  0.3515  1.1521 -1.7347
20088TIP3   OH281754   3.548   3.577   2.355  0.6730  0.6479  0.0509
20088TIP3    H181755   3.539   3.485   2.333 -0.4773  1.1211 -1.6822
20088TIP3    H281756   3.501   3.587   2.438 -0.8607 -0.0062 -0.7033
20089TIP3   OH281757   2.045   0.864   2.235  0.2477  0.4856  0.3183
20089TIP3    H181758   2.069   0.772   2.249  0.9968  0.4447 -1.0777
20089TIP3    H281759   1.956   0.871   2.270  0.8952 -0.2712  2.2405
20090TIP3   OH281760   0.255   3.629  17.236 -0.1417  0.1186 -0.4335
20090TIP3    H181761   0.313   3.592  17.170  0.4674 -1.5155  0.9353
20090TIP3    H281762   0.304   3.622  17.318 -1.7222 -0.0330  0.5486
20091TIP3   OH281763   2.733   6.209  14.702 -0.1074  0.3057 -0.6302
20091TIP3    H181764   2.728   6.277  14.769 -0.7696  1.0647 -1.4183
20091TIP3    H281765   2.648   6.166  14.705  0.8567 -1.6296  0.9787
20092TIP3   OH281766   1.212   4.539  13.950 -0.2874 -0.6378 -0.6891
20092TIP3    H181767   1.171   4.483  13.884  1.3181  0.2434 -2.5317
20092TIP3    H281768   1.219   4.625  13.908 -1.6071  0.7136  1.6272
20093TIP3   OH281769   6.229   0.832  12.747 -0.0354 -0.0928  0.8931
20093TIP3    H181770   6.282   0.906  12.775 -1.1406  1.2398 -0.3285
20093TIP3    H281771   6.242   0.766  12.814  2.7690  0.3146  0.8727
20094TIP3   OH281772   5.804   3.779   4.561 -0.0803 -0.0215  0.5201
20094TIP3    H181773   5.824   3.820   4.477 -3.1390  1.0940  0.1836
20094TIP3    H281774   5.887   3.775   4.608  1.3263  1.2725 -1.7303
20095TIP3   OH281775   5.801   2.228   1.189  0.4789  0.6344  0.2412
20095TIP3    H181776   5.857   2.295   1.150  2.2643  0.0685  1.6824
20095TIP3    H281777   5.718   2.273   1.207  1.3077  2.2007  0.3117
20096TIP3   OH281778   5.581   5.063   5.488 -0.1224 -0.0947 -0.2736
20096TIP3    H181779   5.490   5.091   5.499  0.3007  1.7832 -1.2494
20096TIP3    H281780   5.608   5.036   5.576 -1.3863  0.0304  0.1779
20097TIP3   OH281781   2.916   1.441   3.813 -0.3835  0.2759 -0.0305
20097TIP3    H181782   3.004   1.447   3.774 -0.3764  0.3964  0.0042
20097TIP3    H281783   2.867   1.385   3.753 -0.2637  0.1534 -0.0164
20098TIP3   OH281784   4.909   3.884   0.798 -0.1754 -0.0655  0.1588
20098TIP3    H181785   4.963   3.857   0.873  0.7441  0.7534 -0.1849
20098TIP3    H281786   4.914   3.980   0.799 -0.9059 -0.0189 -0.4126
20099TIP3   OH281787   4.103   6.198   0.881  0.1488 -0.0169  0.1656
20099TIP3    H181788   4.110   6.146   0.961 -0.2292 -1.1764 -0.5295
20099TIP3    H281789   4.174   6.166   0.826 -0.3796 -0.1263 -0.4536
20100TIP3   OH281790   5.084   2.841   0.376  0.4513 -0.2376 -0.0590
20100TIP3    H181791   5.103   2.921   0.327 -1.0027  0.8543  1.0658
20100TIP3    H281792   5.164   2.823   0.424  0.7919  0.5557 -0.3099
20101TIP3   OH281793   2.525   1.903  11.318  0.0296 -0.0316  0.1837
20101TIP3    H181794   2.519   1.848  11.397 -0.1020  1.1375  1.0195
20101TIP3    H281795   2.607   1.877  11.277  1.4181  1.0860  2.0983
20102TIP3   OH281796   0.846   3.118   5.810  0.2451 -0.0563  0.5734
20102TIP3    H181797   0.801   3.199   5.784  0.4111 -0.0020  0.4562
20102TIP3    H281798   0.780   3.050   5.798  0.2086  0.0171  0.3577
20103TIP3   OH281799   2.469   6.097   5.785 -0.3661  0.3910  0.0989
20103TIP3    H181800   2.396   6.136   5.834 -0.3996  0.1537  0.2377
20103TIP3    H281801   2.441   6.101   5.694 -0.3734  0.6882  0.1106
20104TIP3   OH281802   6.599   3.855  14.821  0.7208  0.5231  0.3987
20104TIP3    H181803   6.579   3.947  14.807  0.0851  0.4817  0.9358
20104TIP3    H281804   6.521   3.821  14.865  0.7309 -0.3939 -0.2810
20105TIP3   OH281805   1.906   0.024   4.799 -0.3115 -0.2108  0.0797
20105TIP3    H181806   1.821   0.001   4.836 -0.4356 -1.8155 -1.0596
20105TIP3    H281807   1.970  -0.012   4.860 -0.5073 -1.8548 -0.6226
20106TIP3   OH281808   1.993   5.475   2.917  0.4407  0.8067  0.6384
20106TIP3    H181809   2.070   5.456   2.970 -0.0014 -0.0265  1.0033
20106TIP3    H281810   1.944   5.539   2.968  0.1371  0.1890  1.1265
20107TIP3   OH281811   0.346   2.915   3.276 -0.0368  0.7570 -0.7869
20107TIP3    H181812   0.284   2.866   3.222  0.5418 -0.8530 -0.0454
20107TIP3    H281813   0.291   2.979   3.321 -0.8276  0.7766 -1.7328
20108TIP3   OH281814   6.784   0.788  15.997 -0.2898  0.2346 -0.1099
20108TIP3    H181815   6.740   0.703  15.996 -0.9874  0.5082  2.0746
20108TIP3    H281816   6.850   0.781  16.065 -2.3987  2.2934  2.3961
20109TIP3   OH281817   0.134   4.755   2.682 -0.1543  0.0157 -0.6714
20109TIP3    H181818   0.058   4.784   2.733  0.8689  0.5631  0.6062
20109TIP3    H281819   0.209   4.779   2.736  0.9476 -0.2827 -2.0225
20110TIP3   OH281820   6.212   1.265  13.530  0.2021  0.4284 -0.0169
20110TIP3    H181821   6.239   1.341  13.582  0.8224 -0.2375  0.6564
20110TIP3    H281822   6.123   1.286  13.503  0.4229  1.4742  0.0102
20111TIP3   OH281823   5.761   1.281  13.342 -0.2379  0.0389  0.2335
20111TIP3    H181824   5.720   1.217  13.283  0.5914 -1.3975  1.1652
20111TIP3    H281825   5.687   1.328  13.380 -0.8955 -0.5500 -0.2682
20112TIP3   OH281826   0.625   5.260  12.891  0.1077  0.3763 -0.5203
20112TIP3    H181827   0.641   5.228  12.980 -0.3134  2.5578  0.3964
20112TIP3    H281828   0.576   5.190  12.849  0.1656 -0.6315  1.0190
20113TIP3   OH281829   6.281   2.325   5.692  0.1539 -0.9790 -0.2160
20113TIP3    H181830   6.332   2.402   5.717 -2.0930  0.2726  0.9040
20113TIP3    H281831   6.244   2.347   5.607  1.8858 -2.1485 -1.3310
20114TIP3   OH281832   3.852   4.219   2.783  0.6162  0.2243  0.5971
20114TIP3    H181833   3.785   4.150   2.785 -0.9286  1.6585  0.4373
20114TIP3    H281834   3.805   4.298   2.757  2.2293  1.4762  1.2763
20115TIP3   OH281835   4.444   6.726  13.422 -0.4337  0.9142 -0.3235
20115TIP3    H181836   4.531   6.689  13.437  0.2921  2.4415 -0.6456
20115TIP3    H281837   4.453   6.778  13.342 -1.8978  0.3298 -0.8952
20116TIP3   OH281838   2.068   5.355   1.116 -0.3628 -0.3258  0.3997
20116TIP3    H181839   1.994   5.356   1.054  0.0503  1.9627 -0.1260
20116TIP3    H281840   2.058   5.272   1.163 -2.7164 -0.5164 -0.3110
20117TIP3   OH281841   6.542   3.175  15.905 -0.1187  0.3915 -0.1208
20117TIP3    H181842   6.563   3.086  15.932  0.8942  0.4006 -0.8142
20117TIP3    H281843   6.488   3.209  15.975 -0.7186 -0.8460  0.0420
20118TIP3   OH281844   4.094   5.533  10.928  0.0924  0.0833 -0.6390
20118TIP3    H181845   4.145   5.565  10.854  0.7972 -0.9927 -0.6297
20118TIP3    H281846   4.158   5.511  10.995 -0.5403  1.1459  0.3619
20119TIP3   OH281847   3.841   5.493  16.769 -0.1973  0.1143 -0.4931
20119TIP3    H181848   3.845   5.428  16.840 -3.7975 -0.1062 -0.2918
20119TIP3    H281849   3.884   5.450  16.695 -1.3096 -2.0282  0.0150
20120TIP3   OH281850   0.209   2.658  12.103 -0.1305 -0.3859  0.3695
20120TIP3    H181851   0.147   2.603  12.152 -0.8173 -0.1899 -0.2733
20120TIP3    H281852   0.169   2.744  12.102  0.6791  0.0120  0.8773
20121TIP3   OH281853   5.301   1.396  15.300  0.4914  0.1604 -0.3155
20121TIP3    H181854   5.394   1.377  15.305  0.6399  0.6267 -1.0936
20121TIP3    H281855   5.273   1.405  15.391  1.1181 -0.3788 -0.0644
20122TIP3   OH281856   3.680   5.748   1.672  0.1950 -0.5144  0.4762
20122TIP3    H181857   3.700   5.720   1.583  1.1562 -0.6292  0.7163
20122TIP3    H281858   3.760   5.791   1.702  0.0824 -0.9660  1.4698
20123TIP3   OH281859   1.565   5.804   6.658 -0.6769  0.0590  0.6879
20123TIP3    H181860   1.516   5.834   6.735  0.4623  0.9751  1.0828
20123TIP3    H281861   1.613   5.881   6.629 -0.0998 -0.6110 -0.1847
20124TIP3   OH281862   4.933   0.695   1.868 -0.0887  0.0751 -0.2354
20124TIP3    H181863   4.864   0.756   1.843 -1.5309 -0.2224  2.6100
20124TIP3    H281864   4.912   0.615   1.820  0.2134  0.9397 -1.8726
20125TIP3   OH281865   5.656   4.218  16.035 -0.4414 -0.0754  0.2498
20125TIP3    H181866   5.728   4.164  16.067 -0.8450 -1.4648 -1.0658
20125TIP3    H281867   5.688   4.308  16.043  1.4336 -0.6513 -0.2861
20126TIP3   OH281868   5.714   0.182   5.615 -0.7036 -0.1622 -0.5961
20126TIP3    H181869   5.628   0.215   5.641 -1.8319 -1.5405 -2.3416
20126TIP3    H281870   5.733   0.113   5.679 -1.4628 -0.6518 -0.8803
20127TIP3   OH281871   5.580   1.803   3.580 -0.4531  0.2069 -0.9785
20127TIP3    H181872   5.520   1.833   3.649 -1.0291  2.0784 -2.2350
20127TIP3    H281873   5.570   1.707   3.581 -1.2550  0.2576  0.7885
20128TIP3   OH281874   5.568   5.180   0.252 -0.0609 -0.2700 -0.1903
20128TIP3    H181875   5.611   5.207   0.171 -1.9123 -1.3762 -1.6030
20128TIP3    H281876   5.626   5.114   0.289  0.0641 -0.8718 -1.4320
20129TIP3   OH281877   2.800   3.513  12.985 -0.4024 -0.0262  0.3893
20129TIP3    H181878   2.857   3.484  13.056  0.8316 -0.7770 -0.8479
20129TIP3    H281879   2.860   3.544  12.917 -1.5452  0.7527 -0.3067
20130TIP3   OH281880   5.754   4.053  15.473 -0.2851 -0.2740 -0.1139
20130TIP3    H181881   5.718   4.102  15.399  1.0266 -0.2818 -0.7826
20130TIP3    H281882   5.844   4.084  15.481 -0.5946  0.2261  1.9330
20131TIP3   OH281883   3.047   5.057  13.878 -0.1839 -0.0031  0.7449
20131TIP3    H181884   3.059   5.002  13.801 -0.0265  0.1917  0.6300
20131TIP3    H281885   3.135   5.069  13.913 -0.0462  1.2020  0.0541
20132TIP3   OH281886   4.291   2.811  16.031 -0.2213  0.6929  0.4939
20132TIP3    H181887   4.318   2.810  15.939  1.9283 -2.2772  1.0125
20132TIP3    H281888   4.360   2.861  16.075 -1.0042  1.7126  0.6087
20133TIP3   OH281889   0.997   3.485   5.652 -0.6602 -0.2708 -0.2304
20133TIP3    H181890   0.966   3.559   5.704 -1.0309 -0.4991 -0.1262
20133TIP3    H281891   0.926   3.422   5.656  0.1465 -1.1540  0.7196
20134TIP3   OH281892   0.644   4.085   5.083  0.6001 -0.1518 -0.3826
20134TIP3    H181893   0.719   4.139   5.058 -0.6290  0.8340 -2.0858
20134TIP3    H281894   0.578   4.147   5.114  0.4846 -1.0181  1.2365
20135TIP3   OH281895   4.184   1.268  16.813  0.2090 -0.2042 -0.5995
20135TIP3    H181896   4.241   1.279  16.889 -1.3988 -0.1152  0.6322
20135TIP3    H281897   4.118   1.205  16.841 -0.2032 -0.4558 -2.0648
20136TIP3   OH281898   6.327   5.983   5.686  0.2906  0.2660 -0.4447
20136TIP3    H181899   6.364   6.023   5.764 -0.4807  1.4336 -0.6671
20136TIP3    H281900   6.233   5.977   5.703  0.2267 -0.2557 -0.9461
20137TIP3   OH281901   4.883   1.714   4.118 -0.1638 -0.0791  0.5363
20137TIP3    H181902   4.941   1.772   4.069 -0.5962  0.5627  0.7686
20137TIP3    H281903   4.890   1.630   4.074 -0.5371  0.4772 -0.6393
20138TIP3   OH281904   2.270   3.936   3.234  0.0773  0.6876 -0.3609
20138TIP3    H181905   2.247   3.848   3.204 -1.7445  1.1033 -0.2950
20138TIP3    H281906   2.320   3.922   3.315  0.0349 -0.2822 -0.4957
20139TIP3   OH281907   0.738   5.363   2.880  0.1903  0.1987  0.4885
20139TIP3    H181908   0.831   5.384   2.876 -0.1616  1.8850 -3.3450
20139TIP3    H281909   0.734   5.268   2.870  1.6071  0.3887 -3.7846
20140TIP3   OH281910   3.430   4.885  13.880  0.2384 -0.4636  0.6104
20140TIP3    H181911   3.359   4.857  13.938  0.8404  0.6850  1.9671
20140TIP3    H281912   3.410   4.976  13.859 -0.1842 -0.9664 -1.3878
20141TIP3   OH281913   5.738   6.188  11.845  0.7431  0.0594  0.1374
20141TIP3    H181914   5.675   6.218  11.779 -0.1345 -0.8772  0.5167
20141TIP3    H281915   5.813   6.156  11.794  0.9610  1.2418 -0.3190
20142TIP3   OH281916   0.743   5.131   5.190  0.3362  0.6109  0.1521
20142TIP3    H181917   0.794   5.124   5.110  2.6205  0.4037  1.5265
20142TIP3    H281918   0.771   5.057   5.243 -1.9491  0.0937  0.7558
20143TIP3   OH281919   1.250   1.962  12.521 -0.1923  0.2801  0.0342
20143TIP3    H181920   1.245   1.903  12.597  0.5037 -1.6370 -1.3318
20143TIP3    H281921   1.179   1.932  12.464  0.2275  0.7212 -0.7227
20144TIP3   OH281922   4.036   1.295   4.252  0.0198 -0.0368  0.2696
20144TIP3    H181923   3.980   1.221   4.276 -0.8946  0.8818  1.0020
20144TIP3    H281924   4.031   1.299   4.157 -0.4187 -0.5362  0.2706
20145TIP3   OH281925   1.880   3.082  13.293  0.1840  0.0220 -0.6530
20145TIP3    H181926   1.893   3.170  13.329 -2.0947  0.3536 -0.4660
20145TIP3    H281927   1.961   3.063  13.247  1.8683  1.0416  1.6417
20146TIP3   OH281928   1.024   6.434  10.763 -0.0932  0.3564 -0.2934
20146TIP3    H181929   1.013   6.526  10.787 -0.1332  0.6855 -1.5059
20146TIP3    H281930   1.118   6.425  10.746 -0.3394  0.6293 -1.8947
20147TIP3   OH281931   0.480   0.447  15.990 -0.5874  0.1321 -0.2161
20147TIP3    H181932   0.489   0.443  16.085 -0.6406  2.2713 -0.0901
20147TIP3    H281933   0.571   0.450  15.958 -0.5902  0.7918 -0.1575
20148TIP3   OH281934   5.414   1.929   4.224 -0.1265  0.3774 -0.2091
20148TIP3    H181935   5.416   1.985   4.147  0.3147  1.6252  0.6798
20148TIP3    H281936   5.321   1.923   4.248 -0.3205 -0.4543 -1.1318
20149TIP3   OH281937   2.944   1.198   0.145 -0.2919  0.2259 -0.8370
20149TIP3    H181938   2.855   1.233   0.132 -0.3845 -0.5140 -2.3123
20149TIP3    H281939   2.934   1.136   0.218 -1.3378 -0.9618 -1.9275
20150TIP3   OH281940   6.094   3.406  17.112 -0.3656 -0.0539 -0.4255
20150TIP3    H181941   6.073   3.497  17.089 -2.2073 -0.4938 -0.6560
20150TIP3    H281942   6.064   3.397  17.202  0.6427 -0.2057 -0.0939
20151TIP3   OH281943   3.436   4.972  16.995  0.1829 -0.6170 -0.4497
20151TIP3    H181944   3.366   4.981  16.931 -0.5715  0.2845  0.4758
20151TIP3    H281945   3.503   5.035  16.965 -0.7976  0.8969  0.4254
20152TIP3   OH281946   6.601   0.096  15.224 -0.0905  0.5964 -0.4743
20152TIP3    H181947   6.654   0.104  15.144  0.2381 -1.2683 -0.4723
20152TIP3    H281948   6.511   0.106  15.193  0.1148  1.6049 -0.7985
20153TIP3   OH281949   6.370   6.796  12.003  0.0650 -0.5311  0.4044
20153TIP3    H181950   6.417   6.861  12.055 -0.8695 -0.7305  1.5404
20153TIP3    H281951   6.386   6.822  11.913 -0.3920  1.3660  0.8296
20154TIP3   OH281952   1.458   5.998   3.305 -0.0747 -0.3620 -0.4681
20154TIP3    H181953   1.409   6.062   3.254  0.3797  0.8461  0.5305
20154TIP3    H281954   1.404   5.919   3.304 -0.4970 -0.0802 -2.0083
20155TIP3   OH281955   5.260   5.584   4.203 -0.2097 -0.0338  0.1353
20155TIP3    H181956   5.275   5.586   4.297 -0.2920 -2.1562  0.2439
20155TIP3    H281957   5.320   5.651   4.168  1.3751 -0.6492  1.5244
20156TIP3   OH281958   2.429   5.305   0.858 -1.1100  0.2531 -0.1209
20156TIP3    H181959   2.457   5.359   0.933  0.2435 -1.7347  0.8949
20156TIP3    H281960   2.334   5.312   0.858 -1.0695  1.2780  1.0247
20157TIP3   OH281961   4.125   1.655  15.532 -0.3022  0.3564  0.5404
20157TIP3    H181962   4.088   1.702  15.458  0.7061 -0.0277 -0.2369
20157TIP3    H281963   4.177   1.585  15.492 -2.0078 -1.6551  1.6569
20158TIP3   OH281964   6.111   4.810   0.403  0.2688 -0.4533  0.4097
20158TIP3    H181965   6.198   4.801   0.363 -0.3873 -1.3605 -0.8760
20158TIP3    H281966   6.062   4.865   0.343 -0.1294 -0.1287  1.0220
20159TIP3   OH281967   0.976   3.012  16.767 -0.2352  0.2450  0.3831
20159TIP3    H181968   0.944   2.959  16.840  2.1270 -2.0945 -0.1368
20159TIP3    H281969   1.050   3.060  16.803  2.2444 -2.4451 -0.7811
20160TIP3   OH281970   1.666   5.813  14.329 -0.0254  0.2670  0.4114
20160TIP3    H181971   1.682   5.819  14.235 -0.4658  2.2974  0.4275
20160TIP3    H281972   1.630   5.725  14.341 -0.4098  0.1327 -1.3898
20161TIP3   OH281973   3.548   0.746   3.365 -0.0686 -0.2280 -0.8146
20161TIP3    H181974   3.498   0.665   3.352 -0.2299 -0.5729  1.5286
20161TIP3    H281975   3.639   0.717   3.368 -0.0453 -0.1737 -0.9823
20162TIP3   OH281976   1.200   6.186  12.202  0.0450 -0.3275 -0.8892
20162TIP3    H181977   1.275   6.239  12.230 -0.7888  1.8250 -2.4611
20162TIP3    H281978   1.128   6.248  12.197 -2.3387 -2.5539  1.9157
20163TIP3   OH281979   6.648   1.406   2.848 -0.0097 -0.9792  0.7214
20163TIP3    H181980   6.696   1.407   2.930  0.0699  0.1015  0.6734
20163TIP3    H281981   6.557   1.386   2.873 -0.2216  0.5155  1.2193
20164TIP3   OH281982   4.464   2.882  16.237  0.5283 -0.2344 -0.1771
20164TIP3    H181983   4.529   2.823  16.275  1.5611  0.1537 -1.3046
20164TIP3    H281984   4.430   2.932  16.311  1.3547 -0.5952  0.4534
20165TIP3   OH281985   5.099   2.235  15.102 -0.7397  0.0502  0.7006
20165TIP3    H181986   5.046   2.311  15.128 -1.0122  0.3511 -0.6375
20165TIP3    H281987   5.185   2.253  15.139 -1.0962  0.4560  1.3565
20166TIP3   OH281988   5.439   4.464   0.359 -0.4268 -0.3881 -0.1865
20166TIP3    H181989   5.498   4.540   0.354  0.2580 -0.9215 -0.3160
20166TIP3    H281990   5.492   4.395   0.399 -1.7033 -0.1664  2.0949
20167TIP3   OH281991   0.838   6.048   5.619 -0.8289  0.1180 -0.5186
20167TIP3    H181992   0.832   6.102   5.540  0.8563 -0.4279 -1.0516
20167TIP3    H281993   0.872   5.964   5.588 -0.3923 -0.1954  0.7553
20168TIP3   OH281994   3.026   0.384   1.246 -0.4139  0.4805  0.3158
20168TIP3    H181995   3.015   0.356   1.155 -3.5031 -0.1592  0.7619
20168TIP3    H281996   3.021   0.303   1.297 -1.2038  1.0368  1.1619
20169TIP3   OH281997   5.430   3.848   3.078  0.2867 -0.1962  0.5178
20169TIP3    H181998   5.352   3.901   3.061  0.4315  0.9270  2.9186
20169TIP3    H281999   5.503   3.911   3.073  0.9987 -1.0914 -0.9810
20170TIP3   OH282000   3.178   0.040   3.714 -0.3958 -0.2290  0.3959
20170TIP3    H182001   3.086   0.015   3.712 -1.0249  1.8740  0.8737
20170TIP3    H282002   3.210   0.003   3.797 -1.3204  0.5932  1.1507
20171TIP3   OH282003   4.629   1.054  15.309  0.4804 -0.0438  0.1582
20171TIP3    H182004   4.673   1.098  15.236  1.8535 -1.5877  0.0241
20171TIP3    H282005   4.681   1.077  15.386 -0.9701  1.5904  0.7297
20172TIP3   OH282006   5.310   0.587  11.995  0.2975 -0.5300  0.3312
20172TIP3    H182007   5.292   0.497  12.025  2.6420 -1.6231 -1.2474
20172TIP3    H282008   5.288   0.585  11.902  2.8121 -0.2934 -0.3252
20173TIP3   OH282009   3.492   3.941   4.818  0.4080  0.3205 -0.0697
20173TIP3    H182010   3.552   3.974   4.751 -0.5436  1.9617 -0.1355
20173TIP3    H282011   3.406   3.969   4.790 -0.2534 -0.7471  0.8060
20174TIP3   OH282012   2.018   6.635   4.284 -0.1996 -0.4037  0.0785
20174TIP3    H182013   2.008   6.610   4.376  0.1935  0.8586  0.4840
20174TIP3    H282014   1.956   6.708   4.273  0.7728  0.3933 -0.2566
20175TIP3   OH282015   5.124   1.289   0.159 -0.0913 -0.1698  0.0180
20175TIP3    H182016   5.127   1.201   0.197  0.0546 -0.1645  0.0187
20175TIP3    H282017   5.216   1.312   0.146 -0.1459 -0.2951 -0.6255
20176TIP3   OH282018   4.805   3.158   1.012  0.0281 -0.0465 -0.0856
20176TIP3    H182019   4.793   3.237   1.065  0.7424  0.2251 -0.3012
20176TIP3    H282020   4.841   3.093   1.072 -0.5892 -0.2168  0.0993
20177TIP3   OH282021   0.402   0.412   0.392  0.1829 -0.1258  0.8229
20177TIP3    H182022   0.316   0.391   0.427 -0.8656  0.6920 -1.0829
20177TIP3    H282023   0.420   0.343   0.328  0.3638  0.3575  0.3339
20178TIP3   OH282024   5.766   3.825   5.548 -0.3174  0.5204 -0.2080
20178TIP3    H182025   5.763   3.894   5.481 -1.8029 -0.9770 -1.8086
20178TIP3    H282026   5.742   3.745   5.501 -0.3704 -0.8098  1.9330
20179TIP3   OH282027   1.987   5.932  14.038  0.0394  0.1382 -0.1059
20179TIP3    H182028   2.069   5.960  13.997 -0.7596  1.8568 -0.6692
20179TIP3    H282029   1.940   5.885  13.968  0.1079  0.0774 -0.1108
20180TIP3   OH282030   4.009   6.239   6.902 -0.4686 -0.1653  0.3702
20180TIP3    H182031   4.006   6.328   6.937  2.9328  0.5739 -0.8596
20180TIP3    H282032   3.965   6.245   6.817  0.6922  0.6595 -0.1965
20181TIP3   OH282033   2.795   6.355  15.231 -0.3496 -0.2108 -0.4878
20181TIP3    H182034   2.847   6.360  15.151 -2.0846 -1.1595 -1.7429
20181TIP3    H282035   2.742   6.434  15.230  0.2285  0.1986  0.2028
20182TIP3   OH282036   1.174   0.776   3.158 -0.6078 -0.4910 -0.2556
20182TIP3    H182037   1.110   0.802   3.224  1.1905  0.5099  1.1980
20182TIP3    H282038   1.168   0.845   3.092  0.2282  0.6341  0.8026
20183TIP3   OH282039   0.192   0.134  11.685  0.0013  1.0951  0.5512
20183TIP3    H182040   0.250   0.184  11.742  0.4775  0.5835  0.5242
20183TIP3    H282041   0.209   0.043  11.707  0.5427  0.8632 -0.7369
20184TIP3   OH282042   5.978   2.443   5.310  0.3522 -0.0525  0.5162
20184TIP3    H182043   5.896   2.453   5.359  1.3475 -1.4994  2.6379
20184TIP3    H282044   6.036   2.395   5.369  2.4827  0.1873 -1.2293
20185TIP3   OH282045   2.279   0.470   5.583  0.0727  0.2133  0.5269
20185TIP3    H182046   2.214   0.540   5.583 -0.6296 -0.4194 -0.1978
20185TIP3    H282047   2.259   0.418   5.505  1.0753 -0.3437  0.6144
20186TIP3   OH282048   6.429   2.349  15.883  0.1706  0.7383 -0.5958
20186TIP3    H182049   6.355   2.289  15.891 -1.0098  2.0824 -1.0724
20186TIP3    H282050   6.473   2.344  15.968 -0.0712 -0.5486 -0.5194
20187TIP3   OH282051   0.545   6.529  16.553 -0.4654 -0.2294 -0.3886
20187TIP3    H182052   0.512   6.484  16.631  0.7515  1.0927  0.9486
20187TIP3    H282053   0.478   6.595  16.534 -0.6667 -0.4150 -0.3336
20188TIP3   OH282054   5.779   6.567  13.502  0.3799  0.0403 -0.1391
20188TIP3    H182055   5.784   6.474  13.521 -2.0408  0.1314  1.3142
20188TIP3    H282056   5.749   6.571  13.411  1.8868 -0.5364 -0.6900
20189TIP3   OH282057   2.365   0.462  13.406 -0.3225 -0.0772 -0.2645
20189TIP3    H182058   2.272   0.440  13.406 -0.6031  1.0450 -0.8280
20189TIP3    H282059   2.404   0.403  13.341 -0.2877 -1.7977  1.2229
20190TIP3   OH282060   6.564   6.221  12.333  0.0909 -0.0234  0.2100
20190TIP3    H182061   6.657   6.237  12.347  0.3442 -0.8024 -0.4738
20190TIP3    H282062   6.521   6.262  12.408  0.8869  1.3704 -0.0550
20191TIP3   OH282063   6.443   4.986   0.734 -0.0710  0.4864  0.5031
20191TIP3    H182064   6.376   5.011   0.671 -0.9173 -0.6212  0.9373
20191TIP3    H282065   6.435   5.051   0.805 -2.4837 -1.0630  1.7956
20192TIP3   OH282066   4.716   4.033   5.885  0.2727 -0.0961  0.0149
20192TIP3    H182067   4.742   4.008   5.974  1.2652 -3.7214 -1.1329
20192TIP3    H282068   4.623   4.057   5.893  0.9665  2.4132  2.3660
20193TIP3   OH282069   5.577   4.116  13.070 -0.4616 -0.1564  0.4768
20193TIP3    H182070   5.507   4.172  13.036  0.0553  0.4373  0.3793
20193TIP3    H282071   5.657   4.164  13.051  0.1393 -1.7258 -1.2316
20194TIP3   OH282072   3.875   2.738  14.499  0.3589  0.4940 -0.1018
20194TIP3    H182073   3.902   2.696  14.417  1.3334  1.2524 -0.1898
20194TIP3    H282074   3.903   2.829  14.490 -0.3653  0.8130  0.6997
20195TIP3   OH282075   6.175   4.177  14.833 -0.0862 -0.4029  0.2068
20195TIP3    H182076   6.203   4.173  14.742 -0.4212  1.5396 -0.0220
20195TIP3    H282077   6.115   4.102  14.843 -1.6645  0.5022 -1.7775
20196TIP3   OH282078   1.127   3.459   4.840 -0.2696 -0.5967  0.2010
20196TIP3    H182079   1.154   3.368   4.823  1.3034 -0.0961 -0.0548
20196TIP3    H282080   1.160   3.508   4.765 -1.6231  0.1324  0.0418
20197TIP3   OH282081   3.120   4.855  15.444  0.3122  0.5134 -0.5598
20197TIP3    H182082   3.210   4.886  15.432  0.5979  0.3779  0.9241
20197TIP3    H282083   3.088   4.903  15.521  0.8760 -2.8779  2.0874
20198TIP3   OH282084   1.956   0.526   3.054 -0.2879 -0.0754 -0.0823
20198TIP3    H182085   1.925   0.475   3.129 -0.5268 -0.9814 -0.7861
20198TIP3    H282086   1.876   0.558   3.013 -0.2543 -1.1530 -1.0261
20199TIP3   OH282087   3.741   6.687   4.390 -0.4725  0.1764  0.0985
20199TIP3    H182088   3.683   6.668   4.464  0.7238  0.2925  1.1017
20199TIP3    H282089   3.709   6.770   4.355  0.4881  1.5053  2.1580
20200TIP3   OH282090   0.523   1.063   3.137  0.2656 -0.0410 -0.1575
20200TIP3    H182091   0.455   1.010   3.094  0.4560  0.0700 -0.6039
20200TIP3    H282092   0.474   1.136   3.175 -0.1881 -1.2445  1.6920
20201TIP3   OH282093   5.794   4.235   2.850 -0.1666  0.1415 -0.1407
20201TIP3    H182094   5.812   4.181   2.772  1.3694 -0.0367  0.3142
20201TIP3    H282095   5.727   4.297   2.821 -1.4749 -1.5364 -0.8874
20202TIP3   OH282096   1.221   0.635  13.617  0.2013  0.1397 -0.2220
20202TIP3    H182097   1.126   0.636  13.626  0.2469 -0.5330  0.4442
20202TIP3    H282098   1.252   0.587  13.694  1.1411  1.2557  0.1344
20203TIP3   OH282099   0.402   4.576  15.255  0.3674 -0.5148  0.0018
20203TIP3    H182100   0.385   4.490  15.294  0.2555 -0.9633 -0.9893
20203TIP3    H282101   0.340   4.581  15.182  1.0139  0.0128 -0.5238
20204TIP3   OH282102   0.578   0.419  12.835  0.1689  0.0448 -0.0085
20204TIP3    H182103   0.639   0.367  12.783  0.8126  0.5536  0.2257
20204TIP3    H282104   0.526   0.354  12.882  0.3742 -0.4000 -0.3877
20205TIP3   OH282105   2.770   1.353  17.297  0.2698 -0.6247  0.1250
20205TIP3    H182106   2.726   1.302  17.229  0.2454  0.5349 -0.7470
20205TIP3    H282107   2.702   1.411  17.331 -0.0432 -1.9867  2.0084
20206TIP3   OH282108   4.553   1.862   5.111 -0.0545  0.4878  0.1446
20206TIP3    H182109   4.477   1.805   5.111 -0.0917  0.5266 -0.7377
20206TIP3    H282110   4.561   1.892   5.202  0.2575 -1.2763  0.7283
20207TIP3   OH282111   1.761   0.688   2.976 -0.2874  0.0261  0.0065
20207TIP3    H182112   1.782   0.772   2.935  0.2961  0.8482  1.9005
20207TIP3    H282113   1.724   0.712   3.061  0.2386 -1.6344  0.7311
20208TIP3   OH282114   2.488   5.942  15.472  0.2453  0.1769 -0.2367
20208TIP3    H182115   2.401   5.943  15.432 -0.7950  0.2094  1.8382
20208TIP3    H282116   2.545   5.985  15.409 -2.5177  6.6369  0.8704
20209TIP3   OH282117   0.430   6.467  13.653  0.1404  0.1145 -0.8331
20209TIP3    H182118   0.470   6.540  13.606 -0.9696  0.8233 -0.7077
20209TIP3    H282119   0.336   6.476  13.637 -0.0033 -1.3838 -0.9373
20210TIP3   OH282120   3.990   4.033  15.639  0.2048 -0.1213  0.5302
20210TIP3    H182121   3.915   3.976  15.659 -0.2718  0.5118  0.5719
20210TIP3    H282122   3.967   4.117  15.677  1.6112 -0.3036  1.8663
20211TIP3   OH282123   2.961   6.536  17.289 -0.1776 -0.0247  0.0230
20211TIP3    H182124   3.035   6.573  17.242 -0.2707 -0.1885 -0.2562
20211TIP3    H282125   2.977   6.557  17.381 -1.4784  2.9656 -0.3174
20212TIP3   OH282126   1.867   6.746   6.202 -0.3860 -0.4987 -0.3668
20212TIP3    H182127   1.827   6.817   6.253 -1.3826 -0.7305 -0.8036
20212TIP3    H282128   1.957   6.774   6.189  0.1851 -0.8058  2.2369
20213TIP3   OH282129   4.744   4.056   1.147  0.4192 -0.0920  0.2668
20213TIP3    H182130   4.652   4.039   1.170  0.2150 -1.2941 -1.2941
20213TIP3    H282131   4.768   4.130   1.202 -2.7622  3.0618 -2.0662
20214TIP3   OH282132   3.362   3.725  15.024 -0.1595 -0.9361  0.0429
20214TIP3    H182133   3.279   3.710  14.978  0.0036  0.0995 -0.6050
20214TIP3    H282134   3.429   3.691  14.965  0.1405  1.3920 -1.0430
20215TIP3   OH282135   2.401   2.535   3.154 -0.5479  0.5954 -0.5775
20215TIP3    H182136   2.469   2.478   3.121 -1.4684 -1.1494  0.3912
20215TIP3    H282137   2.414   2.536   3.249 -1.0587  1.3153 -0.5026
20216TIP3   OH282138   5.870   1.172  12.614  0.8049 -0.3462  0.1481
20216TIP3    H182139   5.779   1.192  12.593  0.0246 -1.8805  1.7425
20216TIP3    H282140   5.904   1.130  12.535  0.7260  1.8024 -1.1061
20217TIP3   OH282141   0.850   5.120   3.371  0.3794 -0.3366  0.5321
20217TIP3    H182142   0.755   5.128   3.373  0.4197  0.0714  2.3599
20217TIP3    H282143   0.873   5.081   3.455  1.7908 -1.0288 -0.1396
20218TIP3   OH282144   5.320   3.101   4.485  0.3093 -0.3413 -0.3038
20218TIP3    H182145   5.390   3.068   4.542 -1.1721 -0.2167  1.7108
20218TIP3    H282146   5.274   3.022   4.456  0.4142 -0.3456 -0.4614
20219TIP3   OH282147   2.821   6.195  13.972  0.3740  0.1744  0.2420
20219TIP3    H182148   2.912   6.218  13.993  0.9680 -2.5846  1.1245
20219TIP3    H282149   2.769   6.235  14.041  1.0561  0.7178  0.4514
20220TIP3   OH282150   0.153   5.955  11.346 -0.1435  0.3442  0.0603
20220TIP3    H182151   0.204   6.031  11.376 -1.8567  1.7896 -0.4661
20220TIP3    H282152   0.200   5.923  11.269  0.1409  1.4621 -0.2500
20221TIP3   OH282153   5.433   0.016   2.898 -0.3948 -0.3101  0.2256
20221TIP3    H182154   5.455   0.031   2.990  0.0216  0.3367  0.0297
20221TIP3    H282155   5.445  -0.078   2.886 -0.0931 -0.3432  0.7384
20222TIP3   OH282156   1.816   2.538  14.755  0.3121  0.0872  0.2433
20222TIP3    H182157   1.825   2.464  14.695  1.1819  1.8357 -1.9036
20222TIP3    H282158   1.896   2.588  14.743  0.1658  0.9135  2.3613
20223TIP3   OH282159   6.655   2.492  17.041 -0.3223  0.4153 -0.0154
20223TIP3    H182160   6.679   2.508  17.133  3.0996 -0.7939 -0.5794
20223TIP3    H282161   6.726   2.530  16.990 -1.0413 -0.8324 -2.0729
20224TIP3   OH282162   0.739   1.467  14.795 -0.1928 -0.1907  0.3646
20224TIP3    H182163   0.816   1.438  14.745 -0.9898 -0.0096 -1.0426
20224TIP3    H282164   0.758   1.558  14.817  0.7087 -0.6311  1.5330
20225TIP3   OH282165   3.038   1.734  12.957 -0.5342 -0.2956 -0.6952
20225TIP3    H182166   3.029   1.808  13.016 -2.1001  0.0521 -1.3167
20225TIP3    H282167   3.005   1.766  12.873  0.8640 -1.0263 -1.5683
20226TIP3   OH282168   5.811   6.015   2.073 -0.7836  0.3298  0.1496
20226TIP3    H182169   5.728   6.001   2.029 -0.8955 -0.6533  0.6367
20226TIP3    H282170   5.828   6.109   2.063 -1.3651  0.3392 -0.9559
20227TIP3   OH282171   6.379   2.106   5.387 -0.0885 -0.3796 -0.4090
20227TIP3    H182172   6.445   2.171   5.361 -0.8294  0.2077 -0.8953
20227TIP3    H282173   6.355   2.062   5.305 -1.5038  0.5866 -0.5526
20228TIP3   OH282174   5.994   1.515   5.048 -0.2656  0.4527 -0.3316
20228TIP3    H182175   5.990   1.489   4.956  2.2516  2.0956 -1.0064
20228TIP3    H282176   5.958   1.603   5.050 -2.5166 -0.4033  0.7676
20229TIP3   OH282177   0.500   1.225  13.267  0.1843  0.2905 -0.0943
20229TIP3    H182178   0.478   1.289  13.199 -0.4276 -1.6411 -1.8376
20229TIP3    H282179   0.592   1.203  13.250 -0.0033 -0.2828 -0.3837
20230TIP3   OH282180   6.072   6.363   5.228  0.3189  0.1867 -0.1964
20230TIP3    H182181   6.047   6.395   5.141  1.2543 -0.1329 -0.5933
20230TIP3    H282182   6.000   6.392   5.285 -0.4347  0.1827 -1.1103
20231TIP3   OH282183   1.981   4.826   0.815 -0.3626 -0.2631  0.4454
20231TIP3    H182184   2.035   4.793   0.887  0.0546 -0.3955  0.0762
20231TIP3    H282185   2.040   4.827   0.740 -0.5595  0.6795  0.2910
20232TIP3   OH282186   4.332   6.191   2.896 -0.1830 -0.7176 -0.2802
20232TIP3    H182187   4.268   6.237   2.951 -0.3015 -0.4584 -0.6357
20232TIP3    H282188   4.399   6.256   2.878 -1.4118  0.0243 -2.5948
20233TIP3   OH282189   5.022   3.859   0.543 -0.2726  0.8192 -0.2011
20233TIP3    H182190   5.104   3.815   0.568 -1.3509 -0.2095  1.7583
20233TIP3    H282191   4.970   3.861   0.623 -2.5229  0.7054 -1.5672
20234TIP3   OH282192   1.207   2.914   4.166 -0.1264 -0.1961  0.2023
20234TIP3    H182193   1.118   2.913   4.130  0.1051  1.5055 -0.5090
20234TIP3    H282194   1.228   3.007   4.176  1.8621 -0.5208 -0.4256
20235TIP3   OH282195   4.264   0.271  15.843  0.0953  0.4110  0.8888
20235TIP3    H182196   4.323   0.245  15.914 -0.0432 -0.9788  0.5340
20235TIP3    H282197   4.322   0.301  15.774  0.5799 -2.2654  0.0014
20236TIP3   OH282198   4.122   4.987  14.684  0.9498  0.1527 -0.0154
20236TIP3    H182199   4.080   4.901  14.678  1.0026  0.2177 -1.5967
20236TIP3    H282200   4.105   5.029  14.600  1.9981  1.1969  0.2550
20237TIP3   OH282201   3.713   6.574  17.184 -0.1893 -0.2568 -0.1077
20237TIP3    H182202   3.764   6.495  17.167  0.6798  0.4014 -0.6380
20237TIP3    H282203   3.676   6.598  17.100 -2.0020 -1.1198  0.4014
20238TIP3   OH282204   6.736   4.992   1.657  0.1220  0.4770  0.4108
20238TIP3    H182205   6.699   4.913   1.696  0.4296  0.6395  1.0510
20238TIP3    H282206   6.688   5.003   1.575  0.3560 -0.5946  0.1178
20239TIP3   OH282207   4.378   2.260   4.094  0.1793 -0.1484  0.0123
20239TIP3    H182208   4.446   2.309   4.139  0.8840  0.2819 -1.4722
20239TIP3    H282209   4.393   2.169   4.119  1.6607 -0.1316 -0.7103
20240TIP3   OH282210   2.986   6.268   4.348  0.1708 -0.3038  0.6524
20240TIP3    H182211   3.031   6.267   4.263 -0.0790 -0.4999  0.5206
20240TIP3    H282212   2.895   6.287   4.327  0.1677 -0.0276  0.9093
20241TIP3   OH282213   3.807   1.186   5.078  0.4953  0.2077  0.4870
20241TIP3    H182214   3.837   1.130   5.007  1.8044  1.8087 -0.3043
20241TIP3    H282215   3.721   1.151   5.102  0.2366 -0.6871 -1.5298
20242TIP3   OH282216   3.313   0.754  14.536 -0.0961  0.0323  0.3168
20242TIP3    H182217   3.387   0.698  14.561  0.0617  0.7551  1.5265
20242TIP3    H282218   3.353   0.838  14.514 -0.3439 -0.2709 -1.4310
20243TIP3   OH282219   1.791   0.530   1.924  0.2209 -0.3471 -0.1004
20243TIP3    H182220   1.758   0.516   1.836  0.2570 -0.0494 -0.1637
20243TIP3    H282221   1.875   0.575   1.912 -0.1135  0.3497  0.0988
20244TIP3   OH282222   4.436   0.250   1.590  0.4760  0.4917  0.0003
20244TIP3    H182223   4.438   0.155   1.602 -0.0468  0.1918 -1.9141
20244TIP3    H282224   4.386   0.283   1.664 -1.6445 -1.0198 -0.6761
20245TIP3   OH282225   3.897   4.206  13.472 -0.2141  0.0971 -0.4239
20245TIP3    H182226   3.851   4.133  13.514  1.0706 -0.6292 -0.2300
20245TIP3    H282227   3.845   4.225  13.394 -0.7811 -0.7700 -0.2687
20246TIP3   OH282228   4.270   3.689   3.100  0.1965  0.0247  0.2412
20246TIP3    H182229   4.262   3.691   3.195 -2.2244  0.5039  0.1015
20246TIP3    H282230   4.236   3.774   3.071  1.4970  0.1433 -1.0318
20247TIP3   OH282231   0.235   0.120   0.194 -0.3663 -1.6186  0.2688
20247TIP3    H182232   0.308   0.088   0.140  0.2914  0.1909  0.0289
20247TIP3    H282233   0.266   0.111   0.284  1.8502  2.5358  0.1739
20248TIP3   OH282234   2.094   2.847   3.134 -0.6357 -0.0315  0.0616
20248TIP3    H182235   2.072   2.878   3.047 -1.3537  1.5507  0.7747
20248TIP3    H282236   2.145   2.918   3.173 -0.9255 -0.4165  1.1846
20249TIP3   OH282237   6.658   2.012   1.085  0.5451  0.1925 -0.0241
20249TIP3    H182238   6.642   1.919   1.100 -1.1340  0.3835 -0.3969
20249TIP3    H282239   6.636   2.025   0.993  2.0547  0.7272 -0.3358
20250TIP3   OH282240   5.221   3.951  14.431 -0.0023  0.3021 -0.5883
20250TIP3    H182241   5.156   3.939  14.501  1.4086 -0.6542  0.6022
20250TIP3    H282242   5.227   3.865  14.389  0.3101  0.4663 -0.8844
20251TIP3   OH282243   4.436   3.437  10.203 -0.3323  0.2709  0.7080
20251TIP3    H182244   4.413   3.385  10.280 -0.0949 -1.1005 -0.1127
20251TIP3    H282245   4.364   3.501  10.195 -0.7820 -0.1040  1.5744
20252TIP3   OH282246   0.961   3.404  17.221  0.1042  0.3329  0.5252
20252TIP3    H182247   0.941   3.475  17.160 -1.5134 -0.1741  0.4211
20252TIP3    H282248   0.956   3.325  17.168  1.2808  0.0760  0.7775
20253TIP3   OH282249   0.461   0.129  15.532  0.1016  0.3779  0.0659
20253TIP3    H182250   0.379   0.153  15.489  0.3613 -2.1619 -2.1206
20253TIP3    H282251   0.467   0.188  15.607 -2.8970  1.7185 -0.5979
20254TIP3   OH282252   0.356   2.114   2.399  0.5095  0.1768  0.8581
20254TIP3    H182253   0.325   2.077   2.316 -2.1749  1.4415  1.1785
20254TIP3    H282254   0.418   2.182   2.374  2.0460 -1.4602  0.0749
20255TIP3   OH282255   0.840   5.527  10.739 -0.1029  0.1461  0.2265
20255TIP3    H182256   0.815   5.436  10.723 -0.4721  0.6384 -2.4429
20255TIP3    H282257   0.933   5.522  10.764  0.5737 -0.8573 -2.2153
20256TIP3   OH282258   6.808   1.127  16.550 -0.2754 -0.2415 -0.1179
20256TIP3    H182259   6.726   1.096  16.512 -0.5163 -0.8535  0.8522
20256TIP3    H282260   6.854   1.168  16.478 -1.4864  0.2136 -0.6694
20257TIP3   OH282261   5.346   4.854  12.961 -0.1756  0.2149 -0.8063
20257TIP3    H182262   5.286   4.779  12.961 -0.0687  0.1172 -1.9135
20257TIP3    H282263   5.385   4.852  13.048 -2.1633  0.6198  0.1534
20258TIP3   OH282264   0.511   0.535  14.316 -0.2143  0.5335 -0.1091
20258TIP3    H182265   0.511   0.499  14.227  0.9626  1.4985 -0.5309
20258TIP3    H282266   0.421   0.562  14.332 -0.6685 -0.6445 -0.5787
20259TIP3   OH282267   4.067   6.352   4.962  0.0970 -0.6118 -0.2520
20259TIP3    H182268   4.061   6.393   5.048 -1.6011  1.2118 -1.1498
20259TIP3    H282269   4.150   6.383   4.926 -0.1914  0.3840 -0.0908
20260LIG      O82270   4.288   3.440  11.511 -0.0043 -0.2654  0.1214
20260LIG      N82271   4.520   3.062  11.703  0.0727  0.1449  0.1313
20260LIG     C182272   4.394   3.478  11.722 -0.0873  0.4090 -0.0120
20260LIG     C282273   4.411   3.409  11.580  0.4324  0.3486  0.0465
20260LIG     C382274   4.410   3.636  11.719  0.4621  0.1012 -0.7889
20260LIG     C482275   4.264   3.434  11.800 -0.5512 -0.2046 -0.0828
20260LIG     C582276   4.420   3.253  11.594 -0.1867 -0.6601 -0.3552
20260LIG     C682277   4.405   3.685  11.871 -0.0123 -0.4586  0.4669
20260LIG     C782278   4.265   3.486  11.940  0.0238 -0.3427 -0.0093
20260LIG     C882279   4.280   3.634  11.949  0.0468 -0.3372 -0.0654
20260LIG     C982280   4.530   3.199  11.683 -0.5870  0.5451  0.5744
20260LIG    C1082281   4.538   3.458  11.505 -0.4769  0.3864  0.6333
20260LIG    C1182282   4.642   2.982  11.738  0.0296 -1.2162  0.1516
20260LIG    C1282283   4.400   3.020  11.781 -0.2116 -0.5274  0.1822
20260LIG    C1382284   4.666   3.001  11.890  0.5794  0.0935 -0.5313
20260LIG    C1482285   4.422   3.023  11.927 -0.2125  0.0314 -0.5863
20260LIG    C1582286   4.550   2.944  11.968  0.4396  0.0853  0.0130
20260LIG    C1682287   4.660   3.478  11.581 -0.5071  0.6986 -0.0001
20260LIG    C1782288   4.544   3.470  11.363 -0.0530 -0.7202  0.1906
20260LIG    C1882289   4.778   3.504  11.513 -0.2614 -0.5938 -0.0693
20260LIG    C1982290   4.664   3.496  11.294 -0.1823  0.5786  0.5360
20260LIG    C2082291   4.781   3.502  11.370  0.5266 -0.6414 -0.5032
20260LIG     H182292   4.472   3.433  11.787 -0.1065  1.7875  1.0215
20260LIG     H282293   4.322   3.685  11.672 -0.5965 -0.8613  0.1368
20260LIG     H382294   4.509   3.661  11.675  0.3943  0.3510 -0.8037
20260LIG     H482295   4.249   3.324  11.790 -1.2825 -0.0878 -0.3185
20260LIG     H582296   4.176   3.487  11.757 -1.2254 -1.8651 -0.8650
20260LIG     H682297   4.449   3.207  11.497  2.8211 -1.6893  0.9071
20260LIG     H782298   4.317   3.213  11.608  0.0475 -0.8978  0.7829
20260LIG     H882299   4.425   3.793  11.882  0.2975 -0.3281 -1.1695
20260LIG     H982300   4.492   3.626  11.905  0.0357 -1.6650 -1.5566
20260LIG    H1082301   4.343   3.435  12.000  0.1831  2.2290  2.1424
20260LIG    H1182302   4.172   3.451  11.987  0.3054 -0.5729  0.3803
20260LIG    H1282303   4.186   3.675  11.907 -0.6551 -0.7287  1.0829
20260LIG    H1382304   4.280   3.670  12.055 -2.1910  0.0588 -0.1595
20260LIG    H1482305   4.634   3.222  11.653 -0.8258 -0.3396 -1.0025
20260LIG    H1582306   4.526   3.244  11.785  1.0184 -0.4189  1.0874
20260LIG    H1682307   4.730   3.019  11.682 -0.3380 -0.3205  0.1518
20260LIG    H1782308   4.629   2.874  11.715  0.7349 -1.1314 -0.6526
20260LIG    H1882309   4.373   2.914  11.759  0.5328 -1.0813  1.7752
20260LIG    H1982310   4.313   3.085  11.758 -0.7798 -0.8406  1.3617
20260LIG    H2082311   4.226   3.432  11.584 -0.2901  1.3159  0.0802
20260LIG    H2182312   4.681   3.108  11.915  0.9149  0.1530 -0.9705
20260LIG    H2282313   4.766   2.953  11.902  0.1361 -1.3975 -2.3681
20260LIG    H2382314   4.330   2.980  11.973 -0.8484 -1.2443 -2.8773
20260LIG    H2482315   4.439   3.125  11.966  1.1950 -0.8901  1.3679
20260LIG    H2582316   4.558   2.935  12.079 -1.3394 -1.7516  0.0433
20260LIG    H2682317   4.544   2.844  11.920  0.9227 -0.0255  0.1685
20260LIG    H2782318   4.660   3.475  11.689  0.2640 -2.3549  0.0154
20260LIG    H2882319   4.455   3.436  11.313  1.1230 -1.5551 -1.4242
20260LIG    H2982320   4.871   3.515  11.568  0.0512  0.9855 -0.8568
20260LIG    H3082321   4.666   3.500  11.186 -0.9112  0.8828  0.5256
20260LIG    H3182322   4.871   3.514  11.311 -0.3901  1.1038 -1.6319
   6.80914   6.80914  17.30579
