PSF EXT CMAP XPLOR

         2 !NTITLE
* GENERATE LIGAND                                                               
*  DATE:     4/15/25     17:50:22      CREATED BY USER: charmm-gui              

        55 !NATOM
         1 LIG      1        LIG      S        SG311   -0.294000       32.0600           0
         2 LIG      1        LIG      F1       FGA2    -0.203000       18.9980           0
         3 LIG      1        LIG      F2       FGA2    -0.203000       18.9980           0
         4 LIG      1        LIG      O        OG2R50  -0.750000E-01   15.9994           0
         5 LIG      1        LIG      N1       NG301   -0.489000       14.0070           0
         6 LIG      1        LIG      N2       NG2R51   0.204000       14.0070           0
         7 LIG      1        LIG      N3       NG2R50  -0.503000       14.0070           0
         8 LIG      1        LIG      N4       NG2R50  -0.358000       14.0070           0
         9 LIG      1        LIG      N5       NG2R50  -0.329000       14.0070           0
        10 LIG      1        LIG      N6       NG2R50  -0.334000       14.0070           0
        11 LIG      1        LIG      C1       CG321   -0.190000E-01   12.0110           0
        12 LIG      1        LIG      C2       CG321   -0.190000E-01   12.0110           0
        13 LIG      1        LIG      C3       CG321   -0.330000E-01   12.0110           0
        14 LIG      1        LIG      C4       CG321   -0.270000E-01   12.0110           0
        15 LIG      1        LIG      C5       CG321   -0.270000E-01   12.0110           0
        16 LIG      1        LIG      C6       CG2R61   0.400000E-02   12.0110           0
        17 LIG      1        LIG      C7       CG2R61  -0.124000       12.0110           0
        18 LIG      1        LIG      C8       CG2R61  -0.122000       12.0110           0
        19 LIG      1        LIG      C9       CG2R61   0.540000E-01   12.0110           0
        20 LIG      1        LIG      C10      CG2R51   0.381000       12.0110           0
        21 LIG      1        LIG      C11      CG2R61  -0.109000       12.0110           0
        22 LIG      1        LIG      C12      CG2R61  -0.117000       12.0110           0
        23 LIG      1        LIG      C13      CG321    0.100000       12.0110           0
        24 LIG      1        LIG      C14      CG2R51  -0.274000       12.0110           0
        25 LIG      1        LIG      C15      CG2R61  -0.400000E-02   12.0110           0
        26 LIG      1        LIG      C16      CG2R61  -0.119000       12.0110           0
        27 LIG      1        LIG      C17      CG2R61  -0.119000       12.0110           0
        28 LIG      1        LIG      C18      CG2R61   0.660000E-01   12.0110           0
        29 LIG      1        LIG      C19      CG2R61  -0.111000       12.0110           0
        30 LIG      1        LIG      C20      CG2R61  -0.111000       12.0110           0
        31 LIG      1        LIG      C21      CG2R53   0.335000       12.0110           0
        32 LIG      1        LIG      C22      CG2R53  -0.940000E-01   12.0110           0
        33 LIG      1        LIG      C23      CG312    0.725000       12.0110           0
        34 LIG      1        LIG      H1       HGA2     0.900000E-01   1.00800           0
        35 LIG      1        LIG      H2       HGA2     0.900000E-01   1.00800           0
        36 LIG      1        LIG      H3       HGA2     0.900000E-01   1.00800           0
        37 LIG      1        LIG      H4       HGA2     0.900000E-01   1.00800           0
        38 LIG      1        LIG      H5       HGA2     0.900000E-01   1.00800           0
        39 LIG      1        LIG      H6       HGA2     0.900000E-01   1.00800           0
        40 LIG      1        LIG      H7       HGA2     0.900000E-01   1.00800           0
        41 LIG      1        LIG      H8       HGA2     0.900000E-01   1.00800           0
        42 LIG      1        LIG      H9       HGA2     0.900000E-01   1.00800           0
        43 LIG      1        LIG      H10      HGA2     0.900000E-01   1.00800           0
        44 LIG      1        LIG      H11      HGR61    0.115000       1.00800           0
        45 LIG      1        LIG      H12      HGR61    0.115000       1.00800           0
        46 LIG      1        LIG      H13      HGR61    0.115000       1.00800           0
        47 LIG      1        LIG      H14      HGR61    0.115000       1.00800           0
        48 LIG      1        LIG      H15      HGA2     0.900000E-01   1.00800           0
        49 LIG      1        LIG      H16      HGA2     0.900000E-01   1.00800           0
        50 LIG      1        LIG      H17      HGR52    0.224000       1.00800           0
        51 LIG      1        LIG      H18      HGR61    0.115000       1.00800           0
        52 LIG      1        LIG      H19      HGR61    0.115000       1.00800           0
        53 LIG      1        LIG      H20      HGR61    0.115000       1.00800           0
        54 LIG      1        LIG      H21      HGR61    0.115000       1.00800           0
        55 LIG      1        LIG      H22      HGA7     0.124000       1.00800           0

        59 !NBOND: bonds
         1        14         1        15         2        33         3        33
         4        31         4        32         5        11         5        12
         5        13         6         8         6        23         6        24
         7         8         7        20         9        10         9        31
        10        32        11        14        11        34        11        35
        12        15        12        36        12        37        13        16
        13        38        13        39        14        40        14        41
        15        42        15        43        16        17        16        18
        17        19        17        44        18        21        18        45
        19        20        19        22        20        24        21        22
        21        47        22        46        23        25        23        48
        23        49        24        50        25        26        25        27
        26        29        26        51        27        30        27        52
        28        29        28        30        28        31        29        53
        30        54        32        33        33        55

       102 !NTHETA: angles
        14         1        15        31         4        32        11         5        12
        11         5        13        12         5        13         8         6        23
         8         6        24        23         6        24         8         7        20
         6         8         7        10         9        31         9        10        32
         5        11        14         5        11        34         5        11        35
        14        11        34        14        11        35        34        11        35
         5        12        15         5        12        36         5        12        37
        15        12        36        15        12        37        36        12        37
         5        13        16         5        13        38         5        13        39
        16        13        38        16        13        39        38        13        39
         1        14        11         1        14        40         1        14        41
        11        14        40        11        14        41        40        14        41
         1        15        12         1        15        42         1        15        43
        12        15        42        12        15        43        42        15        43
        13        16        17        13        16        18        17        16        18
        16        17        19        16        17        44        19        17        44
        16        18        21        16        18        45        21        18        45
        17        19        20        17        19        22        20        19        22
         7        20        19         7        20        24        19        20        24
        18        21        22        18        21        47        22        21        47
        19        22        21        19        22        46        21        22        46
         6        23        25         6        23        48         6        23        49
        25        23        48        25        23        49        48        23        49
         6        24        20         6        24        50        20        24        50
        23        25        26        23        25        27        26        25        27
        25        26        29        25        26        51        29        26        51
        25        27        30        25        27        52        30        27        52
        29        28        30        29        28        31        30        28        31
        26        29        28        26        29        53        28        29        53
        27        30        28        27        30        54        28        30        54
         4        31         9         4        31        28         9        31        28
         4        32        10         4        32        33        10        32        33
         2        33         3         2        33        32         2        33        55
         3        33        32         3        33        55        32        33        55

       144 !NPHI: dihedrals
         1        14        11         5         1        14        11        34
         1        14        11        35         1        15        12         5
         1        15        12        36         1        15        12        37
         2        33        32         4         2        33        32        10
         3        33        32         4         3        33        32        10
         4        31         9        10         4        31        28        29
         4        31        28        30         4        32        10         9
         4        32        33        55         5        11        14        40
         5        11        14        41         5        12        15        42
         5        12        15        43         5        13        16        17
         5        13        16        18         6         8         7        20
         6        23        25        26         6        23        25        27
         6        24        20         7         6        24        20        19
         7         8         6        23         7         8         6        24
         7        20        19        17         7        20        19        22
         7        20        24        50         8         6        23        25
         8         6        23        48         8         6        23        49
         8         6        24        20         8         6        24        50
         8         7        20        19         8         7        20        24
         9        10        32        33         9        31         4        32
         9        31        28        29         9        31        28        30
        10         9        31        28        10        32         4        31
        10        32        33        55        11         5        12        15
        11         5        12        36        11         5        12        37
        11         5        13        16        11         5        13        38
        11         5        13        39        11        14         1        15
        12         5        11        14        12         5        11        34
        12         5        11        35        12         5        13        16
        12         5        13        38        12         5        13        39
        12        15         1        14        13         5        11        14
        13         5        11        34        13         5        11        35
        13         5        12        15        13         5        12        36
        13         5        12        37        13        16        17        19
        13        16        17        44        13        16        18        21
        13        16        18        45        14         1        15        42
        14         1        15        43        15         1        14        40
        15         1        14        41        16        17        19        20
        16        17        19        22        16        18        21        22
        16        18        21        47        17        16        13        38
        17        16        13        39        17        16        18        21
        17        16        18        45        17        19        20        24
        17        19        22        21        17        19        22        46
        18        16        13        38        18        16        13        39
        18        16        17        19        18        16        17        44
        18        21        22        19        18        21        22        46
        19        20        24        50        19        22        21        47
        20        19        17        44        20        19        22        21
        20        19        22        46        20        24         6        23
        22        19        17        44        22        19        20        24
        22        21        18        45        23         6        24        50
        23        25        26        29        23        25        26        51
        23        25        27        30        23        25        27        52
        24         6        23        25        24         6        23        48
        24         6        23        49        25        26        29        28
        25        26        29        53        25        27        30        28
        25        27        30        54        26        25        23        48
        26        25        23        49        26        25        27        30
        26        25        27        52        26        29        28        30
        26        29        28        31        27        25        23        48
        27        25        23        49        27        25        26        29
        27        25        26        51        27        30        28        29
        27        30        28        31        28        29        26        51
        28        30        27        52        28        31         4        32
        29        28        30        54        30        28        29        53
        31         4        32        33        31         9        10        32
        31        28        29        53        31        28        30        54
        34        11        14        40        34        11        14        41
        35        11        14        40        35        11        14        41
        36        12        15        42        36        12        15        43
        37        12        15        42        37        12        15        43
        45        18        21        47        46        22        21        47
        51        26        29        53        52        27        30        54

         0 !NIMPHI: impropers


         0 !NDON: donors


         0 !NACC: acceptors


         0 !NNB

         0         0         0         0         0         0         0         0
         0         0         0         0         0         0         0         0
         0         0         0         0         0         0         0         0
         0         0         0         0         0         0         0         0
         0         0         0         0         0         0         0         0
         0         0         0         0         0         0         0         0
         0         0         0         0         0         0         0

         1         0 !NGRP NST2
         0         1         0

         0         0 !NUMLP NUMLPH

         0 !NCRTERM: cross-terms

