* GENERATE LIGAND
*  DATE:     4/15/25     17:50:22      CREATED BY USER: charmm-gui
*
        55  EXT
         1         1  LIG       S               6.3432851237       -4.2141063525        1.8801660084  LIG       1               0.0000000000
         2         1  LIG       F1             -7.8442846233       -3.1631268528        0.3013779895  LIG       1               0.0000000000
         3         1  LIG       F2             -6.7920030463       -3.4929574419       -1.5642073420  LIG       1               0.0000000000
         4         1  LIG       O              -5.7463069424       -1.2168892549       -0.1201676305  LIG       1               0.0000000000
         5         1  LIG       N1              5.2225356589       -2.1185339311       -0.3448095362  LIG       1               0.0000000000
         6         1  LIG       N2              0.4667615639        2.4043941601        1.3055892282  LIG       1               0.0000000000
         7         1  LIG       N3              1.4763763241        3.4434872765       -0.1817137485  LIG       1               0.0000000000
         8         1  LIG       N4              0.4445851195        3.5450340131        0.6004285236  LIG       1               0.0000000000
         9         1  LIG       N5             -6.4515029428        0.7713855374       -0.8639614532  LIG       1               0.0000000000
        10         1  LIG       N6             -7.3548912833       -0.1046771413       -1.2186053700  LIG       1               0.0000000000
        11         1  LIG       C1              5.0331487494       -3.5621924983       -0.5429068415  LIG       1               0.0000000000
        12         1  LIG       C2              6.4559336838       -1.8024179557        0.4028886892  LIG       1               0.0000000000
        13         1  LIG       C3              5.1871745211       -1.4025609790       -1.6337434473  LIG       1               0.0000000000
        14         1  LIG       C4              4.8751567027       -4.2851020727        0.8087829658  LIG       1               0.0000000000
        15         1  LIG       C5              6.4135354956       -2.3972726194        1.8236481488  LIG       1               0.0000000000
        16         1  LIG       C6              4.9060321367        0.0664477280       -1.4523666636  LIG       1               0.0000000000
        17         1  LIG       C7              3.7157798492        0.4676782927       -0.8323094823  LIG       1               0.0000000000
        18         1  LIG       C8              5.7969632176        1.0408057369       -1.9294900903  LIG       1               0.0000000000
        19         1  LIG       C9              3.4002266161        1.8325121079       -0.6802524113  LIG       1               0.0000000000
        20         1  LIG       C10             2.1749263940        2.2452787243       -0.0080198742  LIG       1               0.0000000000
        21         1  LIG       C11             5.5077405834        2.4008961998       -1.7730265161  LIG       1               0.0000000000
        22         1  LIG       C12             4.3158339719        2.7944125601       -1.1561380028  LIG       1               0.0000000000
        23         1  LIG       C13            -0.6386268574        2.1410138973        2.2245716098  LIG       1               0.0000000000
        24         1  LIG       C14             1.4838327089        1.5741467034        0.9525167930  LIG       1               0.0000000000
        25         1  LIG       C15            -1.8948865386        1.6083703467        1.5957229238  LIG       1               0.0000000000
        26         1  LIG       C16            -2.7636272902        2.4952167161        0.9398114939  LIG       1               0.0000000000
        27         1  LIG       C17            -2.2024774257        0.2423697001        1.6392017432  LIG       1               0.0000000000
        28         1  LIG       C18            -4.2650765894        0.6553250195        0.3909815734  LIG       1               0.0000000000
        29         1  LIG       C19            -3.9365225410        2.0263976573        0.3418664076  LIG       1               0.0000000000
        30         1  LIG       C20            -3.3752118968       -0.2266501961        1.0476523537  LIG       1               0.0000000000
        31         1  LIG       C21            -5.4866620342        0.1187708361       -0.2081920780  LIG       1               0.0000000000
        32         1  LIG       C22            -6.9321320486       -1.2780181812       -0.7761420869  LIG       1               0.0000000000
        33         1  LIG       C23            -7.5679273042       -2.5985961956       -0.9012730958  LIG       1               0.0000000000
        34         1  LIG       H1              5.8994287104       -3.9790314518       -1.1006459833  LIG       1               0.0000000000
        35         1  LIG       H2              4.1122662399       -3.7294527388       -1.1446391556  LIG       1               0.0000000000
        36         1  LIG       H3              6.5789826590       -0.6997035419        0.4860584290  LIG       1               0.0000000000
        37         1  LIG       H4              7.3331851334       -2.2088954044       -0.1463522193  LIG       1               0.0000000000
        38         1  LIG       H5              4.3784433439       -1.8050553571       -2.2828204011  LIG       1               0.0000000000
        39         1  LIG       H6              6.1571254682       -1.5324688507       -2.1622232411  LIG       1               0.0000000000
        40         1  LIG       H7              3.9920735583       -3.8632754896        1.3373231398  LIG       1               0.0000000000
        41         1  LIG       H8              4.6419366173       -5.3509834479        0.5900726984  LIG       1               0.0000000000
        42         1  LIG       H9              7.3325663957       -2.0578852153        2.3520187137  LIG       1               0.0000000000
        43         1  LIG       H10             5.5480861599       -1.9583028239        2.3666660099  LIG       1               0.0000000000
        44         1  LIG       H11             3.0400007548       -0.2999807674       -0.4825524889  LIG       1               0.0000000000
        45         1  LIG       H12             6.7157007237        0.7386626650       -2.4087840019  LIG       1               0.0000000000
        46         1  LIG       H13             4.1001814886        3.8487449964       -1.0391774836  LIG       1               0.0000000000
        47         1  LIG       H14             6.2013555056        3.1488864310       -2.1297705711  LIG       1               0.0000000000
        48         1  LIG       H15            -0.9001259684        3.0715748938        2.7735397485  LIG       1               0.0000000000
        49         1  LIG       H16            -0.3015915596        1.4047777316        2.9860332319  LIG       1               0.0000000000
        50         1  LIG       H17             1.6977801699        0.6238041233        1.4071545809  LIG       1               0.0000000000
        51         1  LIG       H18            -2.5088359318        3.5451695654        0.8786456994  LIG       1               0.0000000000
        52         1  LIG       H19            -1.5374008767       -0.4551253951        2.1279259904  LIG       1               0.0000000000
        53         1  LIG       H20            -4.5883021816        2.7275159102       -0.1631513901  LIG       1               0.0000000000
        54         1  LIG       H21            -3.5894765074       -1.2854448996        1.1014778850  LIG       1               0.0000000000
        55         1  LIG       H22            -8.5110311568       -2.5506498101       -1.4416332430  LIG       1               0.0000000000
