* GENERATED BY CHARMM-GUI (HTTP://WWW.CHARMM-GUI.ORG)
*
        33  EXT
         1         1  LIG       S               6.3203000000       -4.1672000000        1.8284000000  LIG       1               0.0000000000
         2         1  LIG       F1             -7.7552000000       -3.1844000000        0.3564000000  LIG       1               0.0000000000
         3         1  LIG       F2             -6.7024000000       -3.5141000000       -1.5104000000  LIG       1               0.0000000000
         4         1  LIG       O              -5.7138000000       -1.1448000000       -0.1115000000  LIG       1               0.0000000000
         5         1  LIG       N1              5.1855000000       -2.0903000000       -0.3113000000  LIG       1               0.0000000000
         6         1  LIG       N2              0.4303000000        2.3299000000        1.2372000000  LIG       1               0.0000000000
         7         1  LIG       N3              1.4992000000        3.4007000000       -0.2919000000  LIG       1               0.0000000000
         8         1  LIG       N4              0.4241000000        3.4439000000        0.4873000000  LIG       1               0.0000000000
         9         1  LIG       N5             -6.4178000000        0.8427000000       -0.8590000000  LIG       1               0.0000000000
        10         1  LIG       N6             -7.3555000000       -0.1063000000       -1.2207000000  LIG       1               0.0000000000
        11         1  LIG       C1              5.0092000000       -3.5348000000       -0.5257000000  LIG       1               0.0000000000
        12         1  LIG       C2              6.4358000000       -1.7961000000        0.4056000000  LIG       1               0.0000000000
        13         1  LIG       C3              5.1667000000       -1.3868000000       -1.5960000000  LIG       1               0.0000000000
        14         1  LIG       C4              4.8473000000       -4.3082000000        0.7810000000  LIG       1               0.0000000000
        15         1  LIG       C5              6.4466000000       -2.3587000000        1.8251000000  LIG       1               0.0000000000
        16         1  LIG       C6              4.8595000000        0.0776000000       -1.4288000000  LIG       1               0.0000000000
        17         1  LIG       C7              3.6756000000        0.4761000000       -0.8081000000  LIG       1               0.0000000000
        18         1  LIG       C8              5.7593000000        1.0361000000       -1.8951000000  LIG       1               0.0000000000
        19         1  LIG       C9              3.3916000000        1.8330000000       -0.6536000000  LIG       1               0.0000000000
        20         1  LIG       C10             2.1730000000        2.2437000000       -0.0144000000  LIG       1               0.0000000000
        21         1  LIG       C11             5.4753000000        2.3929000000       -1.7406000000  LIG       1               0.0000000000
        22         1  LIG       C12             4.2914000000        2.7914000000       -1.1199000000  LIG       1               0.0000000000
        23         1  LIG       C13            -0.6197000000        2.0804000000        2.1917000000  LIG       1               0.0000000000
        24         1  LIG       C14             1.5066000000        1.5445000000        0.9603000000  LIG       1               0.0000000000
        25         1  LIG       C15            -1.8965000000        1.5840000000        1.5595000000  LIG       1               0.0000000000
        26         1  LIG       C16            -2.7520000000        2.4806000000        0.9193000000  LIG       1               0.0000000000
        27         1  LIG       C17            -2.2214000000        0.2287000000        1.6152000000  LIG       1               0.0000000000
        28         1  LIG       C18            -4.2573000000        0.6665000000        0.3904000000  LIG       1               0.0000000000
        29         1  LIG       C19            -3.9325000000        2.0218000000        0.3347000000  LIG       1               0.0000000000
        30         1  LIG       C20            -3.4018000000       -0.2301000000        1.0307000000  LIG       1               0.0000000000
        31         1  LIG       C21            -5.4779000000        0.1918000000       -0.2143000000  LIG       1               0.0000000000
        32         1  LIG       C22            -6.9036000000       -1.2508000000       -0.7639000000  LIG       1               0.0000000000
        33         1  LIG       C23            -7.4897000000       -2.5936000000       -0.8576000000  LIG       1               0.0000000000
